Protein in water
98266
    1DT5    H5T    1   4.993   4.188   1.641  1.4577 -0.4211 -1.8863
    1DT5    O5'    2   5.035   4.268   1.675 -0.4066 -0.0654 -0.2495
    1DT5    C5'    3   5.167   4.255   1.621  0.5339 -0.6685 -0.1657
    1DT5   H5'1    4   5.161   4.305   1.525 -0.4195 -1.3735 -0.4831
    1DT5   H5'2    5   5.189   4.149   1.606 -0.5652 -0.9082 -0.1093
    1DT5    C4'    6   5.270   4.324   1.704  0.1831 -0.2998 -0.9607
    1DT5    H4'    7   5.357   4.325   1.638  0.4686 -0.1930 -0.5859
    1DT5    O4'    8   5.235   4.462   1.733  0.0968  0.4139  0.1881
    1DT5    C1'    9   5.222   4.484   1.872 -0.4298  0.0081 -0.2782
    1DT5    H1'   10   5.311   4.539   1.903 -1.4074  1.6532 -0.2740
    1DT5     N1   11   5.108   4.588   1.888  0.1154  0.5044  0.1355
    1DT5     C6   12   4.976   4.549   1.902  0.2333  0.1841 -0.1995
    1DT5     H6   13   4.953   4.448   1.932  1.1168  0.2372  0.7063
    1DT5     C5   14   4.882   4.639   1.885  0.3497 -0.1694 -0.1647
    1DT5     C7   15   4.735   4.590   1.902  0.0899  0.3004  0.3139
    1DT5    H71   16   4.670   4.623   1.821 -1.5870 -0.2192  1.4108
    1DT5    H72   17   4.738   4.482   1.889  0.2527  0.0197  2.3559
    1DT5    H73   18   4.697   4.626   1.997 -1.0790  1.8739 -0.6924
    1DT5     C4   19   4.909   4.781   1.862  0.0860  0.3088 -0.0639
    1DT5     O4   20   4.833   4.874   1.849 -0.2979 -0.1995 -0.0792
    1DT5     N3   21   5.043   4.810   1.842  0.9241  0.1951  0.2678
    1DT5     H3   22   5.078   4.904   1.853  3.1378 -0.5067 -0.3529
    1DT5     C2   23   5.141   4.720   1.857 -0.1095 -0.1018 -0.2555
    1DT5     O2   24   5.258   4.760   1.857  0.2264  0.7986 -0.2091
    1DT5    C3'   25   5.292   4.256   1.839  0.1565 -0.3248 -0.1537
    1DT5    H3'   26   5.250   4.156   1.849  1.2939 -0.8489 -0.4804
    1DT5    C2'   27   5.210   4.349   1.939  0.5391  0.5138 -0.1644
    1DT5   H2'1   28   5.105   4.323   1.937 -0.2534  3.3276 -1.5688
    1DT5   H2'2   29   5.250   4.365   2.039 -0.4345 -1.7870  0.6471
    1DT5    O3'   30   5.441   4.257   1.865  0.0464  0.3142 -0.0759
    2DT       P   31   5.502   4.249   2.011  0.1868  0.1092  0.0676
    2DT     O1P   32   5.636   4.188   2.004 -0.1927 -0.6663 -0.2829
    2DT     O2P   33   5.404   4.187   2.098  0.1751  0.5235  0.2490
    2DT     O5'   34   5.514   4.405   2.044 -0.0177  0.0951 -1.1021
    2DT     C5'   35   5.599   4.491   1.978  0.9189 -0.6431  0.3609
    2DT    H5'1   36   5.545   4.501   1.883  0.3049 -2.5455  0.4641
    2DT    H5'2   37   5.695   4.446   1.957  0.4080 -1.8136  0.4501
    2DT     C4'   38   5.611   4.632   2.041  0.3949 -0.1414 -0.4145
    2DT     H4'   39   5.683   4.697   1.990  0.7519  0.5377  0.9212
    2DT     O4'   40   5.492   4.711   2.048 -0.0927 -0.2281  0.4322
    2DT     C1'   41   5.465   4.741   2.175 -0.3483  0.4759 -0.5353
    2DT     H1'   42   5.519   4.831   2.204 -1.1771  0.5444  0.8859
    2DT      N1   43   5.319   4.765   2.197 -0.1908  0.1296  0.4742
    2DT      C6   44   5.230   4.661   2.221  0.8992  0.5001 -0.1926
    2DT      H6   45   5.259   4.557   2.229 -1.5629 -0.2660 -0.3556
    2DT      C5   46   5.097   4.686   2.224  0.1476 -0.2910 -0.5892
    2DT      C7   47   5.010   4.570   2.256  0.3619 -0.3538 -0.2364
    2DT     H71   48   5.058   4.484   2.210 -0.7635  0.2131 -2.6220
    2DT     H72   49   4.985   4.575   2.362  0.1080  1.0550 -0.3387
    2DT     H73   50   4.911   4.580   2.210 -0.8486 -3.5293  1.3874
    2DT      C4   51   5.048   4.820   2.217  0.0037 -0.3399 -0.0317
    2DT      O4   52   4.928   4.854   2.230 -0.4027  0.6453 -0.1924
    2DT      N3   53   5.142   4.914   2.185  0.1689 -0.0271 -1.0818
    2DT      H3   54   5.106   5.007   2.167 -2.5106 -0.2238  2.1314
    2DT      C2   55   5.274   4.893   2.173 -1.0766 -0.6279  0.8512
    2DT      O2   56   5.353   4.985   2.153 -0.2802 -0.8614  0.0513
    2DT     C3'   57   5.656   4.601   2.185  0.2159  0.5165  0.2426
    2DT     H3'   58   5.686   4.498   2.206  0.7451  0.9872  1.9902
    2DT     C2'   59   5.525   4.629   2.261  0.4927 -0.1899  0.7869
    2DT    H2'1   60   5.455   4.547   2.247 -0.4497  0.5209  1.2401
    2DT    H2'2   61   5.544   4.660   2.364  2.1544 -2.4212  1.2065
    2DT     O3'   62   5.766   4.682   2.212 -0.0997  0.5506 -0.4353
    3DT       P   63   5.823   4.712   2.354 -0.1994  0.2424 -0.6261
    3DT     O1P   64   5.963   4.740   2.351 -0.5808 -1.2429  0.4474
    3DT     O2P   65   5.783   4.615   2.457  0.3743 -0.6264 -0.0234
    3DT     O5'   66   5.755   4.853   2.381  0.2097  0.3033 -0.4295
    3DT     C5'   67   5.753   4.954   2.281  0.6151  0.4101 -0.3865
    3DT    H5'1   68   5.691   4.924   2.197  2.8219 -1.0878 -1.5940
    3DT    H5'2   69   5.854   4.971   2.242  0.4651  0.1468 -0.9030
    3DT     C4'   70   5.702   5.084   2.345 -0.0956  0.5947 -0.1643
    3DT     H4'   71   5.724   5.163   2.274  2.8966  0.9749  1.0298
    3DT     O4'   72   5.563   5.076   2.359 -0.0108  0.2299 -0.1704
    3DT     C1'   73   5.526   5.102   2.487  0.0588 -0.2213 -0.0078
    3DT     H1'   74   5.498   5.207   2.490 -0.2673 -0.3229  1.6742
    3DT      N1   75   5.407   5.016   2.518 -0.0726 -0.1890  0.2087
    3DT      C6   76   5.416   4.876   2.534 -1.4202  0.0976 -0.4955
    3DT      H6   77   5.516   4.837   2.531 -1.7459 -0.6679 -2.1244
    3DT      C5   78   5.313   4.791   2.539 -0.2325  0.3847  0.4893
    3DT      C7   79   5.338   4.639   2.565  0.0882  0.5270  0.1120
    3DT     H71   80   5.303   4.576   2.483 -1.4939 -0.3372  1.4029
    3DT     H72   81   5.444   4.621   2.583 -0.2102  0.2310  1.7727
    3DT     H73   82   5.288   4.603   2.655  0.8322 -4.0251 -1.0321
    3DT      C4   83   5.178   4.846   2.525 -0.0816  0.8581  0.0596
    3DT      O4   84   5.074   4.776   2.516  0.4849 -0.0901 -0.1359
    3DT      N3   85   5.174   4.985   2.511  1.1040 -0.0558 -0.0519
    3DT      H3   86   5.083   5.029   2.509  1.6792  1.2988  1.1678
    3DT      C2   87   5.279   5.067   2.507  0.4453 -0.4140 -0.2879
    3DT      O2   88   5.253   5.188   2.498  0.1792  0.8767 -0.0660
    3DT     C3'   89   5.752   5.121   2.491  0.1930  0.5487 -0.0563
    3DT     H3'   90   5.845   5.067   2.508  0.7376  0.6271 -2.4729
    3DT     C2'   91   5.637   5.080   2.585  0.0681 -0.3148  0.0311
    3DT    H2'1   92   5.658   4.973   2.598  2.5794 -0.1044 -1.5640
    3DT    H2'2   93   5.632   5.131   2.681  1.5499 -2.3273  1.2584
    3DT     O3'   94   5.786   5.264   2.494 -0.0272  0.1815 -0.3076
    4DT       P   95   5.861   5.324   2.626 -0.1650  0.2828  0.0160
    4DT     O1P   96   5.931   5.439   2.572  0.4766 -0.6085  0.0289
    4DT     O2P   97   5.933   5.214   2.693 -0.3588  0.2641 -0.5493
    4DT     O5'   98   5.741   5.372   2.717  0.0760  0.0863 -0.0882
    4DT     C5'   99   5.631   5.443   2.666 -0.1320  0.8493  0.1877
    4DT    H5'1  100   5.601   5.397   2.571 -0.5227  1.6074 -0.0629
    4DT    H5'2  101   5.647   5.550   2.649  0.8950  0.7193  0.2608
    4DT     C4'  102   5.502   5.430   2.757 -0.0412 -0.5080 -0.6405
    4DT     H4'  103   5.427   5.500   2.722 -1.5279 -1.3074  0.7996
    4DT     O4'  104   5.444   5.298   2.757  0.0977 -0.2323  0.3268
    4DT     C1'  105   5.360   5.298   2.874  0.1402 -0.3870  0.3503
    4DT     H1'  106   5.279   5.371   2.868  0.6925  0.5789  3.1752
    4DT      N1  107   5.323   5.155   2.901 -0.4152 -0.5006 -0.4091
    4DT      C6  108   5.416   5.057   2.904  0.4273  0.6693  0.2834
    4DT      H6  109   5.521   5.077   2.922  0.5365 -1.9544  3.4131
    4DT      C5  110   5.378   4.928   2.896 -0.3103 -0.6067 -0.0589
    4DT      C7  111   5.481   4.824   2.895  0.3027  0.4437 -0.2476
    4DT     H71  112   5.583   4.863   2.895  0.4456  0.1346 -1.8917
    4DT     H72  113   5.467   4.753   2.976  3.3351 -0.3719 -0.2980
    4DT     H73  114   5.457   4.771   2.803  1.3051  1.6319 -1.2407
    4DT      C4  115   5.238   4.897   2.882  0.1416  0.2879  0.8349
    4DT      O4  116   5.190   4.787   2.862  0.1784 -0.6099 -0.5096
    4DT      N3  117   5.149   5.005   2.877 -0.3196  0.0116 -0.3695
    4DT      H3  118   5.050   4.984   2.875  0.0714 -2.1193  0.4694
    4DT      C2  119   5.188   5.131   2.886 -0.4803 -0.0603  0.4579
    4DT      O2  120   5.099   5.215   2.882  0.1437 -0.0926  0.7208
    4DT     C3'  121   5.542   5.462   2.902  0.2031 -0.0452 -1.2158
    4DT     H3'  122   5.647   5.443   2.925  0.2044  0.3426 -0.8874
    4DT     C2'  123   5.451   5.359   2.976 -0.1313 -1.0449 -0.5410
    4DT    H2'1  124   5.522   5.292   3.025  1.2817  1.1598  0.6063
    4DT    H2'2  125   5.388   5.400   3.055 -1.8255  0.1860 -2.4511
    4DT     O3'  126   5.518   5.601   2.933  0.3357  0.0042  0.0416
    5DT       P  127   5.497   5.660   3.074 -0.3820 -0.2489  0.2708
    5DT     O1P  128   5.542   5.799   3.067 -0.3608 -0.3143  0.5253
    5DT     O2P  129   5.557   5.576   3.182  0.4255 -0.0940  0.4559
    5DT     O5'  130   5.341   5.670   3.100  0.2671  0.1798 -0.1238
    5DT     C5'  131   5.248   5.696   2.990  0.5322  0.3014  0.1790
    5DT    H5'1  132   5.274   5.636   2.903 -1.5940 -0.5247  0.0705
    5DT    H5'2  133   5.244   5.802   2.964 -0.8423  0.4492  0.9235
    5DT     C4'  134   5.098   5.669   3.021  0.4313  0.3113 -0.2225
    5DT     H4'  135   5.037   5.725   2.950  0.2752  1.1719  0.5651
    5DT     O4'  136   5.076   5.527   3.022  0.2037 -0.1179 -0.8859
    5DT     C1'  137   5.003   5.492   3.143  0.2829 -0.0032  0.0669
    5DT     H1'  138   4.899   5.474   3.117  0.7455 -1.7105 -0.7185
    5DT      N1  139   5.050   5.355   3.188  0.3852 -0.8291 -0.0966
    5DT      C6  140   5.181   5.340   3.231  0.1490  0.9867 -0.0696
    5DT      H6  141   5.254   5.417   3.249 -0.0457  0.9162  1.1285
    5DT      C5  142   5.222   5.208   3.246  0.1972 -0.0266  0.5405
    5DT      C7  143   5.363   5.173   3.287 -0.2831 -0.1842  0.9578
    5DT     H71  144   5.409   5.103   3.217 -1.8444  2.4095 -3.0055
    5DT     H72  145   5.417   5.267   3.287  1.2833 -1.0354 -0.4731
    5DT     H73  146   5.366   5.117   3.381 -0.0089 -0.7890  0.5974
    5DT      C4  147   5.137   5.093   3.222 -0.0237 -0.4465  0.8730
    5DT      O4  148   5.164   4.971   3.232 -0.3620 -0.1732 -0.2246
    5DT      N3  149   5.013   5.127   3.179 -0.0803  0.1339 -0.2561
    5DT      H3  150   4.957   5.053   3.139  0.8441  0.1681 -1.6804
    5DT      C2  151   4.962   5.254   3.173 -0.2745  0.9330 -0.2996
    5DT      O2  152   4.841   5.268   3.146 -0.1278  0.2194  0.0947
    5DT     C3'  153   5.067   5.729   3.158 -0.0005  0.0955  0.7122
    5DT     H3'  154   5.159   5.769   3.200  0.9203 -2.5547  1.4138
    5DT     C2'  155   5.033   5.604   3.246 -0.0596  0.2471  0.0898
    5DT    H2'1  156   5.122   5.581   3.304 -0.1224  2.3781  1.1352
    5DT    H2'2  157   4.951   5.636   3.310 -1.1646  2.9506 -2.4357
    5DT     O3'  158   4.968   5.830   3.137  0.3786 -0.5546  0.6114
    6DT       P  159   4.906   5.918   3.257  0.0104  0.1255 -0.4615
    6DT     O1P  160   4.821   6.021   3.199  0.1648 -1.0560 -0.1702
    6DT     O2P  161   5.019   5.962   3.338 -0.3023  0.0251 -0.5433
    6DT     O5'  162   4.823   5.829   3.359  0.4663 -0.0302 -0.1092
    6DT     C5'  163   4.700   5.771   3.318  0.6049  0.5903  0.5563
    6DT    H5'1  164   4.719   5.736   3.216 -1.6885  0.6164  0.0807
    6DT    H5'2  165   4.624   5.848   3.308 -2.4722 -1.8513  3.3705
    6DT     C4'  166   4.648   5.660   3.414 -0.3099 -0.2430  0.5391
    6DT     H4'  167   4.544   5.637   3.390 -0.7780  1.9389  0.2738
    6DT     O4'  168   4.724   5.539   3.400 -0.2657  0.5995 -0.2624
    6DT     C1'  169   4.722   5.487   3.529 -0.5217  0.8452 -0.9167
    6DT     H1'  170   4.624   5.442   3.547 -0.0420  0.1222 -0.0092
    6DT      N1  171   4.834   5.386   3.550  0.2174 -0.5553  0.1881
    6DT      C6  172   4.965   5.429   3.577  0.8634  0.4770  0.7906
    6DT      H6  173   4.989   5.534   3.578  1.9654  0.2489 -0.0971
    6DT      C5  174   5.067   5.341   3.592 -0.4076  0.1461  0.0407
    6DT      C7  175   5.204   5.383   3.628  0.6621  0.3279 -1.2324
    6DT     H71  176   5.195   5.488   3.656 -2.8963  0.4109 -2.1953
    6DT     H72  177   5.243   5.316   3.704  2.0567  3.2006  0.7488
    6DT     H73  178   5.265   5.370   3.538  2.5615  2.8177 -0.4007
    6DT      C4  179   5.054   5.206   3.561  0.2394  0.2127  0.5016
    6DT      O4  180   5.143   5.119   3.564 -0.4581 -0.1085  0.3680
    6DT      N3  181   4.924   5.167   3.527 -0.2515  0.0124 -0.3349
    6DT      H3  182   4.916   5.069   3.504  1.7402 -0.6639  1.4749
    6DT      C2  183   4.809   5.249   3.529 -0.1420 -0.2973 -0.8894
    6DT      O2  184   4.693   5.204   3.522 -0.3815 -0.2471 -0.0467
    6DT     C3'  185   4.653   5.719   3.556  0.4936 -0.6803  0.0655
    6DT     H3'  186   4.711   5.812   3.558  0.4782 -0.6787  0.5433
    6DT     C2'  187   4.719   5.611   3.633 -0.2066  0.0623  0.0404
    6DT    H2'1  188   4.819   5.647   3.654 -0.5956  1.1101  0.1472
    6DT    H2'2  189   4.675   5.584   3.730 -0.8484  0.7107 -0.0604
    6DT     O3'  190   4.523   5.750   3.588  0.2770 -0.3974  0.2660
    7DT       P  191   4.458   5.747   3.731  0.2127 -0.0847  0.0603
    7DT     O1P  192   4.330   5.821   3.725  0.6305 -0.1446 -0.2742
    7DT     O2P  193   4.558   5.804   3.829 -0.0133  0.2244 -0.0407
    7DT     O5'  194   4.428   5.591   3.745  0.1343 -0.3942  0.0876
    7DT     C5'  195   4.361   5.513   3.651 -0.1284 -0.5086 -0.2248
    7DT    H5'1  196   4.400   5.504   3.550  0.4200  1.8081 -0.2638
    7DT    H5'2  197   4.258   5.547   3.638  0.1538  0.1597 -0.7655
    7DT     C4'  198   4.345   5.370   3.712  0.0112  0.4743 -0.1326
    7DT     H4'  199   4.279   5.322   3.640  1.0976 -0.6280 -0.4281
    7DT     O4'  200   4.469   5.302   3.709  0.2709 -0.1937 -0.6536
    7DT     C1'  201   4.492   5.244   3.834 -1.2648 -0.1745 -0.1362
    7DT     H1'  202   4.446   5.146   3.824 -0.4903 -0.4083 -1.5435
    7DT      N1  203   4.637   5.237   3.846  0.7733 -0.1028  0.2460
    7DT      C6  204   4.706   5.347   3.882 -0.3629 -0.1334 -0.3040
    7DT      H6  205   4.656   5.440   3.903 -1.1163 -0.1199 -2.0237
    7DT      C5  206   4.839   5.343   3.898 -0.2794 -0.2504 -0.2055
    7DT      C7  207   4.906   5.477   3.937  0.5171 -0.1971  0.0403
    7DT     H71  208   4.994   5.502   3.878  0.6015  0.4989  0.4553
    7DT     H72  209   4.835   5.559   3.927 -0.5169 -1.1090 -0.3930
    7DT     H73  210   4.924   5.452   4.041 -1.2163 -2.9803 -0.2118
    7DT      C4  211   4.912   5.222   3.864 -0.7034 -0.1923 -0.8802
    7DT      O4  212   5.034   5.199   3.867  0.4614  0.3937 -0.2918
    7DT      N3  213   4.833   5.115   3.831  0.6277 -0.6833 -0.4955
    7DT      H3  214   4.879   5.025   3.821  1.9752  0.0445 -1.1390
    7DT      C2  215   4.697   5.116   3.825 -0.3500  0.5415 -0.3082
    7DT      O2  216   4.643   5.007   3.799  0.5078 -0.1617  0.6535
    7DT     C3'  217   4.286   5.367   3.857 -0.0220  0.3745  0.0910
    7DT     H3'  218   4.257   5.469   3.880  3.0657  1.4910 -0.5287
    7DT     C2'  219   4.412   5.326   3.938  0.5905 -0.2684 -0.1573
    7DT    H2'1  220   4.467   5.418   3.961  0.8136 -0.8672  1.9861
    7DT    H2'2  221   4.383   5.275   4.030  0.7134  1.4144  0.8513
    7DT     O3'  222   4.171   5.277   3.854  0.0614  0.0382  0.0984
    8DT       P  223   4.092   5.260   3.984  0.4023 -0.3679 -0.6987
    8DT     O1P  224   3.946   5.241   3.954  0.4026  0.0014 -0.4481
    8DT     O2P  225   4.130   5.371   4.083  0.5483 -0.1003 -0.0481
    8DT     O5'  226   4.153   5.129   4.044  0.2926  0.2022  0.4015
    8DT     C5'  227   4.167   5.013   3.960 -0.0026 -0.3025  0.3688
    8DT    H5'1  228   4.205   5.042   3.862 -0.8969 -0.2870  0.0160
    8DT    H5'2  229   4.068   4.975   3.938  0.9964 -3.4894  0.8921
    8DT     C4'  230   4.260   4.906   4.014  0.3609 -0.5212 -0.3821
    8DT     H4'  231   4.234   4.823   3.948 -1.5157 -0.9378  0.7681
    8DT     O4'  232   4.393   4.943   4.008  0.3700 -0.5044 -0.0619
    8DT     C1'  233   4.461   4.885   4.120  0.0769 -0.0965  0.0996
    8DT     H1'  234   4.486   4.781   4.100 -2.4798 -0.9594  0.9854
    8DT      N1  235   4.581   4.976   4.154  0.0301 -0.6834  0.2167
    8DT      C6  236   4.571   5.107   4.196  0.7177  0.2783 -0.0843
    8DT      H6  237   4.476   5.147   4.230  0.5617 -0.2533  0.1154
    8DT      C5  238   4.682   5.180   4.222  0.1376 -0.1501 -0.1250
    8DT      C7  239   4.659   5.325   4.266  0.1050  0.9336 -0.2955
    8DT     H71  240   4.563   5.338   4.315 -2.0780 -1.3452 -3.5350
    8DT     H72  241   4.740   5.359   4.331 -0.0933  1.5783 -0.3880
    8DT     H73  242   4.665   5.381   4.172  0.3252 -1.2649 -1.6826
    8DT      C4  243   4.820   5.126   4.215  0.1415 -0.4775  0.2996
    8DT      O4  244   4.921   5.184   4.249  0.0234 -0.0584  0.0036
    8DT      N3  245   4.822   4.995   4.166  0.6021  0.7245  0.7464
    8DT      H3  246   4.914   4.952   4.158  0.0008 -0.4686 -0.0354
    8DT      C2  247   4.711   4.919   4.137 -0.6950  0.2981 -0.0226
    8DT      O2  248   4.731   4.806   4.095  0.0579 -0.1588  0.0092
    8DT     C3'  249   4.223   4.870   4.154 -0.4526  0.2095  0.0537
    8DT     H3'  250   4.154   4.937   4.205  0.3825 -0.1702  1.7252
    8DT     C2'  251   4.359   4.879   4.231  0.1082 -0.4881 -0.1560
    8DT    H2'1  252   4.365   4.969   4.292 -2.2342 -1.8692  2.3365
    8DT    H2'2  253   4.370   4.798   4.304 -1.1066 -0.2346  0.3368
    8DT     O3'  254   4.174   4.738   4.162 -0.6380 -0.1225  0.4018
    9DT       P  255   4.113   4.685   4.298  0.7925 -0.1318 -0.2405
    9DT     O1P  256   4.020   4.578   4.256  0.3536 -0.3267 -1.0683
    9DT     O2P  257   4.068   4.794   4.392 -0.2629  0.5184  0.2714
    9DT     O5'  258   4.225   4.603   4.374 -0.1103  0.3031 -0.0773
    9DT     C5'  259   4.308   4.511   4.300  0.2902  0.3613  0.3207
    9DT    H5'1  260   4.317   4.542   4.196 -0.1924  1.1336  0.5033
    9DT    H5'2  261   4.261   4.413   4.305 -1.4089  1.1929  2.9103
    9DT     C4'  262   4.446   4.503   4.360 -0.1599 -0.1474  0.5570
    9DT     H4'  263   4.506   4.426   4.312 -0.0646 -0.7129  1.5407
    9DT     O4'  264   4.531   4.618   4.352 -0.6128  0.1176  0.3035
    9DT     C1'  265   4.612   4.623   4.469 -0.5825 -0.2297  0.1920
    9DT     H1'  266   4.696   4.554   4.456 -1.1496 -0.5398 -2.4598
    9DT      N1  267   4.658   4.756   4.508  0.2821  0.4521 -0.2399
    9DT      C6  268   4.563   4.858   4.531 -0.2150  0.3897  0.8536
    9DT      H6  269   4.456   4.846   4.537 -0.3500  0.3607 -1.0003
    9DT      C5  270   4.605   4.984   4.552  0.3345 -1.0144  0.3214
    9DT      C7  271   4.494   5.093   4.569 -0.4019  0.1222  0.2077
    9DT     H71  272   4.473   5.157   4.483  1.2357  0.1468 -0.2116
    9DT     H72  273   4.400   5.048   4.603 -0.1753 -0.1378  0.4937
    9DT     H73  274   4.533   5.151   4.653  0.8126  0.3432 -0.4832
    9DT      C4  275   4.742   5.019   4.547 -0.7802  0.1066  0.0988
    9DT      O4  276   4.788   5.132   4.573 -0.3481 -0.2379 -0.4593
    9DT      N3  277   4.823   4.911   4.535  0.0985  0.6102  0.5276
    9DT      H3  278   4.919   4.935   4.518  0.1788 -0.3763 -0.4865
    9DT      C2  279   4.791   4.778   4.516 -0.0454 -0.4081  0.1791
    9DT      O2  280   4.886   4.704   4.485  0.5238  0.4669 -0.5610
    9DT     C3'  281   4.439   4.454   4.510 -0.1829 -0.3572 -0.1264
    9DT     H3'  282   4.336   4.459   4.544  0.3142 -1.7330  1.7385
    9DT     C2'  283   4.529   4.553   4.587 -0.2961  0.8827 -0.4663
    9DT    H2'1  284   4.474   4.633   4.636  1.0862  1.6716 -0.1471
    9DT    H2'2  285   4.600   4.517   4.662 -1.1749  3.5528  1.7942
    9DT     O3'  286   4.482   4.319   4.524  0.2108 -0.0953 -0.4104
   10DT       P  287   4.471   4.238   4.659 -0.1471 -0.5133  0.4300
   10DT     O1P  288   4.453   4.094   4.629  0.5141 -0.3845 -0.5887
   10DT     O2P  289   4.372   4.306   4.737 -0.0508 -1.1401  0.7938
   10DT     O5'  290   4.614   4.256   4.715 -0.4457 -0.2773  0.2045
   10DT     C5'  291   4.730   4.225   4.650 -0.7813  0.1306  0.4292
   10DT    H5'1  292   4.722   4.268   4.549 -1.1421 -1.1218 -0.0949
   10DT    H5'2  293   4.749   4.119   4.632  0.6906  0.3901  0.3861
   10DT     C4'  294   4.851   4.289   4.704  0.2262 -0.0582 -0.7882
   10DT     H4'  295   4.942   4.253   4.657 -1.7030 -3.8707 -2.0198
   10DT     O4'  296   4.840   4.433   4.709  0.1154  0.4983 -0.2586
   10DT     C1'  297   4.917   4.484   4.812  0.5812  0.1419 -0.3113
   10DT     H1'  298   5.023   4.477   4.790  1.0147  1.5413  1.0801
   10DT      N1  299   4.889   4.630   4.831  0.2352 -0.2999  0.2315
   10DT      C6  300   4.758   4.676   4.852 -0.1745  0.3483  0.2746
   10DT      H6  301   4.681   4.602   4.869  0.5555 -0.4529  0.1953
   10DT      C5  302   4.722   4.806   4.863  0.3168  0.1228 -0.1191
   10DT      C7  303   4.586   4.846   4.902 -0.2400  0.3376 -0.0331
   10DT     H71  304   4.554   4.927   4.837  0.7386 -1.4168 -2.8942
   10DT     H72  305   4.509   4.770   4.890  0.9430 -1.0627  0.8597
   10DT     H73  306   4.589   4.885   5.004 -0.2484 -0.0639  0.1234
   10DT      C4  307   4.833   4.904   4.846  0.7402  0.1720 -0.2431
   10DT      O4  308   4.819   5.026   4.852  0.2416 -0.3751  0.0441
   10DT      N3  309   4.961   4.859   4.831  0.4473  0.6747  0.2873
   10DT      H3  310   5.031   4.931   4.823  0.3540  0.7176 -0.1474
   10DT      C2  311   4.994   4.725   4.830 -0.4162  0.1895  0.7680
   10DT      O2  312   5.113   4.691   4.826 -0.3795 -0.2684  0.3304
   10DT     C3'  313   4.856   4.252   4.855  0.1671  0.2715 -0.5727
   10DT     H3'  314   4.763   4.207   4.890 -0.0342  0.8132 -0.4011
   10DT     C2'  315   4.887   4.390   4.925 -0.1797  1.0154  0.2500
   10DT    H2'1  316   4.802   4.424   4.984 -1.3376 -0.5721 -0.4184
   10DT    H2'2  317   4.981   4.383   4.979  1.6276  1.3519 -2.6262
   10DT     O3'  318   4.964   4.155   4.860  0.7581  0.4282  0.3861
   11DT       P  319   5.015   4.075   4.995  0.1449  0.2747 -0.1390
   11DT     O1P  320   5.101   3.953   4.967 -0.3453  0.2472 -0.0071
   11DT     O2P  321   4.901   4.061   5.086  0.0136 -0.9004  0.1900
   11DT     O5'  322   5.101   4.186   5.060 -0.6453  0.4490 -0.3968
   11DT     C5'  323   5.228   4.224   4.996 -0.1394 -0.5883 -0.4330
   11DT    H5'1  324   5.218   4.241   4.889  0.9716 -2.1540 -0.8176
   11DT    H5'2  325   5.289   4.134   5.001 -1.4161 -1.4795 -0.2015
   11DT     C4'  326   5.292   4.336   5.076 -0.4328 -0.1414  0.6070
   11DT     H4'  327   5.396   4.344   5.044 -0.1723  2.7494  1.8596
   11DT     O4'  328   5.225   4.450   5.057 -0.3562 -0.5185 -0.2184
   11DT     C1'  329   5.234   4.535   5.166  0.5356  0.5170  0.1648
   11DT     H1'  330   5.328   4.591   5.163  1.3742 -0.6601  2.3477
   11DT      N1  331   5.117   4.617   5.188  0.5959  0.2896  0.4621
   11DT      C6  332   4.986   4.565   5.206  0.1802  0.2276 -0.2916
   11DT      H6  333   4.975   4.459   5.224  0.8911  0.2042  0.0130
   11DT      C5  334   4.873   4.647   5.205  0.5447 -0.9515  0.3747
   11DT      C7  335   4.740   4.600   5.236 -0.3927 -0.5409 -0.2538
   11DT     H71  336   4.664   4.617   5.160 -1.5346 -1.8892  0.5511
   11DT     H72  337   4.742   4.492   5.250 -0.3090 -0.7285 -1.5722
   11DT     H73  338   4.707   4.648   5.328  1.8902  2.0734 -0.6650
   11DT      C4  339   4.898   4.797   5.185  0.5112  0.5247 -0.4760
   11DT      O4  340   4.814   4.885   5.188  0.0093 -0.1700  0.1212
   11DT      N3  341   5.027   4.836   5.162  0.3520  0.2201 -0.2448
   11DT      H3  342   5.050   4.935   5.161 -1.1407  0.5923 -0.5295
   11DT      C2  343   5.138   4.753   5.161  0.3974 -0.8159 -0.2584
   11DT      O2  344   5.249   4.804   5.148  0.6821 -0.3105 -0.3926
   11DT     C3'  345   5.304   4.306   5.227  0.0711 -0.1202 -0.1497
   11DT     H3'  346   5.229   4.235   5.261  0.2643 -0.6403 -0.7905
   11DT     C2'  347   5.256   4.435   5.286 -0.7750 -0.1036  0.2326
   11DT    H2'1  348   5.162   4.421   5.340 -1.0416  1.1526  0.1292
   11DT    H2'2  349   5.325   4.474   5.362  0.3023 -1.7442  0.1440
   11DT     O3'  350   5.435   4.254   5.259 -0.3690 -0.5612  0.2002
   12DT       P  351   5.503   4.260   5.402  0.3410 -0.5394 -0.0510
   12DT     O1P  352   5.634   4.187   5.389 -0.3497  0.2016 -0.4725
   12DT     O2P  353   5.403   4.215   5.500  0.1602 -0.1962 -0.0552
   12DT     O5'  354   5.537   4.411   5.417 -0.5964 -0.3572  0.3893
   12DT     C5'  355   5.625   4.480   5.327 -0.3659 -0.3917 -0.0818
   12DT    H5'1  356   5.579   4.479   5.229  1.5513  2.4725 -1.1364
   12DT    H5'2  357   5.722   4.430   5.322  0.3243  0.9490 -0.5865
   12DT     C4'  358   5.640   4.618   5.395 -0.7910  0.1689 -0.4853
   12DT     H4'  359   5.717   4.668   5.336 -0.4696 -1.8480 -1.8676
   12DT     O4'  360   5.523   4.706   5.389  0.3091 -0.1527 -0.3286
   12DT     C1'  361   5.489   4.753   5.519 -0.9833 -0.0083  1.2697
   12DT     H1'  362   5.510   4.860   5.524 -0.0369 -0.1076 -0.0871
   12DT      N1  363   5.339   4.747   5.533  0.2695  0.0531  0.2783
   12DT      C6  364   5.278   4.628   5.564  0.4116  0.9939  0.5965
   12DT      H6  365   5.329   4.537   5.593 -0.6842  0.4829  0.9615
   12DT      C5  366   5.143   4.623   5.549 -0.2120  0.5693 -0.2134
   12DT      C7  367   5.065   4.494   5.586  0.6265 -0.4247 -0.1878
   12DT     H71  368   4.991   4.467   5.511  0.1452  0.5854 -0.0949
   12DT     H72  369   5.127   4.406   5.605  1.1602  0.1160  0.6629
   12DT     H73  370   5.015   4.508   5.681 -1.1818  0.2752 -1.1920
   12DT      C4  371   5.065   4.743   5.523  0.1060  0.0514 -0.3285
   12DT      O4  372   4.938   4.745   5.519  0.2503 -0.9044 -0.4194
   12DT      N3  373   5.132   4.861   5.495 -0.0263  0.0091 -0.4104
   12DT      H3  374   5.076   4.944   5.482 -1.1318 -0.6215  0.2452
   12DT      C2  375   5.269   4.869   5.496 -0.5765  0.0025 -0.0404
   12DT      O2  376   5.329   4.975   5.476 -0.1471 -0.3286 -0.3012
   12DT     C3'  377   5.689   4.615   5.539  0.1313  0.0364 -0.0020
   12DT     H3'  378   5.705   4.511   5.569 -1.0886 -0.0766  0.3146
   12DT     C2'  379   5.573   4.669   5.618 -0.1321 -1.1243  0.2169
   12DT    H2'1  380   5.521   4.585   5.666  0.6441 -1.6705  0.1072
   12DT    H2'2  381   5.615   4.738   5.691 -1.1357 -1.6894  1.3610
   12DT     O3'  382   5.809   4.685   5.548 -0.1398  0.2205 -0.6191
   13DT       P  383   5.888   4.733   5.677  0.1923 -0.1066 -0.0123
   13DT     O1P  384   6.020   4.769   5.617  0.3561  0.7069 -0.5043
   13DT     O2P  385   5.886   4.629   5.779  0.3626  0.0782 -0.0283
   13DT     O5'  386   5.815   4.863   5.731 -0.5878 -0.2310  0.1387
   13DT     C5'  387   5.795   4.977   5.647  0.2997 -0.0015 -0.6577
   13DT    H5'1  388   5.763   4.954   5.545 -0.5224  2.0702 -0.9271
   13DT    H5'2  389   5.890   5.030   5.649  0.6485 -0.6265  1.0637
   13DT     C4'  390   5.690   5.071   5.702  0.1609 -0.0183  0.8792
   13DT     H4'  391   5.707   5.161   5.644 -3.0990  0.9206  1.2052
   13DT     O4'  392   5.558   5.023   5.691 -0.7359  0.4509 -0.0142
   13DT     C1'  393   5.483   5.087   5.795 -0.5618 -0.3051  1.0952
   13DT     H1'  394   5.464   5.189   5.763 -2.6289 -0.4845  1.5946
   13DT      N1  395   5.371   4.991   5.811 -0.7360 -0.0543 -0.1823
   13DT      C6  396   5.405   4.859   5.850  0.0716  0.2655 -0.0116
   13DT      H6  397   5.507   4.823   5.846  0.5721  1.6784 -2.6475
   13DT      C5  398   5.301   4.767   5.870 -0.6479 -1.1250  0.2053
   13DT      C7  399   5.325   4.622   5.905  1.0788  0.0808  0.0215
   13DT     H71  400   5.365   4.624   6.007  1.1793  1.1780 -0.0292
   13DT     H72  401   5.241   4.554   5.892  2.1831 -1.0719 -1.4133
   13DT     H73  402   5.400   4.576   5.841  2.9196 -1.1585  2.8710
   13DT      C4  403   5.166   4.805   5.860 -0.0362  0.0866  0.2095
   13DT      O4  404   5.067   4.729   5.857  0.5322  0.1574 -0.9702
   13DT      N3  405   5.146   4.941   5.832  0.3276 -0.0894  0.3543
   13DT      H3  406   5.050   4.967   5.814 -0.4152 -2.9700 -0.2625
   13DT      C2  407   5.238   5.038   5.805  0.0917  0.5288  0.2909
   13DT      O2  408   5.206   5.153   5.788 -0.7262  0.2839  0.4942
   13DT     C3'  409   5.714   5.101   5.845 -0.3084 -0.6662 -0.3660
   13DT     H3'  410   5.775   5.025   5.894 -0.2086 -0.2553  0.1485
   13DT     C2'  411   5.579   5.093   5.908 -0.5681  0.5467 -0.1038
   13DT    H2'1  412   5.581   5.008   5.977 -1.2672 -0.0995 -0.8658
   13DT    H2'2  413   5.562   5.182   5.969  0.4457  1.9052 -1.7350
   13DT     O3'  414   5.767   5.237   5.849  0.1750 -0.1918 -0.6474
   14DT       P  415   5.847   5.289   5.974  0.0570  0.2616 -0.5092
   14DT     O1P  416   5.940   5.389   5.922  0.0313  0.5966 -0.0845
   14DT     O2P  417   5.901   5.171   6.046 -0.6284  0.4019 -0.5924
   14DT     O5'  418   5.736   5.362   6.061 -0.0470 -0.1075  0.6413
   14DT     C5'  419   5.665   5.479   6.007 -0.2338  0.1262  0.0126
   14DT    H5'1  420   5.670   5.470   5.898  0.9473  1.0290 -0.0261
   14DT    H5'2  421   5.718   5.571   6.028 -1.1487  0.9027 -0.9425
   14DT     C4'  422   5.523   5.487   6.061  0.4093 -0.1246  1.0275
   14DT     H4'  423   5.479   5.578   6.019  3.5878  0.6939 -0.8379
   14DT     O4'  424   5.447   5.369   6.046  0.5759 -0.2566 -0.5682
   14DT     C1'  425   5.359   5.359   6.160  0.0687  0.6518  0.4672
   14DT     H1'  426   5.281   5.431   6.139  0.0966  0.3600 -0.6931
   14DT      N1  427   5.303   5.223   6.176  0.2477  0.0320 -0.0927
   14DT      C6  428   5.383   5.110   6.198  0.0997 -0.3971  0.2521
   14DT      H6  429   5.490   5.123   6.197  0.0665  0.1951  1.7258
   14DT      C5  430   5.329   4.987   6.209 -0.2122  0.2403 -0.3768
   14DT      C7  431   5.416   4.861   6.224 -0.0191  0.1445  0.4067
   14DT     H71  432   5.438   4.850   6.331  2.2545 -2.0479 -0.1880
   14DT     H72  433   5.368   4.765   6.211  1.4248 -0.8059  1.7143
   14DT     H73  434   5.500   4.854   6.155 -0.7823  0.6469 -0.5866
   14DT      C4  435   5.184   4.965   6.189  0.9558 -0.0406 -0.4787
   14DT      O4  436   5.125   4.860   6.193  0.2514 -0.0888 -0.2239
   14DT      N3  437   5.112   5.082   6.168  0.5521  0.7167  0.1414
   14DT      H3  438   5.012   5.077   6.162  0.5350 -0.7032  1.1223
   14DT      C2  439   5.159   5.207   6.174  0.5875  0.4505  0.3897
   14DT      O2  440   5.081   5.303   6.176 -0.5263 -0.7561  0.0185
   14DT     C3'  441   5.540   5.511   6.213  0.1266 -0.3010  0.9817
   14DT     H3'  442   5.642   5.484   6.241  0.8151  1.5326  0.4333
   14DT     C2'  443   5.438   5.417   6.273  0.2058 -0.7530  0.2190
   14DT    H2'1  444   5.488   5.339   6.332 -1.5016 -1.1303  1.2333
   14DT    H2'2  445   5.373   5.473   6.341  1.1333 -0.5738  0.9797
   14DT     O3'  446   5.536   5.650   6.236  0.7004 -0.5730  0.1791
   15DT       P  447   5.543   5.719   6.383  0.0714 -0.9316 -0.1747
   15DT     O1P  448   5.572   5.863   6.366 -0.2820 -0.3270  0.2854
   15DT     O2P  449   5.630   5.641   6.474 -0.0487  0.4037 -0.2876
   15DT     O5'  450   5.388   5.698   6.424 -0.0443  0.4086  0.1791
   15DT     C5'  451   5.287   5.755   6.337  0.0114  0.1026 -0.2335
   15DT    H5'1  452   5.305   5.732   6.232  1.5983 -0.7595  0.1979
   15DT    H5'2  453   5.288   5.861   6.363  0.4739  0.5321 -1.9252
   15DT     C4'  454   5.149   5.699   6.384  0.5336 -0.7577  0.4429
   15DT     H4'  455   5.081   5.752   6.317  0.4065 -1.1756  0.2336
   15DT     O4'  456   5.139   5.558   6.372  0.3879  0.4518  0.0302
   15DT     C1'  457   5.070   5.506   6.488  0.0360 -0.1877  0.3394
   15DT     H1'  458   4.965   5.528   6.472 -0.1740 -1.7998 -0.7267
   15DT      N1  459   5.101   5.361   6.501 -0.0882  0.3530  0.4373
   15DT      C6  460   5.227   5.318   6.529 -0.6393  0.3227  0.1067
   15DT      H6  461   5.307   5.389   6.537  0.1476 -0.5142 -0.1705
   15DT      C5  462   5.256   5.185   6.540 -0.1613  0.2891 -1.1831
   15DT      C7  463   5.392   5.142   6.579 -0.7347  0.0646 -0.3306
   15DT     H71  464   5.445   5.085   6.503 -0.7082 -0.8167  0.3350
   15DT     H72  465   5.456   5.229   6.594  1.5736 -1.5123 -0.5467
   15DT     H73  466   5.406   5.080   6.668  2.2170  1.0773  0.0040
   15DT      C4  467   5.150   5.081   6.519 -0.2322 -0.3731  0.0563
   15DT      O4  468   5.159   4.963   6.520 -0.0581  0.0542 -0.5422
   15DT      N3  469   5.028   5.141   6.487  0.4697  0.3926  0.1731
   15DT      H3  470   4.952   5.074   6.482  0.5597  0.2744  0.3755
   15DT      C2  471   4.993   5.271   6.496 -0.0149 -0.3836 -0.2001
   15DT      O2  472   4.877   5.301   6.503  0.1027 -0.0471  0.3200
   15DT     C3'  473   5.127   5.745   6.530  0.6508  0.9749 -0.0299
   15DT     H3'  474   5.215   5.795   6.569  1.4066 -0.3128 -0.0271
   15DT     C2'  475   5.113   5.608   6.599 -0.0186  1.4167  0.2906
   15DT    H2'1  476   5.210   5.572   6.635  0.6456  2.2935 -0.5854
   15DT    H2'2  477   5.051   5.620   6.688  2.9736  1.1212  2.6089
   15DT     O3'  478   5.008   5.825   6.523 -0.4673  0.0281  0.2171
   16DT       P  479   4.954   5.922   6.629 -0.2253 -0.3258 -0.2343
   16DT     O1P  480   4.884   6.030   6.557  0.5629 -0.3445 -0.2526
   16DT     O2P  481   5.049   5.958   6.732 -0.5462  0.4755  0.5735
   16DT     O5'  482   4.835   5.842   6.698 -0.4594  0.3721  0.2829
   16DT     C5'  483   4.746   5.765   6.624 -0.2841  1.1888  0.9640
   16DT    H5'1  484   4.783   5.730   6.528 -1.6728  1.5685  0.2659
   16DT    H5'2  485   4.660   5.824   6.591 -1.2518 -0.2039  0.8941
   16DT     C4'  486   4.692   5.648   6.708 -0.4300 -0.7080  0.0723
   16DT     H4'  487   4.589   5.639   6.675 -1.0173  3.0830  0.4475
   16DT     O4'  488   4.775   5.533   6.688  0.2519 -0.4064  0.6097
   16DT     C1'  489   4.749   5.453   6.797  0.1547 -0.3127  0.0391
   16DT     H1'  490   4.659   5.394   6.778  0.2952 -1.0490  1.4699
   16DT      N1  491   4.871   5.360   6.817 -0.0060 -0.3413 -0.1358
   16DT      C6  492   4.994   5.411   6.853 -0.1083  0.6044  0.6708
   16DT      H6  493   5.014   5.516   6.868  2.1803  0.1658  1.1135
   16DT      C5  494   5.098   5.331   6.870  0.2588  0.2668 -0.7627
   16DT      C7  495   5.239   5.394   6.879 -0.3826  0.1923  0.3117
   16DT     H71  496   5.297   5.352   6.961 -1.1709 -0.5144  0.5273
   16DT     H72  497   5.292   5.358   6.791  0.5005  0.5616  0.6823
   16DT     H73  498   5.234   5.502   6.889  0.6384  0.1534  1.4660
   16DT      C4  499   5.084   5.186   6.859  1.1664  0.8366  0.4414
   16DT      O4  500   5.180   5.107   6.853 -0.3426 -0.0442 -0.0713
   16DT      N3  501   4.958   5.142   6.837  0.5937  0.1085 -0.1916
   16DT      H3  502   4.954   5.042   6.818  3.5602 -0.5388  1.8961
   16DT      C2  503   4.848   5.223   6.814 -0.0523  0.3286 -1.1025
   16DT      O2  504   4.733   5.170   6.815  0.4468 -0.0647  0.1799
   16DT     C3'  505   4.675   5.677   6.858 -0.4522  0.9234  0.2809
   16DT     H3'  506   4.742   5.760   6.878  0.0186  0.5342  0.3276
   16DT     C2'  507   4.732   5.553   6.917  0.2820  0.6355  0.5179
   16DT    H2'1  508   4.829   5.566   6.966  0.3084  0.4908  0.5028
   16DT    H2'2  509   4.661   5.510   6.987  0.7609  0.7836  1.1032
   16DT     O3'  510   4.541   5.712   6.894  0.0855  0.6053 -0.4036
   17DT       P  511   4.490   5.723   7.046  0.2751  0.1417 -0.5290
   17DT     O1P  512   4.362   5.799   7.039 -0.0230 -0.2977  0.5864
   17DT     O2P  513   4.606   5.765   7.134  0.3430  0.2769  0.3033
   17DT     O5'  514   4.452   5.571   7.079 -0.2596 -0.2014  0.9513
   17DT     C5'  515   4.355   5.502   7.000  0.1587 -0.6192 -0.4893
   17DT    H5'1  516   4.392   5.515   6.898  3.2944  2.1650  0.8106
   17DT    H5'2  517   4.259   5.554   7.010  0.7884  0.6685 -0.8601
   17DT     C4'  518   4.331   5.358   7.045 -0.0217  0.1732 -0.3117
   17DT     H4'  519   4.251   5.311   6.989 -1.4169  0.3656  1.4414
   17DT     O4'  520   4.453   5.293   7.035 -0.5872  0.1983 -0.0330
   17DT     C1'  521   4.475   5.223   7.159 -0.2205 -0.1459  0.3944
   17DT     H1'  522   4.424   5.126   7.163 -1.1429  0.3492  0.8892
   17DT      N1  523   4.619   5.203   7.172  0.2114  0.3371 -0.1729
   17DT      C6  524   4.695   5.314   7.200  0.2266 -0.8238  0.2816
   17DT      H6  525   4.641   5.407   7.209 -0.9645 -1.5650  1.1695
   17DT      C5  526   4.834   5.302   7.198  0.7775 -0.1303 -0.1880
   17DT      C7  527   4.923   5.421   7.218  0.9570  0.4827  0.0198
   17DT     H71  528   4.951   5.412   7.322  0.0866  2.8142  0.5252
   17DT     H72  529   5.005   5.427   7.146 -1.2442 -1.8329 -2.9374
   17DT     H73  530   4.869   5.516   7.212 -1.7215 -0.8410  1.6092
   17DT      C4  531   4.899   5.171   7.182 -0.7111  0.5375  0.5746
   17DT      O4  532   5.025   5.154   7.188  0.3871  0.4540  0.2988
   17DT      N3  533   4.815   5.067   7.160  0.7091 -0.2718  0.0254
   17DT      H3  534   4.849   4.994   7.098  0.5433  0.9888 -1.6136
   17DT      C2  535   4.679   5.081   7.141  0.2199 -0.1253 -0.0361
   17DT      O2  536   4.618   4.985   7.090  0.6887 -0.2592 -0.4382
   17DT     C3'  537   4.280   5.356   7.187  0.6468  0.1748  1.2532
   17DT     H3'  538   4.273   5.461   7.215  1.4136 -0.1993  2.9999
   17DT     C2'  539   4.398   5.303   7.265 -0.4645  0.0859  0.0048
   17DT    H2'1  540   4.443   5.399   7.292 -0.0326 -0.6406  2.0177
   17DT    H2'2  541   4.374   5.248   7.356 -0.2526  1.8300  1.1731
   17DT     O3'  542   4.154   5.289   7.202  0.1478  0.9036 -0.5613
   18DT       P  543   4.095   5.234   7.342  0.0865 -0.3007 -0.0248
   18DT     O1P  544   3.960   5.181   7.312  0.5353 -0.6246  1.1449
   18DT     O2P  545   4.118   5.340   7.442 -0.4927  0.1109 -0.0138
   18DT     O5'  546   4.180   5.108   7.374  0.1603  0.0382 -0.1246
   18DT     C5'  547   4.187   4.998   7.296  0.5917  0.5484 -0.3562
   18DT    H5'1  548   4.214   5.021   7.193  0.3079  1.2119 -0.2869
   18DT    H5'2  549   4.086   4.957   7.299  0.8034  0.0599  0.8560
   18DT     C4'  550   4.270   4.882   7.353 -0.5317 -0.0976  0.2949
   18DT     H4'  551   4.259   4.788   7.299 -1.7946 -1.2667  2.4535
   18DT     O4'  552   4.401   4.929   7.351  0.1335 -0.5078  0.1081
   18DT     C1'  553   4.473   4.887   7.464  0.0902 -0.8906 -0.0964
   18DT     H1'  554   4.501   4.784   7.444  2.6065  0.0707 -1.9636
   18DT      N1  555   4.591   4.970   7.486 -0.0013 -1.1909 -0.0023
   18DT      C6  556   4.586   5.110   7.510  0.1602 -0.1856 -0.3017
   18DT      H6  557   4.490   5.161   7.514  1.1423  1.7372  0.3349
   18DT      C5  558   4.700   5.178   7.533  0.4190  0.6397  0.0010
   18DT      C7  559   4.679   5.331   7.560 -0.1255  0.8975  0.0553
   18DT     H71  560   4.706   5.354   7.663  0.3659 -0.1673  0.1743
   18DT     H72  561   4.745   5.394   7.501 -1.6702  1.8204 -0.7522
   18DT     H73  562   4.575   5.359   7.541 -0.4462  0.7811  1.4896
   18DT      C4  563   4.823   5.108   7.533 -0.5082  0.2869  0.0350
   18DT      O4  564   4.932   5.165   7.548  0.1444  0.0679 -0.5354
   18DT      N3  565   4.822   4.977   7.508 -0.4227  0.2919  0.1957
   18DT      H3  566   4.908   4.924   7.499 -1.4405 -1.1556 -2.0543
   18DT      C2  567   4.712   4.901   7.482  0.4111 -0.4106 -0.4129
   18DT      O2  568   4.729   4.783   7.451  0.2864 -0.5403  0.4303
   18DT     C3'  569   4.241   4.853   7.500  0.1808  0.3932  0.3469
   18DT     H3'  570   4.155   4.913   7.526 -0.4946  0.5475 -1.9834
   18DT     C2'  571   4.365   4.903   7.573 -0.9984 -0.1096  0.0677
   18DT    H2'1  572   4.356   5.007   7.604  1.1416  0.7906 -2.0730
   18DT    H2'2  573   4.389   4.841   7.660 -1.0228 -1.1559 -0.6534
   18DT     O3'  574   4.210   4.717   7.519 -0.2740 -0.3294  0.2136
   19DT       P  575   4.163   4.670   7.668 -0.1452 -0.1109 -0.0740
   19DT     O1P  576   4.072   4.560   7.645  0.0138  0.0123 -0.4378
   19DT     O2P  577   4.119   4.781   7.744  0.4238  0.1014  0.1343
   19DT     O5'  578   4.301   4.616   7.718 -0.6063 -0.2588  0.3292
   19DT     C5'  579   4.375   4.514   7.648  0.0385 -0.4733  0.4471
   19DT    H5'1  580   4.406   4.557   7.553 -2.5230  1.3265  0.3419
   19DT    H5'2  581   4.307   4.431   7.628  0.4735 -0.7781  0.2177
   19DT     C4'  582   4.495   4.458   7.732 -0.4422 -0.6837  0.0717
   19DT     H4'  583   4.529   4.366   7.685 -1.3073 -0.7413 -0.4716
   19DT     O4'  584   4.601   4.551   7.733 -0.3567  0.6802 -0.2195
   19DT     C1'  585   4.630   4.589   7.865  0.0284  0.1727 -0.2617
   19DT     H1'  586   4.707   4.524   7.908 -1.9340 -0.9652  1.7451
   19DT      N1  587   4.673   4.730   7.862 -0.3896  1.1151 -0.1915
   19DT      C6  588   4.573   4.831   7.871 -0.9242 -0.3643 -0.9754
   19DT      H6  589   4.467   4.807   7.877 -0.6864 -1.4702 -0.9729
   19DT      C5  590   4.616   4.964   7.871 -0.1411 -0.2857  0.0949
   19DT      C7  591   4.516   5.069   7.883 -0.2218  0.0886  0.6542
   19DT     H71  592   4.528   5.135   7.797  0.5297 -1.6943 -0.6737
   19DT     H72  593   4.409   5.046   7.876 -0.8500  2.4502  1.3910
   19DT     H73  594   4.535   5.131   7.971  2.1525  2.8537 -1.6209
   19DT      C4  595   4.758   4.998   7.867  0.6355  0.3991  0.4850
   19DT      O4  596   4.801   5.114   7.859  0.1736 -0.3419 -0.5666
   19DT      N3  597   4.847   4.887   7.866  0.4482  0.4913 -0.1140
   19DT      H3  598   4.944   4.912   7.863  0.2598  1.2097 -0.4133
   19DT      C2  599   4.809   4.756   7.861  0.3194  0.0367  0.1939
   19DT      O2  600   4.896   4.674   7.836  0.1627  0.4260  0.2436
   19DT     C3'  601   4.446   4.436   7.876  0.3456  0.5843 -0.5292
   19DT     H3'  602   4.339   4.425   7.892  0.1473  2.0990 -0.6483
   19DT     C2'  603   4.506   4.561   7.951 -0.2264  0.7774  0.4441
   19DT    H2'1  604   4.430   4.638   7.935  1.0069  1.9695  0.0622
   19DT    H2'2  605   4.531   4.540   8.055  0.1859 -2.2300 -0.1666
   19DT     O3'  606   4.519   4.321   7.910 -0.3950  0.3963  0.2282
   20DT3      P  607   4.525   4.263   8.058  0.1228  0.4578  0.1080
   20DT3    O1P  608   4.519   4.113   8.041 -0.5773 -0.7099  0.2723
   20DT3    O2P  609   4.430   4.330   8.146  0.0731  0.5082 -0.2027
   20DT3    O5'  610   4.667   4.310   8.104  0.0478  0.8115 -0.9181
   20DT3    C5'  611   4.772   4.256   8.027 -1.3048  0.2062 -0.2648
   20DT3   H5'1  612   4.766   4.277   7.920 -0.0876  0.3691 -0.3133
   20DT3   H5'2  613   4.775   4.148   8.039 -1.0677  0.3740  1.4949
   20DT3    C4'  614   4.906   4.319   8.068 -0.5767 -1.2524 -0.5796
   20DT3    H4'  615   4.984   4.280   8.003  0.9545 -0.6591  0.8090
   20DT3    O4'  616   4.906   4.459   8.062 -0.2586 -0.2903  0.0141
   20DT3    C1'  617   4.964   4.518   8.176 -0.9873 -0.8238  0.4774
   20DT3    H1'  618   5.071   4.527   8.156 -0.5814  1.6959  2.9763
   20DT3     N1  619   4.906   4.653   8.204  0.0071 -0.5210 -0.5756
   20DT3     C6  620   4.768   4.669   8.228 -0.3711  0.7437  0.1015
   20DT3     H6  621   4.703   4.584   8.246  0.0153  0.0899 -1.4072
   20DT3     C5  622   4.710   4.791   8.221  0.2662 -0.7202  0.0563
   20DT3     C7  623   4.563   4.809   8.244  0.0112  0.7044  0.1742
   20DT3    H71  624   4.537   4.908   8.208 -1.0247  0.6245  0.6767
   20DT3    H72  625   4.512   4.719   8.207  2.0236 -0.6328  0.4869
   20DT3    H73  626   4.557   4.817   8.352 -1.6005  1.0206  0.0833
   20DT3     C4  627   4.794   4.906   8.203  0.2107 -0.2219  0.7649
   20DT3     O4  628   4.750   5.019   8.195 -0.7397  0.1433  0.1319
   20DT3     N3  629   4.930   4.884   8.184 -0.3943  0.4592  0.3317
   20DT3     H3  630   4.993   4.959   8.161  1.1191 -0.0596  2.4091
   20DT3     C2  631   4.991   4.763   8.188 -0.7333  0.2883 -0.1871
   20DT3     O2  632   5.116   4.758   8.176 -0.1690 -0.5303 -0.0034
   20DT3    C3'  633   4.949   4.286   8.210  0.2331  0.3008 -0.3335
   20DT3    H3'  634   4.880   4.210   8.248  0.4855 -0.2226 -0.8950
   20DT3    C2'  635   4.935   4.418   8.285 -0.4568  0.9726 -0.3765
   20DT3   H2'1  636   4.839   4.432   8.334 -0.6174 -0.1358 -0.3591
   20DT3   H2'2  637   5.013   4.434   8.359 -0.6448  1.2772 -0.2452
   20DT3    O3'  638   5.080   4.243   8.210 -0.1197  0.0360 -0.6902
   20DT3    H3T  639   5.092   4.178   8.280  1.9862 -1.3684 -2.2168
   21SOL     OW  640   4.896   3.663   0.806 -0.4837 -0.6404  0.3652
   21SOL    HW1  641   4.818   3.665   0.750 -0.2432 -2.7465 -0.1499
   21SOL    HW2  642   4.861   3.666   0.895 -1.1291 -1.0103  0.1373
   22SOL     OW  643   0.069   5.248   7.597  0.6219  0.0128  0.3002
   22SOL    HW1  644   0.106   5.164   7.572  1.5439  0.3546  0.4520
   22SOL    HW2  645   0.094   5.259   7.689  2.1940  1.2849 -0.2229
   23SOL     OW  646   3.608   0.779   3.323  0.2501 -0.8478 -0.0278
   23SOL    HW1  647   3.520   0.743   3.338 -1.1843  1.6791 -1.6746
   23SOL    HW2  648   3.626   0.759   3.231  1.8557 -2.1278  0.5305
   24SOL     OW  649   9.026   3.876   7.321 -0.3991 -0.0768  0.0223
   24SOL    HW1  650   9.072   3.831   7.391 -2.2838 -0.3920  1.1459
   24SOL    HW2  651   9.069   3.848   7.241  2.3117  0.8830  1.0426
   25SOL     OW  652   8.864   5.003   6.725  0.0742 -0.7636  0.3511
   25SOL    HW1  653   8.820   4.936   6.672  1.4310 -0.6541 -1.0049
   25SOL    HW2  654   8.944   4.960   6.756  1.2134  0.3267 -0.9546
   26SOL     OW  655   6.165   6.156   0.378  1.0724  0.3964  0.4348
   26SOL    HW1  656   6.155   6.236   0.430  1.5970  0.0771  1.0378
   26SOL    HW2  657   6.215   6.185   0.301 -0.4455  1.0442 -0.3462
   27SOL     OW  658   7.014   4.888   8.583  0.0678  0.2868  0.6156
   27SOL    HW1  659   7.094   4.918   8.626  0.2837  1.5209 -0.5938
   27SOL    HW2  660   6.943   4.917   8.641  0.3643  1.7926  0.2553
   28SOL     OW  661   7.046   9.897   4.474  0.0308  0.6872  0.3084
   28SOL    HW1  662   7.089   9.977   4.444 -2.6973  1.2644 -2.5884
   28SOL    HW2  663   6.985   9.926   4.541 -0.2660  0.8754 -0.0435
   29SOL     OW  664   8.285   5.943   7.518  0.4339 -0.1358  0.1810
   29SOL    HW1  665   8.192   5.951   7.497  0.3724  2.2628  1.1087
   29SOL    HW2  666   8.288   5.944   7.614  1.4836  1.0878  0.1546
   30SOL     OW  667   1.435   1.813   3.071  0.1207 -0.1451  0.1434
   30SOL    HW1  668   1.418   1.723   3.098  1.1128  0.1682  2.0130
   30SOL    HW2  669   1.467   1.856   3.151  0.4405  1.6511 -0.8978
   31SOL     OW  670   0.092   7.546   4.352  0.3332  0.0943  0.0395
   31SOL    HW1  671   0.016   7.583   4.398  0.4182 -1.8550  1.9141
   31SOL    HW2  672   0.087   7.583   4.264 -1.6391  1.5778  0.6962
   32SOL     OW  673   3.438   8.113   4.135 -0.5588 -0.3826  0.5801
   32SOL    HW1  674   3.478   8.196   4.108  0.1057 -0.4214  1.4015
   32SOL    HW2  675   3.474   8.097   4.223 -0.0913 -1.9156  0.1379
   33SOL     OW  676   5.255   8.390   2.300  0.3940  0.5265 -0.4545
   33SOL    HW1  677   5.213   8.400   2.215 -1.2361  0.6008  0.3227
   33SOL    HW2  678   5.321   8.322   2.286 -0.7093 -0.3867 -1.5009
   34SOL     OW  679   9.513   8.476   4.604  0.1616  0.1214  0.1535
   34SOL    HW1  680   9.456   8.530   4.551 -0.6566  0.4861  1.3701
   34SOL    HW2  681   9.462   8.456   4.682  0.8493 -1.4869  0.2386
   35SOL     OW  682   1.945   6.086   6.239  0.5404  0.4483 -0.3161
   35SOL    HW1  683   1.909   6.081   6.150  0.8072  0.6695 -0.4384
   35SOL    HW2  684   1.987   6.172   6.243  0.0272  0.6813  0.2158
   36SOL     OW  685   3.578   8.389   3.098 -0.1860  0.0512  0.0337
   36SOL    HW1  686   3.565   8.447   3.022 -0.0141  0.4792  0.3261
   36SOL    HW2  687   3.493   8.388   3.141  0.0404  0.8100  0.5249
   37SOL     OW  688   7.983   1.429   5.088 -0.3140 -0.2188 -0.3916
   37SOL    HW1  689   8.020   1.482   5.159 -0.0167 -0.2547 -0.5195
   37SOL    HW2  690   7.941   1.356   5.132 -3.7070  1.7747  0.0843
   38SOL     OW  691   8.488   0.503   7.001 -0.4257  0.4589 -0.3287
   38SOL    HW1  692   8.459   0.571   7.061 -0.3724 -0.2901  0.5767
   38SOL    HW2  693   8.443   0.424   7.031 -0.8283  0.1630 -1.6204
   39SOL     OW  694   9.338   5.011   4.113  0.3235 -0.4832 -0.2215
   39SOL    HW1  695   9.288   4.948   4.164 -0.3997 -1.2231 -1.7963
   39SOL    HW2  696   9.301   5.006   4.025  1.5286  0.7580 -0.8357
   40SOL     OW  697   3.691   2.840   2.634 -0.2721 -0.3942 -0.3366
   40SOL    HW1  698   3.786   2.847   2.622 -0.2061 -0.6778 -0.0098
   40SOL    HW2  699   3.654   2.869   2.551  0.0285  2.0919  0.3255
   41SOL     OW  700   6.806   4.080   5.459 -0.6197  0.3904  0.3321
   41SOL    HW1  701   6.849   3.995   5.459 -1.0067  0.1749 -0.8745
   41SOL    HW2  702   6.868   4.139   5.417  0.1101  0.9960  2.1328
   42SOL     OW  703   2.917   0.949   5.471  0.1037 -0.0127  0.1862
   42SOL    HW1  704   2.932   0.956   5.377 -0.2489 -0.8848  0.0524
   42SOL    HW2  705   2.839   1.001   5.487  0.4064  0.4855  0.0748
   43SOL     OW  706   4.675   5.071   3.052 -0.8351  0.0226 -0.3757
   43SOL    HW1  707   4.733   5.138   3.087 -0.6636 -0.2006 -0.2296
   43SOL    HW2  708   4.589   5.114   3.045 -1.1059 -0.2013  1.2044
   44SOL     OW  709   8.198   0.146   8.077 -0.1034  0.0265  0.4792
   44SOL    HW1  710   8.141   0.099   8.138  0.0250  0.0766  0.6391
   44SOL    HW2  711   8.260   0.192   8.133  0.5830 -0.6413  0.2734
   45SOL     OW  712   2.922   4.148   8.812 -0.2399 -0.0071 -0.2383
   45SOL    HW1  713   2.971   4.198   8.746  0.7369 -0.4566  0.1239
   45SOL    HW2  714   2.966   4.063   8.814 -1.2102 -0.5175 -0.0812
   46SOL     OW  715   0.626   7.775   9.804 -0.2025  0.2050 -0.1469
   46SOL    HW1  716   0.676   7.782   9.723 -0.5810 -0.6992 -0.4718
   46SOL    HW2  717   0.692   7.768   9.873  0.1151 -0.1512 -0.4856
   47SOL     OW  718   8.880   4.928   1.945 -0.3005 -0.3743  0.3210
   47SOL    HW1  719   8.822   5.004   1.942 -1.1244 -1.0088 -0.2321
   47SOL    HW2  720   8.844   4.873   2.014 -1.9622 -1.9894 -1.7064
   48SOL     OW  721   8.462   7.139   5.627 -0.6190  0.0711  0.5763
   48SOL    HW1  722   8.375   7.110   5.597 -0.8102  1.6684 -0.5280
   48SOL    HW2  723   8.457   7.235   5.627  1.3375  0.2217 -0.1263
   49SOL     OW  724   1.991   2.244   6.808  0.1107  0.0270 -0.5891
   49SOL    HW1  725   2.069   2.197   6.777  0.1291  0.5868 -1.4183
   49SOL    HW2  726   2.000   2.244   6.903  1.3943  0.5396 -0.6927
   50SOL     OW  727   9.051   2.404   2.223 -0.0472 -0.1780  0.1835
   50SOL    HW1  728   9.145   2.401   2.206  0.5025  2.9511  1.8295
   50SOL    HW2  729   9.026   2.313   2.239  2.2860 -1.3242 -2.0226
   51SOL     OW  730   6.066   3.495   7.873  0.1895  0.1374  0.1699
   51SOL    HW1  731   5.984   3.517   7.916 -0.3455 -0.2685 -0.6315
   51SOL    HW2  732   6.057   3.403   7.848 -0.9779  1.1663 -3.9314
   52SOL     OW  733   3.348   1.116   5.521  0.2064  0.2630  0.1294
   52SOL    HW1  734   3.279   1.053   5.544  0.2687  0.1819  0.0966
   52SOL    HW2  735   3.307   1.174   5.456  0.3102 -0.0757 -0.2472
   53SOL     OW  736   3.368   3.263   8.219  0.0569 -0.0466 -0.4402
   53SOL    HW1  737   3.324   3.198   8.164 -2.4031  0.2862  0.9959
   53SOL    HW2  738   3.400   3.213   8.295 -1.5628  0.2830  0.5130
   54SOL     OW  739   0.432   2.541   4.003 -0.6080 -0.0292  0.1431
   54SOL    HW1  740   0.422   2.548   4.098 -0.2827  1.0052  0.1134
   54SOL    HW2  741   0.520   2.574   3.986 -1.4471  1.9240 -0.7183
   55SOL     OW  742   8.768   5.510   5.171 -0.5122 -0.2048  0.5972
   55SOL    HW1  743   8.710   5.571   5.126  0.5064  0.4441  0.1370
   55SOL    HW2  744   8.719   5.427   5.171 -0.3219 -0.4342 -2.3160
   56SOL     OW  745   1.037   9.400   7.941 -0.5481  0.1462 -0.4746
   56SOL    HW1  746   0.993   9.438   8.017 -0.9400 -0.2150 -0.5180
   56SOL    HW2  747   1.036   9.306   7.957 -2.0498 -0.0772 -1.6492
   57SOL     OW  748   5.762   1.041   3.102  0.4675  0.0843  0.7925
   57SOL    HW1  749   5.786   1.041   3.194  0.7233  1.4014  0.7494
   57SOL    HW2  750   5.844   1.022   3.055  1.1724  2.7905  0.7279
   58SOL     OW  751   5.350   7.708   3.462  0.4110  0.4072 -0.2832
   58SOL    HW1  752   5.376   7.800   3.453  0.8932  0.3030  0.0006
   58SOL    HW2  753   5.276   7.698   3.403 -1.3147  1.6468  1.5430
   59SOL     OW  754   8.727   6.725   9.554 -0.0687 -0.1300  0.2211
   59SOL    HW1  755   8.636   6.740   9.530  0.4169 -0.0169 -1.7725
   59SOL    HW2  756   8.776   6.789   9.502  1.2238 -0.9352  0.4033
   60SOL     OW  757   0.043   5.260   3.075  0.2177  0.3594 -0.0526
   60SOL    HW1  758   0.057   5.172   3.109 -0.4647  0.9122  1.7904
   60SOL    HW2  759  -0.001   5.307   3.146 -0.1956  1.9598 -1.2903
   61SOL     OW  760   7.324   5.738   4.263 -0.3131 -0.4358  0.3146
   61SOL    HW1  761   7.345   5.806   4.199 -0.4235 -0.1537  0.5737
   61SOL    HW2  762   7.254   5.776   4.316  0.7563 -0.0664  1.5229
   62SOL     OW  763   7.326   7.878   1.647 -0.3571  0.1089  0.6339
   62SOL    HW1  764   7.363   7.829   1.721 -0.7204 -0.8691  0.1821
   62SOL    HW2  765   7.253   7.927   1.685  0.8158  1.3748  1.3574
   63SOL     OW  766   3.295   9.711   7.435 -0.3479  0.5253  0.2835
   63SOL    HW1  767   3.265   9.640   7.492 -0.7535  0.6690  0.2558
   63SOL    HW2  768   3.329   9.666   7.357  0.4961  0.3200  0.7657
   64SOL     OW  769   5.330   0.152   6.454  0.3155 -0.4154  0.0869
   64SOL    HW1  770   5.271   0.192   6.518 -0.8528  2.0928 -2.3645
   64SOL    HW2  771   5.415   0.193   6.473  0.1121 -0.1327  0.4167
   65SOL     OW  772   0.827   3.843   5.703 -0.6067  0.4442 -0.5381
   65SOL    HW1  773   0.793   3.754   5.697  0.1796  0.1357 -0.5933
   65SOL    HW2  774   0.811   3.870   5.794 -1.1432  0.3738 -0.6119
   66SOL     OW  775   7.010   3.871   5.888  0.3389 -0.8283 -0.0395
   66SOL    HW1  776   7.063   3.889   5.811  1.5263 -1.1048  0.6842
   66SOL    HW2  777   6.993   3.957   5.927  0.4879 -0.7573 -0.1320
   67SOL     OW  778   2.095   6.401   3.950  0.0576 -0.4702 -0.3701
   67SOL    HW1  779   2.114   6.322   3.900 -0.5284 -0.0664 -1.2475
   67SOL    HW2  780   2.001   6.396   3.967  0.2025 -0.4786  0.4941
   68SOL     OW  781   7.031   9.281   7.149  0.2400 -0.4088  0.1270
   68SOL    HW1  782   6.979   9.202   7.159 -0.0748 -0.3830 -1.0928
   68SOL    HW2  783   7.047   9.288   7.055  0.6751  0.7127  0.2582
   69SOL     OW  784   2.870   6.080   6.851  0.4276 -0.1046  0.2381
   69SOL    HW1  785   2.800   6.054   6.791  2.2517 -1.1373 -1.5811
   69SOL    HW2  786   2.859   6.175   6.861 -0.3669 -0.0097 -1.2131
   70SOL     OW  787   9.676   6.152   7.618 -0.3027  0.0953 -0.2588
   70SOL    HW1  788   9.585   6.167   7.643 -1.1937 -0.8370 -2.6554
   70SOL    HW2  789   9.726   6.212   7.674 -2.3830  0.8452  0.9225
   71SOL     OW  790   0.788   3.930   5.962 -0.0801 -0.1841  0.0066
   71SOL    HW1  791   0.782   3.836   5.946 -2.7870  0.0893 -0.9626
   71SOL    HW2  792   0.747   3.943   6.047 -0.7181  0.2376 -0.3585
   72SOL     OW  793   5.774   3.057   0.699 -0.0972 -0.7410  0.3649
   72SOL    HW1  794   5.804   3.143   0.728 -0.2215 -0.6160  0.1293
   72SOL    HW2  795   5.749   3.070   0.607  0.3061 -1.1344  0.1941
   73SOL     OW  796   7.183   2.631   2.830  0.8094 -0.2269 -0.3663
   73SOL    HW1  797   7.119   2.627   2.759 -0.4081 -0.4260  0.7124
   73SOL    HW2  798   7.145   2.690   2.894  2.6930  1.3578 -0.5991
   74SOL     OW  799   9.742   0.456   3.545  0.0110 -0.0286  0.5490
   74SOL    HW1  800   9.752   0.547   3.573 -0.4228  0.7434 -1.6646
   74SOL    HW2  801   9.716   0.461   3.453  0.5349 -2.4020  0.1987
   75SOL     OW  802   0.781   7.929   4.990 -0.4230 -0.2267 -0.0016
   75SOL    HW1  803   0.827   7.929   5.074 -2.3271 -1.4244  1.1338
   75SOL    HW2  804   0.850   7.931   4.924  1.1387  0.6379  1.5674
   76SOL     OW  805   4.970   9.578   2.524 -0.3243 -0.1534  0.4777
   76SOL    HW1  806   5.057   9.606   2.496 -0.0731  0.3898  1.7475
   76SOL    HW2  807   4.985   9.501   2.577 -0.5392  0.3707  1.3185
   77SOL     OW  808   9.897   0.204   7.987 -0.2395  0.2328 -0.1934
   77SOL    HW1  809   9.922   0.122   8.029 -1.8846 -0.6543 -0.8695
   77SOL    HW2  810   9.821   0.182   7.934 -0.3610  2.0813 -0.8646
   78SOL     OW  811   1.057   2.719   4.986  0.0137  0.0935  0.1171
   78SOL    HW1  812   1.137   2.773   4.985  1.3203 -1.7640  0.1197
   78SOL    HW2  813   1.085   2.636   5.025 -1.7781 -0.8489 -0.5200
   79SOL     OW  814   5.131   0.064   9.393 -0.4455  0.2014  0.2092
   79SOL    HW1  815   5.119   0.144   9.443  0.3856  0.1156  0.5649
   79SOL    HW2  816   5.219   0.033   9.417 -0.1852 -0.0522 -0.9981
   80SOL     OW  817   6.984   8.669   7.656 -0.8099  0.2453 -0.0749
   80SOL    HW1  818   7.031   8.750   7.676  0.0202  0.4322 -2.4370
   80SOL    HW2  819   6.893   8.687   7.679 -0.6194  1.8259 -0.4174
   81SOL     OW  820   3.188   1.929   4.199 -0.4826 -0.0344  0.1517
   81SOL    HW1  821   3.278   1.962   4.201 -0.6198  0.3272  0.4120
   81SOL    HW2  822   3.165   1.926   4.106 -0.7123  1.2761  0.1540
   82SOL     OW  823   3.315   4.879   7.552 -0.3063 -0.1486  0.2310
   82SOL    HW1  824   3.254   4.849   7.484  0.3359 -1.1069  0.0628
   82SOL    HW2  825   3.387   4.920   7.503  1.0116 -2.3707  0.1781
   83SOL     OW  826   6.853   8.290   6.846  0.3362 -0.3105  0.1859
   83SOL    HW1  827   6.898   8.207   6.861 -1.1233 -1.2724 -0.5418
   83SOL    HW2  828   6.841   8.327   6.933  0.5654 -1.1026  0.5597
   84SOL     OW  829   4.566   2.958   6.923 -0.1561  0.1629  0.4285
   84SOL    HW1  830   4.563   3.048   6.954 -1.7636 -0.2090  1.4804
   84SOL    HW2  831   4.543   2.905   7.000 -0.1627 -1.0811 -0.3910
   85SOL     OW  832   8.727   7.546   7.367 -0.4662  0.3815 -0.6508
   85SOL    HW1  833   8.697   7.602   7.438  0.6578  0.3058 -0.0943
   85SOL    HW2  834   8.704   7.593   7.287  0.6615  1.7707 -0.2036
   86SOL     OW  835   5.429   5.328   4.541  0.1837  0.7528  0.3570
   86SOL    HW1  836   5.412   5.340   4.635  2.1752 -0.2991  0.9066
   86SOL    HW2  837   5.350   5.285   4.508 -0.2539  0.4754  1.7011
   87SOL     OW  838   3.744   3.443   2.208  0.0694  0.0597  0.2175
   87SOL    HW1  839   3.772   3.515   2.151  1.2650 -0.1753  0.4691
   87SOL    HW2  840   3.789   3.366   2.173 -0.8717 -0.4973  0.2006
   88SOL     OW  841   4.899   3.582   7.192 -0.4930 -0.6249 -0.1192
   88SOL    HW1  842   4.973   3.558   7.248 -1.1947 -2.6787  0.0001
   88SOL    HW2  843   4.939   3.607   7.109  0.4113 -0.0200  0.4743
   89SOL     OW  844   2.491   3.883   5.923  0.2550  0.1390  0.1000
   89SOL    HW1  845   2.547   3.913   5.994  1.3604 -0.8478 -0.3189
   89SOL    HW2  846   2.407   3.926   5.938  0.5894  0.2584  1.7601
   90SOL     OW  847   2.670   8.870   1.957 -0.1377  0.7956  0.6379
   90SOL    HW1  848   2.712   8.956   1.968 -1.0463  1.1097  1.8392
   90SOL    HW2  849   2.736   8.817   1.911  0.7354  1.8939  0.5783
   91SOL     OW  850   7.760   8.252   5.452 -0.6568  0.1616  0.1777
   91SOL    HW1  851   7.697   8.195   5.496 -1.0389  1.0937  0.8438
   91SOL    HW2  852   7.839   8.246   5.505 -0.8102  0.5340  0.4465
   92SOL     OW  853   6.294   7.224   2.490  0.3851 -0.9414  0.0006
   92SOL    HW1  854   6.302   7.138   2.531  0.6667 -0.5298  0.8345
   92SOL    HW2  855   6.381   7.263   2.500  0.1025 -0.3351  0.1471
   93SOL     OW  856   6.939   5.031   3.605 -0.0433 -0.2054 -0.0467
   93SOL    HW1  857   6.851   5.024   3.569  0.3701 -0.4813 -1.0607
   93SOL    HW2  858   6.946   5.121   3.636 -0.5551 -0.0787 -0.2963
   94SOL     OW  859   8.924   2.228   2.693 -0.2291 -0.9426  0.0886
   94SOL    HW1  860   8.906   2.142   2.657 -0.1076 -1.6021  1.5316
   94SOL    HW2  861   8.860   2.238   2.764  0.2539 -0.1641  0.4263
   95SOL     OW  862   8.399   0.152   6.373 -0.3787  0.7499 -0.4885
   95SOL    HW1  863   8.390   0.237   6.416 -1.6376  0.7854 -0.7770
   95SOL    HW2  864   8.461   0.104   6.428  0.8887  2.0664 -0.6966
   96SOL     OW  865   2.882   2.144   8.592  0.2756  0.1773 -0.0068
   96SOL    HW1  866   2.846   2.207   8.654 -1.2404  0.9218 -1.5604
   96SOL    HW2  867   2.806   2.098   8.556  1.0187  0.1905 -1.7192
   97SOL     OW  868   2.171   4.479   7.373  0.1491  0.3168  0.1178
   97SOL    HW1  869   2.184   4.417   7.301 -2.1335 -1.1990  0.8842
   97SOL    HW2  870   2.256   4.484   7.417  1.2238  0.2560 -1.8560
   98SOL     OW  871   8.918   0.627   0.116 -0.4874  0.3418 -0.5515
   98SOL    HW1  872   8.857   0.658   0.049  0.3310  0.9046 -1.0586
   98SOL    HW2  873   8.984   0.696   0.122  1.2321 -1.1258 -1.4970
   99SOL     OW  874   1.583   6.507   6.262  0.4385 -0.1220 -0.3529
   99SOL    HW1  875   1.563   6.419   6.293  0.2122  0.8744  2.5984
   99SOL    HW2  876   1.502   6.536   6.218  0.5567 -1.3596 -1.4540
  100SOL     OW  877   4.329   8.485   1.616 -0.4582  0.6637  0.3612
  100SOL    HW1  878   4.275   8.408   1.598 -0.8844  0.4793  2.2226
  100SOL    HW2  879   4.413   8.465   1.576 -1.2717  0.2767 -1.2390
  101SOL     OW  880   2.567   6.272   3.239  0.1597 -0.9046  0.2684
  101SOL    HW1  881   2.474   6.282   3.220  0.2070 -0.3464  0.3375
  101SOL    HW2  882   2.583   6.330   3.313  0.7426 -0.3766 -0.2610
  102SOL     OW  883   1.685   6.794   9.913  0.6662 -0.2183  0.1175
  102SOL    HW1  884   1.758   6.806   9.852 -1.3086  1.0736 -2.2210
  102SOL    HW2  885   1.693   6.866   9.975  1.7617 -0.5367  0.3673
  103SOL     OW  886   8.904   2.869   5.981 -1.0476 -0.3004  0.2541
  103SOL    HW1  887   8.943   2.931   5.921  0.6935  0.4629  2.0678
  103SOL    HW2  888   8.860   2.923   6.047  2.4817 -0.6183  3.2258
  104SOL     OW  889   0.083   7.311   4.592 -0.2680  0.3566  0.5615
  104SOL    HW1  890   0.037   7.395   4.597  2.2954  1.7849  2.2173
  104SOL    HW2  891   0.019   7.247   4.624 -2.5324  1.4509 -1.4276
  105SOL     OW  892   2.886   8.435   5.436  0.1161  0.3089  1.2123
  105SOL    HW1  893   2.849   8.480   5.511 -1.5601  0.0981  0.5451
  105SOL    HW2  894   2.945   8.500   5.396 -1.6612  1.6868  0.7028
  106SOL     OW  895   1.610   0.206   3.192 -0.1643 -0.3691 -0.0755
  106SOL    HW1  896   1.617   0.205   3.097  0.3909 -1.3597 -0.0441
  106SOL    HW2  897   1.547   0.136   3.212  0.0253 -0.4355  0.2977
  107SOL     OW  898   9.470   6.720   3.515  0.5077 -0.4785  0.1475
  107SOL    HW1  899   9.431   6.678   3.591 -0.2441  0.0523  0.0626
  107SOL    HW2  900   9.396   6.749   3.462  1.0187 -0.4879 -0.5914
  108SOL     OW  901   9.139   9.546   0.941 -0.5414 -0.8247  0.3034
  108SOL    HW1  902   9.149   9.542   1.036  0.7007 -0.0083  0.2296
  108SOL    HW2  903   9.225   9.522   0.907 -0.8333 -0.6116 -0.6037
  109SOL     OW  904   6.201   3.917   4.567 -0.1033  0.4256  0.1583
  109SOL    HW1  905   6.166   3.977   4.633 -0.6747 -2.1077  2.3183
  109SOL    HW2  906   6.124   3.883   4.522  0.0247 -0.3172  0.4839
  110SOL     OW  907   0.849   6.053   2.201 -0.4714 -0.4391  0.3676
  110SOL    HW1  908   0.907   6.111   2.151 -0.6203  0.4154  1.1575
  110SOL    HW2  909   0.774   6.107   2.223 -0.8409 -1.0774  0.7072
  111SOL     OW  910   5.250   6.104   1.581 -0.3707 -0.0872 -0.0871
  111SOL    HW1  911   5.264   6.114   1.487 -4.9460  1.3257 -0.8787
  111SOL    HW2  912   5.294   6.179   1.620 -0.7307  0.8909 -1.4655
  112SOL     OW  913   5.968   3.184   5.521  0.5530  0.2038 -0.0184
  112SOL    HW1  914   5.953   3.278   5.521 -0.8558  0.0191  0.8577
  112SOL    HW2  915   5.880   3.146   5.521  1.0813 -1.1013  0.7252
  113SOL     OW  916   3.445   7.110   4.476  0.6488 -0.3851 -0.4783
  113SOL    HW1  917   3.539   7.119   4.489  0.5475 -0.3285  0.2663
  113SOL    HW2  918   3.406   7.181   4.526  0.1929 -0.5752 -0.5517
  114SOL     OW  919   2.002   2.446   3.367 -0.1534 -0.0973  0.2934
  114SOL    HW1  920   1.971   2.382   3.303 -1.2222  0.7342 -0.0376
  114SOL    HW2  921   1.981   2.531   3.329  0.2627  0.4302  1.2184
  115SOL     OW  922   0.355   7.648   3.762 -0.1971 -0.1465  0.1795
  115SOL    HW1  923   0.359   7.593   3.684  0.4384  0.1638 -0.0104
  115SOL    HW2  924   0.290   7.606   3.818  1.0233 -1.6947  0.4995
  116SOL     OW  925   0.659   1.120   2.999  0.2082  0.3160  0.2672
  116SOL    HW1  926   0.752   1.139   3.012 -0.1861  2.0582  0.8936
  116SOL    HW2  927   0.624   1.201   2.961 -0.8986 -0.6424 -0.8469
  117SOL     OW  928   8.742   1.480   7.335 -0.1347 -0.6295 -0.0501
  117SOL    HW1  929   8.825   1.499   7.292 -0.6599 -0.3361 -0.9629
  117SOL    HW2  930   8.682   1.456   7.264 -0.2462 -3.1655  0.7692
  118SOL     OW  931   2.547   5.550   4.809 -0.0302 -0.2128  1.1522
  118SOL    HW1  932   2.614   5.512   4.865  1.9830  0.3812 -0.6904
  118SOL    HW2  933   2.550   5.497   4.729  1.4080  2.3850 -0.6654
  119SOL     OW  934   4.518   3.724   3.519 -0.0774  0.3237  0.3512
  119SOL    HW1  935   4.437   3.716   3.569  0.2134  2.5165  1.2792
  119SOL    HW2  936   4.585   3.682   3.573 -0.4304 -0.7665 -0.0407
  120SOL     OW  937   9.799   5.391   4.180 -0.2339 -0.4590  0.0170
  120SOL    HW1  938   9.771   5.430   4.263  0.0671 -1.4492  0.5935
  120SOL    HW2  939   9.894   5.406   4.178 -0.4027  0.6500 -0.7460
  121SOL     OW  940   6.200   0.700   7.587  0.5902 -0.5075  0.4153
  121SOL    HW1  941   6.109   0.728   7.600  0.3316 -0.5904 -1.0574
  121SOL    HW2  942   6.236   0.762   7.524  1.1637 -1.2133  0.0299
  122SOL     OW  943   3.710   8.557   4.672 -0.3430 -0.2364 -0.1217
  122SOL    HW1  944   3.722   8.616   4.598 -0.4889  2.1925  1.7026
  122SOL    HW2  945   3.787   8.572   4.727 -1.9403  0.7107  1.9518
  123SOL     OW  946   4.908   5.871   1.100 -0.0217 -0.0997  0.6668
  123SOL    HW1  947   4.865   5.796   1.142  0.7787 -0.9526  0.0189
  123SOL    HW2  948   4.839   5.912   1.048  0.1900 -2.3667 -1.6092
  124SOL     OW  949   0.049   0.223   3.072 -0.1115  0.2246 -0.5954
  124SOL    HW1  950   0.035   0.139   3.115  2.7870 -0.5340 -0.9532
  124SOL    HW2  951   0.026   0.288   3.138 -1.8045 -0.8031 -0.1059
  125SOL     OW  952   5.706   7.115   4.794 -0.2960 -0.4562 -0.5442
  125SOL    HW1  953   5.634   7.145   4.849 -0.1281 -0.1573 -0.4832
  125SOL    HW2  954   5.664   7.082   4.715 -0.5716 -1.3650 -0.0251
  126SOL     OW  955   9.303   2.616   0.340 -0.0438 -0.8193  0.2578
  126SOL    HW1  956   9.398   2.610   0.350 -0.0539 -0.6781  0.4408
  126SOL    HW2  957   9.275   2.528   0.314  0.1171 -0.9006  0.3618
  127SOL     OW  958   1.773   8.579   2.487 -0.1820 -0.2699 -0.1535
  127SOL    HW1  959   1.850   8.612   2.533  0.1445 -1.2919  0.0604
  127SOL    HW2  960   1.741   8.654   2.436 -0.2393  0.7414  1.2977
  128SOL     OW  961   9.116   0.217   2.973 -0.1695 -0.2296  0.0073
  128SOL    HW1  962   9.111   0.205   3.068  0.2209 -0.2546  0.0263
  128SOL    HW2  963   9.210   0.213   2.954 -0.2685 -0.5338 -0.4198
  129SOL     OW  964   8.633   6.417   4.451 -0.4431  0.1139  0.0615
  129SOL    HW1  965   8.614   6.505   4.485 -1.2715 -0.2941  0.6951
  129SOL    HW2  966   8.671   6.432   4.365  0.5179  1.1346  0.6497
  130SOL     OW  967   1.699   1.357   4.867  0.0852 -0.4439 -0.0326
  130SOL    HW1  968   1.616   1.359   4.821  0.2091 -1.9641 -0.3672
  130SOL    HW2  969   1.746   1.282   4.830  0.3858 -1.4397  2.2198
  131SOL     OW  970   7.783   8.665   2.448  0.0151  0.1445 -0.2547
  131SOL    HW1  971   7.865   8.676   2.400 -1.0372  0.2384 -2.0913
  131SOL    HW2  972   7.807   8.609   2.522  1.4943 -0.8279 -1.3949
  132SOL     OW  973   0.369   3.293   1.679  0.3211  0.5000 -0.0814
  132SOL    HW1  974   0.460   3.267   1.665  1.2034  3.6027 -0.9734
  132SOL    HW2  975   0.372   3.389   1.681 -2.6570  0.6831  1.9830
  133SOL     OW  976   2.976   0.800   6.825 -0.9817  0.4168  0.4478
  133SOL    HW1  977   3.045   0.852   6.866 -0.2726  0.3449 -0.6128
  133SOL    HW2  978   2.896   0.849   6.843 -0.5490  0.9389  1.0038
  134SOL     OW  979   4.176   9.380   4.929  0.4255 -0.3420 -0.0217
  134SOL    HW1  980   4.238   9.375   4.856  1.9608 -0.4370  1.2289
  134SOL    HW2  981   4.176   9.292   4.966 -0.3722 -0.3008  0.0870
  135SOL     OW  982   9.467   0.351   7.369  0.1476  0.0637 -0.6093
  135SOL    HW1  983   9.497   0.266   7.337  1.4225 -0.0232  0.7338
  135SOL    HW2  984   9.407   0.330   7.440  0.3095  0.2817 -0.4077
  136SOL     OW  985   6.343   0.805   1.672 -0.0155  0.2834 -0.5291
  136SOL    HW1  986   6.339   0.826   1.578  0.3450 -0.1952 -0.6581
  136SOL    HW2  987   6.275   0.740   1.684 -0.0250  0.3044 -0.4715
  137SOL     OW  988   5.234   3.074   3.167  0.0183  0.1117  0.0006
  137SOL    HW1  989   5.216   3.110   3.254 -0.5833 -0.6378  0.1978
  137SOL    HW2  990   5.329   3.076   3.159  0.0524  0.5895  0.5001
  138SOL     OW  991   5.484   7.734   7.395  0.0921  0.7209  0.1541
  138SOL    HW1  992   5.532   7.754   7.315 -2.5655  1.1145 -1.4267
  138SOL    HW2  993   5.475   7.818   7.439 -0.2220  0.8575 -0.1710
  139SOL     OW  994   0.474   1.694   3.014  0.2446 -0.4382  0.4962
  139SOL    HW1  995   0.480   1.724   3.105  0.0693  0.2255  0.2938
  139SOL    HW2  996   0.381   1.700   2.993  0.1721 -1.3700  0.5264
  140SOL     OW  997   5.392   6.311   6.002  0.1299 -0.0393 -0.2966
  140SOL    HW1  998   5.376   6.345   5.914  0.3067 -0.9414 -0.6938
  140SOL    HW2  999   5.486   6.295   6.005 -0.0722 -1.3962 -0.4833
  141SOL     OW 1000   6.047   1.117   1.957 -0.0901  0.3510  0.3488
  141SOL    HW1 1001   6.013   1.086   1.873 -2.0859  0.6508  1.0105
  141SOL    HW2 1002   6.033   1.044   2.017 -0.6698  0.9024  0.8959
  142SOL     OW 1003   3.700   6.848   4.751 -0.2841  0.2304 -0.0706
  142SOL    HW1 1004   3.762   6.902   4.702 -0.0893  1.1913  1.1775
  142SOL    HW2 1005   3.623   6.904   4.763 -0.1719  0.1563  1.0483
  143SOL     OW 1006   3.646   3.437   1.734  0.3740 -0.1190 -0.7088
  143SOL    HW1 1007   3.721   3.443   1.794  0.2555 -1.0906 -0.4416
  143SOL    HW2 1008   3.632   3.527   1.704  0.8598  0.2835  0.2085
  144SOL     OW 1009   0.825   0.347   5.119 -0.4608 -0.1762  0.0264
  144SOL    HW1 1010   0.819   0.274   5.180 -3.1682  0.6519  0.8694
  144SOL    HW2 1011   0.913   0.382   5.132 -0.7264 -0.3835  3.0735
  145SOL     OW 1012   5.337   8.584   2.582  0.5813 -0.4318 -0.0022
  145SOL    HW1 1013   5.344   8.489   2.581  0.7393 -0.5008 -3.1970
  145SOL    HW2 1014   5.243   8.601   2.576  0.6203 -0.4483 -0.7900
  146SOL     OW 1015   0.214   6.414   0.245  0.0498 -0.2957  0.0078
  146SOL    HW1 1016   0.179   6.420   0.157  1.4409  1.8697 -0.4810
  146SOL    HW2 1017   0.208   6.503   0.279  4.0316  0.0655  0.2127
  147SOL     OW 1018   9.615   4.071   7.509  0.0845 -0.0887 -0.1210
  147SOL    HW1 1019   9.521   4.066   7.493 -0.1067  0.6413  0.6889
  147SOL    HW2 1020   9.632   3.994   7.565  0.0655 -0.4924 -0.6618
  148SOL     OW 1021   1.881   0.970   7.424 -0.0780 -0.3757  0.4305
  148SOL    HW1 1022   1.916   1.044   7.373 -2.5257  1.1050  0.6934
  148SOL    HW2 1023   1.928   0.973   7.507  0.0715  0.7639  0.3251
  149SOL     OW 1024   4.880   4.345   0.896 -0.1904  0.6701  0.0026
  149SOL    HW1 1025   4.827   4.315   0.822  0.7408  1.1925 -0.9092
  149SOL    HW2 1026   4.958   4.290   0.893 -0.4403  0.2473  1.0162
  150SOL     OW 1027   0.886   8.001   6.630 -0.4968 -0.5914 -0.6687
  150SOL    HW1 1028   0.955   7.969   6.689  1.2468  0.8434 -1.8075
  150SOL    HW2 1029   0.934   8.044   6.559 -2.4028  4.8952  0.8168
  151SOL     OW 1030   7.402   3.051   6.322 -0.1871 -0.3009 -0.4757
  151SOL    HW1 1031   7.409   3.126   6.381 -0.8695 -0.9468  0.4507
  151SOL    HW2 1032   7.320   3.066   6.275 -0.0440 -0.1917 -0.6933
  152SOL     OW 1033   4.704   9.921   8.220 -0.1167 -0.1318  0.1727
  152SOL    HW1 1034   4.637   9.899   8.156 -0.5532 -2.1567  1.2147
  152SOL    HW2 1035   4.777   9.864   8.199  0.1074 -0.1119  0.8621
  153SOL     OW 1036   7.601   6.223   5.263  0.2194 -0.1476 -0.0677
  153SOL    HW1 1037   7.554   6.267   5.334 -0.7804 -0.9861 -0.1983
  153SOL    HW2 1038   7.685   6.198   5.302  1.3393  2.8082 -0.2815
  154SOL     OW 1039   0.380   8.164   1.262 -0.4983  0.2163 -0.2435
  154SOL    HW1 1040   0.405   8.223   1.192  0.1052  0.6503  0.3226
  154SOL    HW2 1041   0.286   8.177   1.273 -0.0648  2.6292  1.2541
  155SOL     OW 1042   6.558   2.398   4.136  0.2189 -0.1953 -1.1419
  155SOL    HW1 1043   6.615   2.386   4.061 -0.8386 -4.3993 -1.5316
  155SOL    HW2 1044   6.470   2.376   4.104 -0.3647 -1.5069  1.0587
  156SOL     OW 1045   1.371   3.557   6.270 -0.0503 -0.3367 -0.4056
  156SOL    HW1 1046   1.298   3.529   6.325 -0.2379  0.7711 -0.0723
  156SOL    HW2 1047   1.365   3.502   6.192 -0.4754 -1.1221  0.1617
  157SOL     OW 1048   4.275   1.955   8.643 -0.0339  0.2612  0.1111
  157SOL    HW1 1049   4.202   1.926   8.587 -0.1137 -0.2847  0.4948
  157SOL    HW2 1050   4.306   1.875   8.686  0.7176  0.5082  0.0425
  158SOL     OW 1051   1.499   9.362   4.628  0.2775  0.5347 -0.0995
  158SOL    HW1 1052   1.528   9.324   4.546 -0.0106  0.9883 -0.4201
  158SOL    HW2 1053   1.427   9.420   4.603  0.0808  0.5527  0.4924
  159SOL     OW 1054   0.296   6.944   9.532  0.2417 -0.6779  0.2987
  159SOL    HW1 1055   0.296   6.849   9.523  0.1948 -0.6026 -0.5172
  159SOL    HW2 1056   0.330   6.960   9.621  1.5983 -1.4063 -0.0724
  160SOL     OW 1057   5.313   6.223   2.261 -0.4976 -0.1449 -0.8332
  160SOL    HW1 1058   5.277   6.310   2.272  1.5043  0.7784 -1.0572
  160SOL    HW2 1059   5.386   6.235   2.199 -0.1558 -1.9634 -0.8512
  161SOL     OW 1060   3.596   5.565   7.733  0.2256 -1.0925 -0.1921
  161SOL    HW1 1061   3.660   5.604   7.792 -0.3764  0.7536 -0.6862
  161SOL    HW2 1062   3.517   5.554   7.786 -0.0301 -0.3009 -0.3947
  162SOL     OW 1063   9.227   8.268   0.873 -0.1621  0.1192  0.4862
  162SOL    HW1 1064   9.181   8.351   0.858  1.0616  0.9076  0.9941
  162SOL    HW2 1065   9.238   8.231   0.785  1.0963  1.4998  0.0327
  163SOL     OW 1066   6.848   6.310   1.190  0.4808  0.4401 -0.6132
  163SOL    HW1 1067   6.830   6.284   1.100 -2.0010 -1.6598  0.3649
  163SOL    HW2 1068   6.931   6.357   1.185  0.0822  1.0314 -4.0590
  164SOL     OW 1069   0.934   1.578   9.380 -0.4775 -0.2146 -0.7027
  164SOL    HW1 1070   0.911   1.506   9.439 -1.0008 -1.4115 -2.2803
  164SOL    HW2 1071   0.858   1.637   9.385 -1.0237 -0.8721 -0.9995
  165SOL     OW 1072   0.889   1.277   6.323  0.5776 -0.1277 -0.2808
  165SOL    HW1 1073   0.927   1.197   6.287 -0.4138 -0.7629  0.0559
  165SOL    HW2 1074   0.864   1.328   6.246 -0.2296 -0.8492 -0.5091
  166SOL     OW 1075   6.327   4.161   1.718  0.1790 -0.8560 -0.3621
  166SOL    HW1 1076   6.393   4.203   1.662  1.4060 -0.0097  1.5951
  166SOL    HW2 1077   6.244   4.174   1.672  0.8651  1.5321 -1.0871
  167SOL     OW 1078   3.175   8.802   1.458  0.2383 -0.3665  0.5383
  167SOL    HW1 1079   3.267   8.825   1.476 -0.0258  0.9843  0.2563
  167SOL    HW2 1080   3.179   8.753   1.376  0.7947 -1.1495  1.0145
  168SOL     OW 1081   2.353   4.999   1.396  0.6371 -0.3558  0.2672
  168SOL    HW1 1082   2.370   5.086   1.431  0.7515 -0.6638  0.9942
  168SOL    HW2 1083   2.309   4.953   1.467  2.5163 -1.5790  0.7018
  169SOL     OW 1084   5.023   1.159   9.771 -0.6694  0.2483 -0.1713
  169SOL    HW1 1085   5.042   1.065   9.778 -2.8996 -0.1923  1.3110
  169SOL    HW2 1086   5.032   1.192   9.860  1.8668  1.9226 -0.9508
  170SOL     OW 1087   0.921   5.609   0.039  0.1164 -0.1772  0.0842
  170SOL    HW1 1088   0.946   5.543  -0.025  3.0900  1.3361 -0.5247
  170SOL    HW2 1089   0.856   5.566   0.094  0.9306 -3.1342 -1.0700
  171SOL     OW 1090   1.133   5.620   3.640 -0.1363  0.4297  0.1528
  171SOL    HW1 1091   1.073   5.644   3.711 -1.0523 -0.7016 -0.2016
  171SOL    HW2 1092   1.212   5.589   3.685 -0.5377  0.1440  0.6765
  172SOL     OW 1093   2.448   1.873   3.870 -0.2767 -0.2819  0.0466
  172SOL    HW1 1094   2.519   1.925   3.908  1.1976 -1.6317 -0.7653
  172SOL    HW2 1095   2.401   1.839   3.946  0.2192  0.2474  0.6105
  173SOL     OW 1096   5.087   6.890   9.844 -0.0949  0.6837  0.4039
  173SOL    HW1 1097   5.067   6.797   9.858 -3.0686  0.7845 -2.2114
  173SOL    HW2 1098   5.140   6.891   9.764  0.0789  1.2581  0.5234
  174SOL     OW 1099   1.360   6.391   9.762  0.5631  0.2307  0.5122
  174SOL    HW1 1100   1.434   6.439   9.798  1.4953 -2.3755  2.3692
  174SOL    HW2 1101   1.398   6.335   9.694  0.0643 -0.1034  0.4990
  175SOL     OW 1102   9.797   5.964   3.515  0.3275  0.1630 -0.1696
  175SOL    HW1 1103   9.765   6.016   3.441  2.0578  2.4102  0.5359
  175SOL    HW2 1104   9.889   5.949   3.494  1.0963  1.6256  1.8688
  176SOL     OW 1105   0.821   1.781   1.650 -0.1139  0.0643  0.3811
  176SOL    HW1 1106   0.766   1.821   1.718  1.3784 -0.0496  1.7109
  176SOL    HW2 1107   0.890   1.845   1.634 -0.3526  0.0186 -0.9515
  177SOL     OW 1108   3.286   0.798   4.592 -0.0098 -0.0477 -0.2471
  177SOL    HW1 1109   3.287   0.796   4.688  0.8590 -2.1100 -0.2412
  177SOL    HW2 1110   3.209   0.850   4.570  1.3367  2.9370  1.5162
  178SOL     OW 1111   3.429   0.158   3.913 -0.2106 -0.2875 -0.6276
  178SOL    HW1 1112   3.404   0.250   3.917 -1.2339 -0.3941 -3.0332
  178SOL    HW2 1113   3.520   0.159   3.881 -0.1838 -0.0997 -0.5411
  179SOL     OW 1114   6.243   0.367   8.175 -0.0626  0.2641  0.2723
  179SOL    HW1 1115   6.253   0.428   8.102 -0.0687  0.3858  0.3710
  179SOL    HW2 1116   6.206   0.421   8.245  0.8289  0.3804  0.6734
  180SOL     OW 1117   0.373   9.580   5.542  0.1119  0.2824  0.0033
  180SOL    HW1 1118   0.315   9.613   5.473  0.2179 -0.5778 -0.5186
  180SOL    HW2 1119   0.317   9.523   5.594  0.4323 -0.4062 -0.3942
  181SOL     OW 1120   9.440   3.766   8.129  0.5826 -0.7298  0.7497
  181SOL    HW1 1121   9.360   3.714   8.120  0.1462  0.2835 -3.0371
  181SOL    HW2 1122   9.496   3.736   8.057  2.9598 -0.2711  2.3182
  182SOL     OW 1123   5.959   2.214   3.485 -0.1557  0.3003 -0.3077
  182SOL    HW1 1124   5.952   2.308   3.501 -0.3088  0.2148  0.1294
  182SOL    HW2 1125   6.045   2.190   3.520  0.2305  0.4232 -1.1496
  183SOL     OW 1126   3.487   2.862   7.540  0.0202 -0.0292  0.1760
  183SOL    HW1 1127   3.487   2.837   7.448  1.3926  0.5854 -0.0119
  183SOL    HW2 1128   3.397   2.849   7.568 -0.5051  0.1205 -1.3468
  184SOL     OW 1129   0.757   0.330   6.852  0.5531  0.5199 -0.3512
  184SOL    HW1 1130   0.817   0.361   6.920  0.7399  2.1688 -1.2174
  184SOL    HW2 1131   0.814   0.288   6.787  0.2310 -2.6281  1.2124
  185SOL     OW 1132   2.590   4.767   5.442  0.4946 -0.0519  0.6055
  185SOL    HW1 1133   2.560   4.777   5.351  0.4716  0.4060  0.6643
  185SOL    HW2 1134   2.588   4.672   5.457  2.1502 -0.2960 -0.4259
  186SOL     OW 1135   2.545   1.519   9.451 -0.0638  0.0041  0.0205
  186SOL    HW1 1136   2.636   1.500   9.427 -0.9824 -2.8961 -1.7091
  186SOL    HW2 1137   2.526   1.459   9.523 -0.8589 -0.0542 -0.2289
  187SOL     OW 1138   7.417   9.938   0.845  0.0510  0.0873 -0.0366
  187SOL    HW1 1139   7.333   9.950   0.889  0.0009 -1.3851  0.3360
  187SOL    HW2 1140   7.478   9.917   0.916  0.7001  0.9739 -0.3227
  188SOL     OW 1141   0.678   5.530   0.142 -0.0314 -0.1724 -0.7921
  188SOL    HW1 1142   0.657   5.612   0.097 -0.7955 -0.1199 -0.3554
  188SOL    HW2 1143   0.595   5.501   0.180  0.3066 -0.9569 -0.6206
  189SOL     OW 1144   1.428   3.737   5.230 -0.2347 -0.1033 -0.2621
  189SOL    HW1 1145   1.480   3.787   5.168  0.6837 -0.7820 -0.0567
  189SOL    HW2 1146   1.454   3.646   5.216 -0.8894 -0.3889  0.3007
  190SOL     OW 1147   4.800   4.058   0.329 -0.3772 -0.0445 -0.2647
  190SOL    HW1 1148   4.717   4.088   0.292  0.4469  0.8139 -1.5041
  190SOL    HW2 1149   4.775   4.011   0.409 -1.9185  2.1076  0.6174
  191SOL     OW 1150   9.417   0.243   4.859  0.3513  0.5691  0.1409
  191SOL    HW1 1151   9.368   0.216   4.937  1.6093 -1.3377  0.3467
  191SOL    HW2 1152   9.351   0.279   4.800 -0.7553  1.2345  1.7147
  192SOL     OW 1153   5.243   7.076   4.280 -0.1004 -0.3617  0.1168
  192SOL    HW1 1154   5.150   7.059   4.270 -0.5027  2.0656 -0.8717
  192SOL    HW2 1155   5.267   7.129   4.204  1.9280 -0.2872  0.7357
  193SOL     OW 1156   7.095   9.082   4.390  0.0443  0.6934  0.2716
  193SOL    HW1 1157   7.046   9.000   4.386 -0.7091  1.1372  0.0598
  193SOL    HW2 1158   7.185   9.056   4.411 -0.0875 -0.2141 -0.2458
  194SOL     OW 1159   2.787   1.723   5.554  0.5647 -0.5098 -0.5209
  194SOL    HW1 1160   2.869   1.694   5.595  1.2521 -0.4715 -1.8147
  194SOL    HW2 1161   2.786   1.679   5.470 -1.2792 -1.3032 -0.1172
  195SOL     OW 1162   7.908   6.879   2.810 -0.2445  0.6169  0.3817
  195SOL    HW1 1163   7.887   6.801   2.758  0.1762  1.0896 -0.5315
  195SOL    HW2 1164   8.001   6.872   2.827 -0.5132  0.1017  1.7216
  196SOL     OW 1165   3.069   6.515   2.090  0.0404  0.1118 -0.2453
  196SOL    HW1 1166   3.064   6.464   2.009  2.6033  0.4835 -0.7166
  196SOL    HW2 1167   3.001   6.582   2.081 -0.5550 -0.6245 -1.4826
  197SOL     OW 1168   9.366   0.272   4.049  0.4597  0.3769 -0.1999
  197SOL    HW1 1169   9.394   0.309   3.965  0.5577  1.2914  0.2241
  197SOL    HW2 1170   9.426   0.199   4.064 -2.2983 -2.9056 -3.1080
  198SOL     OW 1171   9.472   1.678   7.067  0.4606  0.0529 -0.2042
  198SOL    HW1 1172   9.463   1.595   7.020  1.0575  0.0551 -0.3306
  198SOL    HW2 1173   9.554   1.716   7.034  0.4153  0.4891  0.1671
  199SOL     OW 1174   1.381   3.266   8.815 -0.0965  0.4278  0.2164
  199SOL    HW1 1175   1.404   3.178   8.786  0.3868 -0.0037  1.8337
  199SOL    HW2 1176   1.420   3.323   8.748 -0.3881 -0.5578 -0.8388
  200SOL     OW 1177   9.375   7.995   4.256 -0.2003  0.4040 -0.2448
  200SOL    HW1 1178   9.341   7.970   4.170  0.2782  0.0183 -0.3282
  200SOL    HW2 1179   9.371   8.091   4.257 -2.6478  0.3722  0.3103
  201SOL     OW 1180   6.225   7.518   9.020  0.1517 -0.0321 -0.4435
  201SOL    HW1 1181   6.247   7.499   9.111  0.8128 -1.0151 -0.7942
  201SOL    HW2 1182   6.214   7.613   9.017 -0.5030 -0.0554  0.7894
  202SOL     OW 1183   4.237   4.401   8.531 -0.2799 -0.2157 -0.0666
  202SOL    HW1 1184   4.191   4.358   8.603 -2.1011 -0.1570 -1.1311
  202SOL    HW2 1185   4.230   4.494   8.550 -0.1215 -0.2280  0.0508
  203SOL     OW 1186   3.811   4.540   7.565 -0.0112 -0.1926 -0.4220
  203SOL    HW1 1187   3.898   4.519   7.600 -0.2446  0.6846  0.7191
  203SOL    HW2 1188   3.760   4.567   7.641 -0.9990  0.2732 -1.2298
  204SOL     OW 1189   6.335   1.758   4.373 -0.7488  0.4721 -0.1785
  204SOL    HW1 1190   6.274   1.818   4.416 -0.8014  2.1674 -2.4220
  204SOL    HW2 1191   6.291   1.735   4.291 -0.2857 -1.9195  0.1857
  205SOL     OW 1192   7.287   3.481   0.562  0.2303  0.5875  0.2041
  205SOL    HW1 1193   7.313   3.451   0.649  0.1294 -0.3814 -0.0840
  205SOL    HW2 1194   7.255   3.402   0.519  0.6209  0.9809 -0.8371
  206SOL     OW 1195   9.057   9.897   1.074  0.2854 -0.0731 -0.1641
  206SOL    HW1 1196   8.963   9.904   1.088  0.1077  1.6683 -1.7781
  206SOL    HW2 1197   9.087   9.987   1.070  1.9360 -0.5956 -0.2166
  207SOL     OW 1198   1.877   1.944   3.081  0.3309 -0.5288  0.5507
  207SOL    HW1 1199   1.838   1.988   3.156 -0.3061  0.4524 -0.3232
  207SOL    HW2 1200   1.830   1.979   3.005 -1.2251 -3.7218 -0.1536
  208SOL     OW 1201   2.154   7.192   6.630 -0.0853  0.1218 -0.5079
  208SOL    HW1 1202   2.160   7.097   6.630  2.9771  0.2362 -0.2606
  208SOL    HW2 1203   2.135   7.214   6.539 -4.3606 -0.7242 -0.0188
  209SOL     OW 1204   9.811   6.737  -0.001 -0.1994 -0.0279 -0.2507
  209SOL    HW1 1205   9.816   6.789   0.079 -0.9598  1.0179 -0.8607
  209SOL    HW2 1206   9.733   6.768  -0.046  0.9517  0.4056 -2.0756
  210SOL     OW 1207   3.529   8.379   4.137 -0.2061  0.6535  0.3678
  210SOL    HW1 1208   3.559   8.359   4.048 -1.5272  2.1037 -0.4677
  210SOL    HW2 1209   3.510   8.473   4.135 -0.9267  0.5756  1.9759
  211SOL     OW 1210   0.490   1.753   6.184 -0.5025  0.0576  0.9783
  211SOL    HW1 1211   0.501   1.696   6.108  2.1807  2.6760 -0.8316
  211SOL    HW2 1212   0.548   1.717   6.250 -1.4519 -1.1966  1.1569
  212SOL     OW 1213   4.511   7.066   0.840  0.4325  0.2958 -0.3740
  212SOL    HW1 1214   4.600   7.057   0.806  0.7825 -0.7103  0.7464
  212SOL    HW2 1215   4.480   6.977   0.851  0.8889  0.4340  3.2246
  213SOL     OW 1216   1.960   0.605   8.566 -0.1047  0.2417  0.2953
  213SOL    HW1 1217   1.938   0.696   8.548  0.1111  0.0113 -1.2793
  213SOL    HW2 1218   1.897   0.554   8.514 -0.4626 -0.5226  1.4435
  214SOL     OW 1219   9.778   3.433   4.828  0.1513  0.3600 -0.2510
  214SOL    HW1 1220   9.804   3.359   4.884  0.4176  1.1678  0.7115
  214SOL    HW2 1221   9.685   3.444   4.847  0.3514  0.9535  0.4343
  215SOL     OW 1222   7.433   8.059   8.084 -0.4073 -0.0583 -0.3611
  215SOL    HW1 1223   7.385   7.984   8.117  0.1160  0.0736  0.7600
  215SOL    HW2 1224   7.514   8.022   8.049 -0.9191 -0.1879 -1.4531
  216SOL     OW 1225   8.915   7.166   6.686  0.3777 -0.0040  0.0901
  216SOL    HW1 1226   8.951   7.254   6.678  0.8604 -0.0207  1.6602
  216SOL    HW2 1227   8.820   7.179   6.682  0.4676  0.3903 -1.1296
  217SOL     OW 1228   2.200   0.344   1.681 -0.7164 -0.1587  0.3777
  217SOL    HW1 1229   2.142   0.268   1.682 -0.4486 -0.4313  3.0498
  217SOL    HW2 1230   2.288   0.307   1.694 -0.4059  0.5072  0.2081
  218SOL     OW 1231   3.768   5.887   0.582  0.3968  0.4318 -0.2315
  218SOL    HW1 1232   3.842   5.919   0.633 -0.3214  2.3788 -0.3462
  218SOL    HW2 1233   3.701   5.868   0.648  0.6254 -0.3750 -0.2132
  219SOL     OW 1234   5.219   1.945   6.180  0.0273 -0.5868  0.1548
  219SOL    HW1 1235   5.274   2.001   6.126 -0.6895 -0.4851 -0.4790
  219SOL    HW2 1236   5.133   1.948   6.139 -0.6554 -0.1429  1.5673
  220SOL     OW 1237   9.190   5.993   7.493  0.4305 -0.5610 -0.0740
  220SOL    HW1 1238   9.145   5.923   7.540 -1.9419  1.1184  0.3115
  220SOL    HW2 1239   9.166   6.073   7.539  2.4871  0.6267 -0.9321
  221SOL     OW 1240   9.493   9.945   3.447 -0.0339 -0.2486  0.3857
  221SOL    HW1 1241   9.585   9.942   3.472 -0.2964 -1.0274  1.3473
  221SOL    HW2 1242   9.494   9.944   3.351  0.9540 -0.0776  0.3845
  222SOL     OW 1243   7.581   1.645   0.794  0.2306  0.2137  0.6156
  222SOL    HW1 1244   7.528   1.614   0.721  0.6063 -0.0139  0.4366
  222SOL    HW2 1245   7.543   1.730   0.817 -0.6208 -0.2457  0.9221
  223SOL     OW 1246   7.541   6.168   4.222 -0.3961  0.1411  0.6708
  223SOL    HW1 1247   7.480   6.224   4.268 -1.3587 -1.2826  1.2120
  223SOL    HW2 1248   7.628   6.196   4.252 -0.8321  1.4702  0.7171
  224SOL     OW 1249   7.618   4.637   6.377  0.1329 -0.2173 -0.4953
  224SOL    HW1 1250   7.678   4.591   6.437  0.2702 -0.7363 -1.0275
  224SOL    HW2 1251   7.560   4.568   6.344 -1.2451  0.3811  0.5511
  225SOL     OW 1252   3.370   4.008   3.243 -0.0173  0.1409  0.3541
  225SOL    HW1 1253   3.444   3.956   3.209 -1.2419 -0.7408 -1.1145
  225SOL    HW2 1254   3.362   4.080   3.181 -1.0281 -0.3653 -0.1260
  226SOL     OW 1255   5.860   9.106   3.060  0.0698  0.5382 -0.0466
  226SOL    HW1 1256   5.926   9.169   3.087  2.1546 -0.5233 -2.2813
  226SOL    HW2 1257   5.910   9.030   3.029 -2.1938 -0.4325 -1.6325
  227SOL     OW 1258   4.055   3.045   7.182 -0.6223  0.1329 -0.3324
  227SOL    HW1 1259   4.126   2.988   7.215  1.3532  2.3535 -0.4824
  227SOL    HW2 1260   3.975   3.005   7.216  0.7856 -1.7244  1.0359
  228SOL     OW 1261   7.347   5.537   7.669  0.2316  0.3298 -0.0531
  228SOL    HW1 1262   7.340   5.582   7.584  1.1991 -0.6863 -0.7122
  228SOL    HW2 1263   7.258   5.510   7.689 -0.2959  2.0413  0.1072
  229SOL     OW 1264   5.133   0.146   3.222 -0.2104 -0.0175  0.6614
  229SOL    HW1 1265   5.041   0.168   3.237 -0.1619  0.5769  0.1258
  229SOL    HW2 1266   5.181   0.197   3.287 -0.1650  0.7879  0.0140
  230SOL     OW 1267   6.686   4.990   5.670 -0.0422  0.2181 -0.0678
  230SOL    HW1 1268   6.624   5.060   5.691 -0.2736  0.3743 -1.2154
  230SOL    HW2 1269   6.707   5.003   5.578  1.5089  0.0128  0.2185
  231SOL     OW 1270   6.072   6.073   4.555 -0.0412 -0.4548 -0.4547
  231SOL    HW1 1271   6.110   6.104   4.473  0.2676  1.3374  0.3331
  231SOL    HW2 1272   5.979   6.095   4.549  0.0714  0.1136 -0.1273
  232SOL     OW 1273   4.247   6.824   0.091 -0.3531  0.7585 -0.1887
  232SOL    HW1 1274   4.289   6.906   0.117  0.3689  0.1229  0.7131
  232SOL    HW2 1275   4.165   6.823   0.140 -1.0976  1.6143 -1.3347
  233SOL     OW 1276   7.031   3.206   3.253  0.0280  0.1844  0.4458
  233SOL    HW1 1277   6.988   3.123   3.273  0.4735  0.1098  1.1267
  233SOL    HW2 1278   7.013   3.262   3.328  2.9942 -0.6063  1.8917
  234SOL     OW 1279   6.971   5.511   5.947  0.7357  0.2300 -0.3431
  234SOL    HW1 1280   7.008   5.452   5.881 -2.9821 -2.9930  0.0513
  234SOL    HW2 1281   6.931   5.581   5.896  0.2687 -0.7590 -1.3985
  235SOL     OW 1282   1.564   2.135   1.236 -0.3403  0.6547 -0.3092
  235SOL    HW1 1283   1.612   2.190   1.297  1.2342  1.0083 -1.7846
  235SOL    HW2 1284   1.621   2.128   1.159 -1.1292 -1.8019 -0.7893
  236SOL     OW 1285   1.493   5.955   6.035  0.5476  0.0888  0.7826
  236SOL    HW1 1286   1.458   5.942   5.947  3.2015 -1.9068 -0.1184
  236SOL    HW2 1287   1.546   6.035   6.028 -0.7629  1.0246  1.1557
  237SOL     OW 1288   9.908   6.262   2.978 -0.4397 -0.2200 -0.0117
  237SOL    HW1 1289   9.998   6.291   2.990 -0.5869 -0.3461  1.5649
  237SOL    HW2 1290   9.915   6.172   2.946  0.0973 -1.8340  4.0912
  238SOL     OW 1291   2.484   4.177   7.728  0.0334 -0.2902 -0.0478
  238SOL    HW1 1292   2.554   4.115   7.748  0.7516  0.5491  0.0806
  238SOL    HW2 1293   2.458   4.155   7.638  2.4486  1.2191 -1.2164
  239SOL     OW 1294   2.700   6.691   9.728 -0.0976 -0.3093  0.5204
  239SOL    HW1 1295   2.787   6.729   9.713  0.5265 -1.8876 -0.1142
  239SOL    HW2 1296   2.640   6.748   9.680  0.7624  0.0741 -0.1203
  240SOL     OW 1297   1.732   9.635   2.547  0.2406  0.4264  0.3423
  240SOL    HW1 1298   1.789   9.704   2.511  1.2881 -0.8823 -0.5872
  240SOL    HW2 1299   1.767   9.554   2.512 -0.9199 -0.6166  1.4878
  241SOL     OW 1300   2.444   7.023   4.620 -0.1978  0.2907 -0.3893
  241SOL    HW1 1301   2.379   7.001   4.687  0.4905  0.8684  0.5040
  241SOL    HW2 1302   2.521   6.971   4.644  0.5508  1.5899  0.1761
  242SOL     OW 1303   4.980   8.968   4.219  0.2269 -0.0384 -0.0774
  242SOL    HW1 1304   4.978   8.952   4.124 -0.8386 -0.1901 -0.0467
  242SOL    HW2 1305   4.921   9.043   4.231  1.8527  1.2448  0.2652
  243SOL     OW 1306   5.650   6.024   9.735  0.3521 -0.1848  0.0597
  243SOL    HW1 1307   5.567   6.010   9.688  1.0678 -0.3431 -1.2150
  243SOL    HW2 1308   5.691   6.097   9.689  0.0165  1.2914  1.9887
  244SOL     OW 1309   8.303   5.426   1.925  0.0044 -0.0908  0.0943
  244SOL    HW1 1310   8.279   5.516   1.949 -0.1487 -0.3233  0.8517
  244SOL    HW2 1311   8.343   5.391   2.004  1.5701 -0.1807 -0.6879
  245SOL     OW 1312   2.638   1.439   2.724 -0.7329  0.0478 -0.1622
  245SOL    HW1 1313   2.694   1.388   2.665 -0.8491 -0.2908  0.0134
  245SOL    HW2 1314   2.571   1.477   2.666 -0.6256  0.0257 -0.3010
  246SOL     OW 1315   3.165   6.358   3.985  0.1841 -0.4421  0.8387
  246SOL    HW1 1316   3.205   6.373   4.071 -0.9206 -0.2729  1.3354
  246SOL    HW2 1317   3.119   6.440   3.966 -1.1367 -1.1366  0.9496
  247SOL     OW 1318   6.789   3.754   8.779  0.0388 -0.0054 -0.3791
  247SOL    HW1 1319   6.797   3.682   8.715 -1.7358  0.1390 -0.8100
  247SOL    HW2 1320   6.794   3.711   8.864  1.9407 -0.2603 -0.5779
  248SOL     OW 1321   8.615   1.087   4.561 -0.3520 -0.2473  0.4170
  248SOL    HW1 1322   8.623   1.143   4.637  0.6310 -1.0564  0.9337
  248SOL    HW2 1323   8.697   1.099   4.513  0.1818 -1.7235  0.8993
  249SOL     OW 1324   8.537   7.019   3.355  0.7717  0.6501 -0.3512
  249SOL    HW1 1325   8.551   7.101   3.307  0.9074  1.6226  1.2732
  249SOL    HW2 1326   8.491   6.963   3.293 -0.9352  2.5889 -0.9705
  250SOL     OW 1327   3.761   3.435   3.245 -0.1228 -0.5968 -0.2016
  250SOL    HW1 1328   3.740   3.353   3.289 -0.8710  1.3911  3.5138
  250SOL    HW2 1329   3.684   3.454   3.192 -1.4780 -0.6305  1.6805
  251SOL     OW 1330   0.847   9.212   6.169  0.0494 -0.2637  0.3417
  251SOL    HW1 1331   0.787   9.242   6.237  0.3263  0.9542  0.0669
  251SOL    HW2 1332   0.803   9.234   6.087  0.0061 -1.1442  0.1110
  252SOL     OW 1333   0.159   5.547   7.210  0.0418  0.4765  0.4121
  252SOL    HW1 1334   0.121   5.476   7.158 -1.3551  0.6789  1.1012
  252SOL    HW2 1335   0.098   5.620   7.199  1.3023  1.4941 -0.0421
  253SOL     OW 1336   0.342   3.216   1.227  0.0191 -0.6343  0.7801
  253SOL    HW1 1337   0.331   3.191   1.319  0.0321  1.4819  1.4029
  253SOL    HW2 1338   0.266   3.271   1.208  2.0479  2.4637  0.8784
  254SOL     OW 1339   8.699   2.926   1.917  0.7733  0.7101 -0.2685
  254SOL    HW1 1340   8.730   2.845   1.877  0.3016  0.4535 -0.1246
  254SOL    HW2 1341   8.767   2.950   1.979  0.6750  0.1403  0.0599
  255SOL     OW 1342   2.440   3.049   3.504  0.3131 -0.0250  0.0439
  255SOL    HW1 1343   2.467   2.965   3.467  0.6767 -1.0469  2.4180
  255SOL    HW2 1344   2.514   3.077   3.558 -1.3644 -0.4070  2.7400
  256SOL     OW 1345   9.071   2.825   1.598 -0.3820  0.2225 -0.0616
  256SOL    HW1 1346   9.097   2.782   1.517  0.8573  1.6294 -0.4588
  256SOL    HW2 1347   9.027   2.905   1.569  0.4908  0.9732  0.6331
  257SOL     OW 1348   9.913   7.285   2.608 -0.0394  0.0379  0.5377
  257SOL    HW1 1349   9.856   7.277   2.685  0.5456 -0.2239  0.9446
  257SOL    HW2 1350   9.867   7.237   2.539 -0.1577 -0.4524  0.9538
  258SOL     OW 1351   3.255   2.059   6.445  0.1819  0.4000  0.1327
  258SOL    HW1 1352   3.297   2.098   6.368  0.4668  0.6144  0.3928
  258SOL    HW2 1353   3.323   2.062   6.512  0.6757 -1.7329 -0.1947
  259SOL     OW 1354   0.025   9.966   8.886 -0.2470  0.0957 -0.3915
  259SOL    HW1 1355   0.038   9.890   8.942 -1.3417 -0.1828 -0.4910
  259SOL    HW2 1356  -0.057   9.948   8.840  1.3375 -0.4602 -3.3050
  260SOL     OW 1357   6.237   8.461   3.278  0.2878  0.1001 -0.0583
  260SOL    HW1 1358   6.292   8.443   3.354 -0.4304 -0.9387  0.2438
  260SOL    HW2 1359   6.268   8.400   3.211 -0.2567 -0.2525  0.0039
  261SOL     OW 1360   1.655   9.056   4.356 -0.5416 -0.2732 -0.1184
  261SOL    HW1 1361   1.591   9.087   4.293 -0.1780  3.3423  1.0746
  261SOL    HW2 1362   1.606   9.046   4.438 -0.0318  0.3692  0.2767
  262SOL     OW 1363   3.144   0.740   1.409 -0.4987  0.1043  0.1749
  262SOL    HW1 1364   3.213   0.793   1.447  1.3227 -1.5250 -0.7167
  262SOL    HW2 1365   3.129   0.670   1.472 -1.0612  0.2144  0.1722
  263SOL     OW 1366   1.587   3.204   6.860  0.2951 -0.2396  0.2253
  263SOL    HW1 1367   1.605   3.280   6.915 -1.5054  0.2184  0.2422
  263SOL    HW2 1368   1.502   3.172   6.890  0.8628 -2.0831  0.0024
  264SOL     OW 1369   0.829   1.948   8.133  0.9020 -0.0838  0.5657
  264SOL    HW1 1370   0.887   2.020   8.160  2.0240 -1.3661  1.7499
  264SOL    HW2 1371   0.878   1.904   8.064 -0.4119  1.0760 -1.1796
  265SOL     OW 1372   2.281   1.696   2.888 -0.3297  0.1786  0.5550
  265SOL    HW1 1373   2.343   1.724   2.822  0.2289  1.5305  1.6221
  265SOL    HW2 1374   2.243   1.777   2.923 -0.6400 -0.4895  1.8562
  266SOL     OW 1375   4.280   4.858   4.684  0.4164  0.2685 -0.4929
  266SOL    HW1 1376   4.287   4.924   4.753  0.5995 -0.6714  0.4104
  266SOL    HW2 1377   4.202   4.807   4.707  1.7428 -1.4978  0.3525
  267SOL     OW 1378   8.358   2.386   8.773 -0.8437 -0.0918 -0.4344
  267SOL    HW1 1379   8.428   2.344   8.722  0.6549 -2.0013  2.8525
  267SOL    HW2 1380   8.310   2.313   8.812 -2.9344  1.2589 -0.3229
  268SOL     OW 1381   0.081   6.561   0.602  0.3724  0.5138 -0.1655
  268SOL    HW1 1382   0.077   6.630   0.668 -0.8765  0.1032  0.2017
  268SOL    HW2 1383   0.101   6.608   0.521  0.0643  1.2508  0.1703
  269SOL     OW 1384   2.204   3.424   1.277  0.1549  0.1605 -0.5099
  269SOL    HW1 1385   2.140   3.357   1.301  0.1772  0.0760 -0.6814
  269SOL    HW2 1386   2.171   3.460   1.195  0.3826  0.0445 -0.6528
  270SOL     OW 1387   5.029   9.181   5.593 -0.0122  0.1427 -0.1288
  270SOL    HW1 1388   4.992   9.220   5.672  1.1795  0.8206  0.1247
  270SOL    HW2 1389   5.035   9.254   5.531  0.0769 -0.1492 -0.4656
  271SOL     OW 1390   1.383   0.889   0.207  0.0366  0.2322  0.1481
  271SOL    HW1 1391   1.372   0.948   0.132 -2.7766 -0.0861  0.2244
  271SOL    HW2 1392   1.408   0.806   0.168  1.4901  0.7815 -0.1600
  272SOL     OW 1393   5.456   1.446   4.760  0.0217 -0.1881 -0.2981
  272SOL    HW1 1394   5.378   1.391   4.767 -0.3542  0.4249  0.4594
  272SOL    HW2 1395   5.495   1.445   4.848  1.0479 -0.7367 -0.7411
  273SOL     OW 1396   8.031   5.576   0.881 -0.2713  0.3061  0.6878
  273SOL    HW1 1397   8.003   5.666   0.863  0.7158  0.4574 -0.2117
  273SOL    HW2 1398   7.965   5.541   0.940 -1.1124  1.3621  0.3940
  274SOL     OW 1399   4.812   1.939   6.504 -0.1095  0.2521  0.0543
  274SOL    HW1 1400   4.865   2.017   6.489  0.2508  0.1559  0.7840
  274SOL    HW2 1401   4.731   1.954   6.454  0.2140  0.8115 -0.3045
  275SOL     OW 1402   9.296   9.096   3.144  0.0794  0.3059 -0.5081
  275SOL    HW1 1403   9.383   9.133   3.130  0.0500  0.6773  0.2547
  275SOL    HW2 1404   9.278   9.112   3.237 -0.4475 -0.5270 -0.4586
  276SOL     OW 1405   6.054   8.833   8.021 -0.1806 -0.1471 -0.3726
  276SOL    HW1 1406   6.000   8.869   8.091 -0.4759 -2.3935  0.6708
  276SOL    HW2 1407   5.992   8.791   7.962  0.1904  0.1882 -1.0052
  277SOL     OW 1408   4.310   2.192   7.220 -0.2695  0.2970 -0.4607
  277SOL    HW1 1409   4.290   2.248   7.145 -1.3014 -0.4134 -0.7241
  277SOL    HW2 1410   4.340   2.253   7.287  0.0906  1.0032 -1.2376
  278SOL     OW 1411   2.957   3.047   3.659  0.7932  0.1615 -0.2864
  278SOL    HW1 1412   3.027   3.018   3.601 -0.1048  0.4902 -1.6014
  278SOL    HW2 1413   2.929   2.968   3.705 -0.0920 -0.6672 -2.1325
  279SOL     OW 1414   5.041   6.199   5.381 -0.1715  0.0040 -0.1555
  279SOL    HW1 1415   5.015   6.107   5.385  0.6936 -0.2171  0.9093
  279SOL    HW2 1416   4.963   6.248   5.407 -0.3832 -0.4723  0.1006
  280SOL     OW 1417   0.547   3.646   3.758  0.5422  0.8055 -0.0178
  280SOL    HW1 1418   0.603   3.716   3.724  0.6219  0.9829  0.4676
  280SOL    HW2 1419   0.490   3.622   3.684  2.0463 -0.2064 -0.9085
  281SOL     OW 1420   4.278   4.783   1.269  0.2075 -0.3547  0.1418
  281SOL    HW1 1421   4.342   4.816   1.206  0.0287 -0.8771 -0.3152
  281SOL    HW2 1422   4.280   4.848   1.340  2.5895 -1.2721  1.0388
  282SOL     OW 1423   1.778   9.419   3.432  0.3089 -0.3247 -0.2772
  282SOL    HW1 1424   1.830   9.429   3.512 -0.7698 -1.1170  0.5671
  282SOL    HW2 1425   1.699   9.373   3.461 -1.1717  1.4006 -1.3699
  283SOL     OW 1426   1.666   5.764   6.422  0.2300 -0.3054  0.3606
  283SOL    HW1 1427   1.584   5.759   6.372  1.2641 -1.8207 -1.3066
  283SOL    HW2 1428   1.642   5.732   6.510 -0.4477 -3.8357 -0.9356
  284SOL     OW 1429   4.560   5.184   8.283 -0.0070 -0.0418  0.3421
  284SOL    HW1 1430   4.606   5.242   8.222  0.0450 -0.6307 -0.1998
  284SOL    HW2 1431   4.627   5.121   8.311 -0.4088 -0.7678 -0.2784
  285SOL     OW 1432   9.125   5.626   3.616  0.1445 -0.3794  0.2358
  285SOL    HW1 1433   9.058   5.558   3.608 -0.0660 -0.2042  0.4711
  285SOL    HW2 1434   9.173   5.622   3.533  0.3362 -1.0217  0.3736
  286SOL     OW 1435   6.437   8.510   7.564 -0.2096  0.6191 -0.4717
  286SOL    HW1 1436   6.370   8.509   7.632  1.9968  3.3336  1.9717
  286SOL    HW2 1437   6.502   8.446   7.593 -0.6770 -0.4678 -1.7274
  287SOL     OW 1438   8.570   8.213   8.121 -0.6420 -0.3714 -0.3242
  287SOL    HW1 1439   8.648   8.158   8.110 -1.1148 -0.8637 -1.4043
  287SOL    HW2 1440   8.533   8.185   8.204  1.1845  0.9891  1.0335
  288SOL     OW 1441   1.290   8.599   8.491 -0.6985 -0.0384 -0.3358
  288SOL    HW1 1442   1.291   8.608   8.586  1.9005  3.1268 -0.4447
  288SOL    HW2 1443   1.280   8.505   8.475 -0.2756 -0.7933  3.0893
  289SOL     OW 1444   9.056   4.313   5.799 -0.1731  0.5106  0.6378
  289SOL    HW1 1445   9.051   4.351   5.712 -0.7999 -0.4827  0.2149
  289SOL    HW2 1446   9.136   4.260   5.798 -0.3857  0.1926  0.5383
  290SOL     OW 1447   5.842   1.358   4.923  0.3455  0.0769 -0.2308
  290SOL    HW1 1448   5.757   1.399   4.936  0.3440  0.2193 -0.6778
  290SOL    HW2 1449   5.843   1.285   4.984 -0.0039  0.2178 -0.0573
  291SOL     OW 1450   3.532   0.152   1.072  0.2255 -0.2318  0.2008
  291SOL    HW1 1451   3.584   0.099   1.132  0.5676 -0.6634 -0.4683
  291SOL    HW2 1452   3.524   0.099   0.993 -0.7776  0.0542  0.0912
  292SOL     OW 1453   6.808   9.171   3.656  0.1471 -0.1460 -0.5593
  292SOL    HW1 1454   6.770   9.113   3.590  0.2298  0.4227 -1.1209
  292SOL    HW2 1455   6.865   9.230   3.606  1.9105 -1.0726  0.2737
  293SOL     OW 1456   5.087   8.420   0.342 -0.6080 -0.4206  0.2793
  293SOL    HW1 1457   5.022   8.467   0.290  0.2032  0.6310  0.1655
  293SOL    HW2 1458   5.098   8.474   0.421 -0.7518 -1.2233  0.8541
  294SOL     OW 1459   2.412   1.851   1.329  0.0397 -0.9172  0.3923
  294SOL    HW1 1460   2.440   1.784   1.266  0.8389 -0.0110 -0.2489
  294SOL    HW2 1461   2.317   1.857   1.315  0.1338 -1.0604 -0.4098
  295SOL     OW 1462   2.033   5.744   5.971 -0.0073  0.2873 -0.1190
  295SOL    HW1 1463   1.946   5.777   5.996 -0.5530 -1.5282  0.5561
  295SOL    HW2 1464   2.020   5.649   5.961  1.8773  0.0058 -0.1390
  296SOL     OW 1465   6.968   8.754   1.724 -0.0248  0.0179 -0.4803
  296SOL    HW1 1466   7.022   8.832   1.710  0.6782 -0.3857 -0.0783
  296SOL    HW2 1467   7.030   8.686   1.749 -0.8457 -0.1327  1.2974
  297SOL     OW 1468   7.356   8.542   7.402  0.2849 -0.6353  0.7857
  297SOL    HW1 1469   7.410   8.608   7.445  0.6151  1.8782 -2.9919
  297SOL    HW2 1470   7.284   8.525   7.463  1.7661  0.9607  3.1381
  298SOL     OW 1471   4.280   4.622   8.713 -0.5018  0.2499 -0.2575
  298SOL    HW1 1472   4.340   4.645   8.784 -2.6367 -0.3156  1.8666
  298SOL    HW2 1473   4.257   4.706   8.673  1.2549  0.5101 -0.8121
  299SOL     OW 1474   4.019   1.959   0.799  0.2682 -0.0811 -0.0604
  299SOL    HW1 1475   4.086   1.935   0.735  0.5659 -1.5761  0.7510
  299SOL    HW2 1476   3.936   1.940   0.756  0.3475  1.2851 -0.8794
  300SOL     OW 1477   3.947   9.497   2.162  0.1449 -0.5044  0.1436
  300SOL    HW1 1478   4.042   9.507   2.153  0.0506 -0.1611 -0.6485
  300SOL    HW2 1479   3.935   9.455   2.247  0.9956 -0.3955  0.3327
  301SOL     OW 1480   5.010   8.021   5.843 -0.6286 -0.1575  0.2586
  301SOL    HW1 1481   5.068   8.098   5.846 -0.1531 -0.5303  0.8318
  301SOL    HW2 1482   5.036   7.969   5.919 -0.4889 -1.2173 -0.4999
  302SOL     OW 1483   8.445   0.429   2.836  0.1057 -0.5032  0.5398
  302SOL    HW1 1484   8.394   0.501   2.799  1.2785  1.0951  1.8881
  302SOL    HW2 1485   8.517   0.417   2.775 -0.7321 -1.4085 -0.3172
  303SOL     OW 1486   5.978   4.403   5.652 -0.3813 -0.0002  0.0626
  303SOL    HW1 1487   6.058   4.377   5.698 -0.8854 -0.2596  0.8114
  303SOL    HW2 1488   5.928   4.454   5.717 -0.6775  0.4394 -0.5003
  304SOL     OW 1489   5.235   5.316   0.098  0.0339 -0.2374 -0.2067
  304SOL    HW1 1490   5.316   5.362   0.074 -0.0546  0.5055  0.8168
  304SOL    HW2 1491   5.255   5.276   0.183 -0.3961 -0.7962 -0.3658
  305SOL     OW 1492   9.391   7.331   7.446 -0.3614 -0.0980  0.3225
  305SOL    HW1 1493   9.316   7.279   7.472 -0.2251  0.0343  0.9959
  305SOL    HW2 1494   9.441   7.274   7.387 -0.1450 -0.7822  1.1536
  306SOL     OW 1495   8.990   8.502   4.030  0.0799  0.7083 -0.2357
  306SOL    HW1 1496   9.030   8.588   4.026  1.1430  0.1993 -0.8521
  306SOL    HW2 1497   8.898   8.520   4.050  0.2753  1.9787 -0.3720
  307SOL     OW 1498   6.530   8.451   4.968  0.0258 -0.1355  0.5578
  307SOL    HW1 1499   6.491   8.459   5.055  0.6662 -1.2171  0.9537
  307SOL    HW2 1500   6.461   8.484   4.909 -0.4527  0.5131  1.4431
  308SOL     OW 1501   4.257   6.207   4.733 -0.0573  0.3102 -0.0950
  308SOL    HW1 1502   4.168   6.178   4.752  0.5400 -1.4164  0.2577
  308SOL    HW2 1503   4.307   6.182   4.811  0.7779  1.1094 -0.3603
  309SOL     OW 1504   0.101   9.525   6.294  0.7603 -0.7166  0.0737
  309SOL    HW1 1505   0.019   9.489   6.261  0.6999 -0.8427  0.3679
  309SOL    HW2 1506   0.149   9.551   6.215  0.3426 -0.4331 -0.0912
  310SOL     OW 1507   8.719   1.327   1.546 -0.7275 -0.1570  0.7952
  310SOL    HW1 1508   8.657   1.365   1.608  0.4540 -2.0803  3.3654
  310SOL    HW2 1509   8.778   1.400   1.523 -2.7929  1.2501 -0.3248
  311SOL     OW 1510   9.549   6.635   9.246 -0.3156 -0.6073 -0.3044
  311SOL    HW1 1511   9.594   6.580   9.310 -0.7678 -0.5627  0.0570
  311SOL    HW2 1512   9.608   6.637   9.171  0.6179  0.0255  0.4144
  312SOL     OW 1513   0.336   8.550   7.408  0.1310 -0.2252 -0.4436
  312SOL    HW1 1514   0.347   8.463   7.447 -1.7871  0.0665  0.8871
  312SOL    HW2 1515   0.368   8.540   7.318 -0.4654 -2.4373 -0.4691
  313SOL     OW 1516   1.351   6.172   8.904  0.1446  0.0157 -0.3222
  313SOL    HW1 1517   1.275   6.229   8.890 -0.7003 -1.0189 -0.0896
  313SOL    HW2 1518   1.317   6.084   8.890  1.2991 -0.4678 -0.1422
  314SOL     OW 1519   6.023   0.359   9.316 -0.4972  0.1077  0.3478
  314SOL    HW1 1520   6.062   0.379   9.231 -1.1035  1.9808  0.4656
  314SOL    HW2 1521   6.066   0.418   9.378 -1.0114 -0.2866  1.1107
  315SOL     OW 1522   0.154   0.247   1.170  0.0625 -0.1581 -0.3192
  315SOL    HW1 1523   0.120   0.326   1.213  0.6849 -0.1003  0.0851
  315SOL    HW2 1524   0.083   0.218   1.113 -0.0244  0.9229 -0.7807
  316SOL     OW 1525   0.838   6.304   1.476  0.5042  0.2129  0.5416
  316SOL    HW1 1526   0.857   6.290   1.383 -0.5889 -0.1090  0.3541
  316SOL    HW2 1527   0.772   6.372   1.477 -0.3522 -0.6041  1.0099
  317SOL     OW 1528   9.187   9.908   4.199 -0.0201  0.1819  0.4896
  317SOL    HW1 1529   9.124   9.936   4.134 -1.2174  0.8457  1.8761
  317SOL    HW2 1530   9.139   9.849   4.256  1.0640 -0.5742  0.6532
  318SOL     OW 1531   6.350   7.047   4.372  0.2950 -0.1527  0.2766
  318SOL    HW1 1532   6.274   6.994   4.394 -0.7156  0.0077 -2.5151
  318SOL    HW2 1533   6.423   7.004   4.417 -1.2719 -0.7593  2.3682
  319SOL     OW 1534   2.812   6.259   2.947 -0.0935  0.0779 -0.5764
  319SOL    HW1 1535   2.870   6.261   3.023 -0.1451  0.5069 -0.5426
  319SOL    HW2 1536   2.802   6.351   2.923 -2.0784  0.1708  0.4350
  320SOL     OW 1537   5.232   9.022   8.609  0.4059 -0.4485  0.1959
  320SOL    HW1 1538   5.303   9.026   8.673 -0.1434  0.7922  0.7358
  320SOL    HW2 1539   5.170   8.959   8.646  0.5800 -0.5120  0.3810
  321SOL     OW 1540   0.596   6.145   0.529 -0.0515 -0.0167 -0.3522
  321SOL    HW1 1541   0.549   6.208   0.475  1.1421  1.5773  0.4014
  321SOL    HW2 1542   0.530   6.080   0.553 -1.6831  1.6771 -0.0151
  322SOL     OW 1543   0.011   3.015   4.596 -0.0871  0.1316 -0.0365
  322SOL    HW1 1544   0.081   3.078   4.616 -0.3359 -0.3560  2.6093
  322SOL    HW2 1545  -0.049   3.021   4.670 -0.5383 -2.6380 -0.0776
  323SOL     OW 1546   4.106   6.055   6.813 -0.5607  0.1725 -0.2119
  323SOL    HW1 1547   4.098   5.960   6.806  1.9177 -0.0534 -0.8929
  323SOL    HW2 1548   4.053   6.078   6.889  0.4900 -2.0530  1.3069
  324SOL     OW 1549   7.571   3.162   3.672  0.3293  0.1790 -0.0105
  324SOL    HW1 1550   7.613   3.244   3.699  1.1339 -0.1091 -0.3584
  324SOL    HW2 1551   7.632   3.123   3.610 -0.1834 -0.5486 -0.0702
  325SOL     OW 1552   5.386   0.943   2.828 -0.1575 -0.0870 -0.4839
  325SOL    HW1 1553   5.365   1.035   2.811  1.3233  0.0759 -1.6285
  325SOL    HW2 1554   5.363   0.898   2.747 -0.3208 -0.6397 -0.1331
  326SOL     OW 1555   3.104   4.318   9.104  0.2060 -0.1356  0.2139
  326SOL    HW1 1556   3.075   4.369   9.180 -0.6915 -0.6176  0.2081
  326SOL    HW2 1557   3.033   4.327   9.041  0.6906 -0.2117 -0.3460
  327SOL     OW 1558   5.803   6.609   3.653 -1.1045 -0.0510  0.2880
  327SOL    HW1 1559   5.841   6.640   3.735 -0.1795  2.7493 -1.0841
  327SOL    HW2 1560   5.874   6.616   3.589 -1.4623 -3.2151 -0.6457
  328SOL     OW 1561   7.063   5.362   2.112 -0.5951  0.5393 -0.5214
  328SOL    HW1 1562   7.102   5.364   2.025  0.5060 -1.2783 -0.1221
  328SOL    HW2 1563   6.992   5.298   2.105  0.0552 -0.2793  0.0942
  329SOL     OW 1564   7.843   5.021   5.937  0.0491  0.3465  0.0923
  329SOL    HW1 1565   7.789   4.982   5.868  1.4463  0.1037 -0.9165
  329SOL    HW2 1566   7.796   5.099   5.964 -0.4839  0.5030 -1.2281
  330SOL     OW 1567   2.214   8.501   8.722  0.1043  0.3052 -0.2762
  330SOL    HW1 1568   2.295   8.461   8.753  0.3959  1.6431  0.7758
  330SOL    HW2 1569   2.239   8.590   8.697 -1.4811  1.7600  2.8062
  331SOL     OW 1570   4.623   1.759   8.623  0.1266  0.2400 -0.0720
  331SOL    HW1 1571   4.626   1.824   8.553 -1.5980 -2.1356 -2.5086
  331SOL    HW2 1572   4.714   1.753   8.653  1.1281  0.7762 -2.6983
  332SOL     OW 1573   6.975   9.827   2.842  0.6811 -0.3729 -0.5753
  332SOL    HW1 1574   6.933   9.856   2.923 -0.3954  3.2428 -2.2194
  332SOL    HW2 1575   6.917   9.758   2.809  1.0919 -1.8615  1.5686
  333SOL     OW 1576   7.758   8.545   7.497 -0.9271  0.1977 -0.1334
  333SOL    HW1 1577   7.706   8.573   7.572 -0.8161 -1.4159  0.5867
  333SOL    HW2 1578   7.750   8.617   7.435  0.7618  2.6157  2.2285
  334SOL     OW 1579   3.364   4.789   6.609  0.5199  0.3005 -0.5279
  334SOL    HW1 1580   3.323   4.713   6.567 -3.2854  1.4359  0.6994
  334SOL    HW2 1581   3.401   4.840   6.537  1.4275 -1.7012 -1.5459
  335SOL     OW 1582   2.101   2.331   9.565  0.1548  0.4095 -0.0505
  335SOL    HW1 1583   2.076   2.241   9.547 -0.3560  0.6555 -0.5926
  335SOL    HW2 1584   2.034   2.384   9.522  0.4505  1.0494  0.2596
  336SOL     OW 1585   9.120   4.875   2.097 -0.1366  0.1807 -0.3893
  336SOL    HW1 1586   9.096   4.927   2.173 -3.3583 -0.1232 -1.0519
  336SOL    HW2 1587   9.102   4.932   2.022 -1.8092 -1.1059 -1.0448
  337SOL     OW 1588   4.215   8.575   6.714  0.5404 -0.6192  0.4123
  337SOL    HW1 1589   4.238   8.561   6.622 -0.7623 -0.3748  0.0301
  337SOL    HW2 1590   4.125   8.606   6.712  0.5615 -0.3999  1.7703
  338SOL     OW 1591   2.285   0.290   8.124  0.1049  0.1775  0.2245
  338SOL    HW1 1592   2.313   0.308   8.214  4.4476  0.0400 -0.8795
  338SOL    HW2 1593   2.283   0.195   8.118  0.1339  0.1866  0.0827
  339SOL     OW 1594   3.938   6.333   3.931  0.0639  0.4973  0.2501
  339SOL    HW1 1595   3.980   6.351   3.847  0.7683 -0.2610  0.4194
  339SOL    HW2 1596   3.987   6.385   3.995 -0.7350  1.3953  0.1456
  340SOL     OW 1597   2.987   2.294   9.859 -0.2224 -0.0632  0.1486
  340SOL    HW1 1598   2.966   2.290   9.766  1.5674 -0.2874 -0.2983
  340SOL    HW2 1599   2.963   2.208   9.894 -0.5399 -0.1101 -0.1886
  341SOL     OW 1600   7.296   0.992   8.524  0.6873  0.0323  0.1817
  341SOL    HW1 1601   7.243   0.913   8.507  1.0733 -0.2685  0.3546
  341SOL    HW2 1602   7.369   0.985   8.462  0.3351  0.6348 -0.3106
  342SOL     OW 1603   8.889   0.310   6.051  0.1907 -0.7911  0.4367
  342SOL    HW1 1604   8.964   0.349   6.097 -0.6638 -0.4753  1.6190
  342SOL    HW2 1605   8.928   0.247   5.991  1.6074  1.4840 -1.1786
  343SOL     OW 1606   5.575   1.206   3.178  0.3497  0.0867 -0.2417
  343SOL    HW1 1607   5.628   1.129   3.155  0.2976 -0.0689  0.1378
  343SOL    HW2 1608   5.493   1.194   3.130  1.1600  1.0378 -1.9476
  344SOL     OW 1609   3.730   3.242   6.113  0.3602 -0.1998 -0.3865
  344SOL    HW1 1610   3.704   3.151   6.129  0.3555 -0.6243 -2.5393
  344SOL    HW2 1611   3.650   3.284   6.080  0.3125  0.6660  0.7793
  345SOL     OW 1612   2.600   4.740   8.060  0.2060 -0.3933 -0.0382
  345SOL    HW1 1613   2.674   4.679   8.053  0.4880 -0.0000 -0.5199
  345SOL    HW2 1614   2.626   4.800   8.130  0.0668 -0.6254  0.2170
  346SOL     OW 1615   8.011   0.816   6.302  0.4137 -0.0001 -0.2648
  346SOL    HW1 1616   7.988   0.907   6.316 -0.7731 -0.3748  0.3833
  346SOL    HW2 1617   7.950   0.767   6.357  0.6232 -1.2102 -1.0660
  347SOL     OW 1618   6.148   7.323   7.879  0.2699  0.1740  0.2289
  347SOL    HW1 1619   6.110   7.385   7.817  1.1591 -0.1352 -0.6579
  347SOL    HW2 1620   6.084   7.252   7.884 -0.1033  0.4994  0.1614
  348SOL     OW 1621   9.110   7.381   5.188 -0.5246 -0.4025 -0.0853
  348SOL    HW1 1622   9.188   7.376   5.243 -0.7757  0.0145  0.3157
  348SOL    HW2 1623   9.136   7.340   5.106 -0.6491 -2.6179  0.9020
  349SOL     OW 1624   8.918   4.988   3.270 -0.2528 -0.5014  0.3615
  349SOL    HW1 1625   8.883   4.899   3.266  0.5622 -0.8378  0.5241
  349SOL    HW2 1626   8.901   5.016   3.360 -1.5882 -0.0222 -0.0079
  350SOL     OW 1627   8.174   9.674   3.484 -0.0048 -0.0194  0.1184
  350SOL    HW1 1628   8.139   9.735   3.419  0.0021 -0.5096 -0.3521
  350SOL    HW2 1629   8.208   9.601   3.432  0.7503 -0.0399  0.6239
  351SOL     OW 1630   7.117   5.294   6.374 -0.8152  0.4447  0.1036
  351SOL    HW1 1631   7.061   5.232   6.327  0.8717  0.6479 -2.3409
  351SOL    HW2 1632   7.117   5.373   6.320  0.6410  0.9697  0.8065
  352SOL     OW 1633   5.274   5.682   8.116  0.2245  0.2263  0.2920
  352SOL    HW1 1634   5.332   5.751   8.149  1.0480  0.4978 -1.6320
  352SOL    HW2 1635   5.196   5.688   8.172 -0.1713  3.3982 -0.4182
  353SOL     OW 1636   0.111   2.739   7.469  0.3620  0.0755  0.2399
  353SOL    HW1 1637   0.175   2.780   7.411  1.7402 -0.2081  1.4957
  353SOL    HW2 1638   0.118   2.645   7.451 -2.1769  0.2101 -2.0162
  354SOL     OW 1639   5.422   0.881   7.768 -0.9228 -0.0116 -1.0228
  354SOL    HW1 1640   5.401   0.811   7.829 -0.3422 -1.1019 -2.0201
  354SOL    HW2 1641   5.342   0.933   7.761 -0.8300  0.4881  1.0653
  355SOL     OW 1642   4.792   5.093   2.278 -0.7864 -0.0755  0.0966
  355SOL    HW1 1643   4.837   5.009   2.275  0.5812  0.6623 -1.6882
  355SOL    HW2 1644   4.800   5.122   2.369 -0.5283 -1.4680  0.5358
  356SOL     OW 1645   6.537   7.595   5.665 -0.1704 -0.3553  0.4425
  356SOL    HW1 1646   6.487   7.549   5.733  1.1990 -0.1818  1.6160
  356SOL    HW2 1647   6.521   7.688   5.682  0.1494 -0.3116  0.4997
  357SOL     OW 1648   5.239   0.688   3.818  0.4427 -0.1365  0.2548
  357SOL    HW1 1649   5.207   0.633   3.746 -0.6351  0.0327  0.5804
  357SOL    HW2 1650   5.236   0.630   3.894 -1.3131  0.5054  0.7264
  358SOL     OW 1651   9.385   0.661   7.718 -0.3335  0.5302 -0.1738
  358SOL    HW1 1652   9.442   0.684   7.644 -0.8514  2.2967 -0.0826
  358SOL    HW2 1653   9.441   0.611   7.777  0.4089  0.0677 -1.2366
  359SOL     OW 1654   7.167   8.074   6.459  0.2760 -1.0246 -0.2773
  359SOL    HW1 1655   7.200   8.157   6.425  0.8964 -0.9174  0.5669
  359SOL    HW2 1656   7.180   8.079   6.553 -1.9190 -1.0786  0.0923
  360SOL     OW 1657   6.618   3.366   3.623  0.6069  0.3339  0.3011
  360SOL    HW1 1658   6.600   3.412   3.704 -0.5780  0.4485 -0.0006
  360SOL    HW2 1659   6.531   3.343   3.589  0.9313  2.2026 -2.0432
  361SOL     OW 1660   9.822   9.510   9.840 -0.0957 -0.3483 -0.2132
  361SOL    HW1 1661   9.777   9.496   9.923 -0.1029  2.8257  0.4369
  361SOL    HW2 1662   9.760   9.481   9.774 -1.1620 -0.4717  0.8166
  362SOL     OW 1663   9.393   1.461   4.595 -0.2192  0.0238  0.1698
  362SOL    HW1 1664   9.305   1.474   4.631  0.0355  0.5106  0.6232
  362SOL    HW2 1665   9.403   1.366   4.592  0.0786 -0.0454  2.2293
  363SOL     OW 1666   8.133   2.176   6.208  0.0161 -0.5283 -0.1239
  363SOL    HW1 1667   8.184   2.158   6.287  1.0739 -1.7274 -1.0361
  363SOL    HW2 1668   8.124   2.271   6.206  0.5869 -0.4291  1.0573
  364SOL     OW 1669   9.758   8.207   1.848 -0.1040 -0.3698  0.6626
  364SOL    HW1 1670   9.665   8.216   1.866  0.0610  0.1227  1.3294
  364SOL    HW2 1671   9.800   8.224   1.932  0.5638 -1.1595  0.5048
  365SOL     OW 1672   7.360   8.879   7.424  0.0125  0.4889 -0.1839
  365SOL    HW1 1673   7.357   8.822   7.501 -0.3591  0.9009  0.1101
  365SOL    HW2 1674   7.292   8.944   7.439  0.8156  1.3655 -0.2475
  366SOL     OW 1675   3.141   2.451   4.533  0.0192  0.0856  0.3241
  366SOL    HW1 1676   3.067   2.439   4.474 -0.1196 -0.7816  0.6552
  366SOL    HW2 1677   3.213   2.405   4.490  0.4862  1.2635 -0.1922
  367SOL     OW 1678   6.789   2.840   0.880 -0.0433 -0.3404 -0.0411
  367SOL    HW1 1679   6.861   2.887   0.922 -0.3485  2.2155 -2.0961
  367SOL    HW2 1680   6.799   2.860   0.787 -1.9303 -2.0725 -0.6845
  368SOL     OW 1681   6.249   0.191   0.361  0.7025  0.0844 -0.2645
  368SOL    HW1 1682   6.169   0.218   0.404  0.6025  0.2420 -0.5461
  368SOL    HW2 1683   6.319   0.217   0.421  0.5564  0.1243 -0.1109
  369SOL     OW 1684   7.546   7.658   7.306  0.3810  0.7157 -0.6176
  369SOL    HW1 1685   7.474   7.705   7.264  2.8270  3.3879 -2.1832
  369SOL    HW2 1686   7.572   7.715   7.378  0.4939 -0.6117  0.4313
  370SOL     OW 1687   5.790   4.204   5.607 -0.1778  0.5360 -0.5852
  370SOL    HW1 1688   5.872   4.247   5.585  0.4762 -1.2900 -1.9943
  370SOL    HW2 1689   5.737   4.210   5.528 -0.9474  0.6646 -0.0754
  371SOL     OW 1690   3.650   7.230   3.722 -0.2634 -0.5306 -0.0290
  371SOL    HW1 1691   3.686   7.245   3.634 -1.1113 -1.3336 -0.5261
  371SOL    HW2 1692   3.641   7.135   3.728 -0.7793 -0.4403  0.7082
  372SOL     OW 1693   6.767   2.601   4.824  0.9556  0.3092 -0.0558
  372SOL    HW1 1694   6.683   2.639   4.798  0.8214  1.5168  1.9106
  372SOL    HW2 1695   6.818   2.597   4.743  0.0678  2.4064 -0.7921
  373SOL     OW 1696   4.064   9.755   0.615  0.4329 -0.8680  0.3408
  373SOL    HW1 1697   4.095   9.840   0.647 -0.0558 -0.7346  0.4654
  373SOL    HW2 1698   4.131   9.727   0.553  0.3111 -0.1247 -0.1337
  374SOL     OW 1699   3.110   3.286   3.332 -0.0955 -0.4409  0.0905
  374SOL    HW1 1700   3.083   3.258   3.245 -0.4381  0.4623 -0.1019
  374SOL    HW2 1701   3.201   3.258   3.339 -0.6086 -2.2308  0.1938
  375SOL     OW 1702   3.939   1.506   9.488 -0.0996 -0.4685 -0.3958
  375SOL    HW1 1703   3.979   1.419   9.494  0.1661 -0.3172  0.0696
  375SOL    HW2 1704   3.846   1.489   9.472 -0.1960 -0.8483  0.5264
  376SOL     OW 1705   7.181   4.933   7.919  0.1254  0.0021 -0.1456
  376SOL    HW1 1706   7.228   5.014   7.938  0.9639  0.4081 -3.2831
  376SOL    HW2 1707   7.250   4.868   7.906 -0.1910  0.0223 -2.3970
  377SOL     OW 1708   1.157   5.889   5.618 -0.4769  0.3177  0.2240
  377SOL    HW1 1709   1.184   5.954   5.553 -1.4146  1.0990  0.5970
  377SOL    HW2 1710   1.095   5.833   5.571  0.2001 -0.2195 -0.0478
  378SOL     OW 1711   2.558   8.519   9.263  0.5367  0.7300  0.0323
  378SOL    HW1 1712   2.514   8.586   9.212  1.8190  3.9841  2.8356
  378SOL    HW2 1713   2.537   8.539   9.354  2.1345 -1.8444  1.0932
  379SOL     OW 1714   2.203   1.148   5.425  0.6476  0.2855 -0.4369
  379SOL    HW1 1715   2.213   1.178   5.515  0.4464 -0.9490  0.0115
  379SOL    HW2 1716   2.245   1.062   5.423 -0.2567 -0.1618 -1.2582
  380SOL     OW 1717   9.902   7.448   3.516 -0.3472  0.4776 -0.0439
  380SOL    HW1 1718   9.962   7.522   3.518  0.5465 -0.2385  0.5377
  380SOL    HW2 1719   9.818   7.484   3.544 -0.5554  1.7771 -2.1383
  381SOL     OW 1720   0.773   1.150   3.725 -0.0054 -0.3934  0.2470
  381SOL    HW1 1721   0.710   1.178   3.792 -0.2541  0.0832 -0.1762
  381SOL    HW2 1722   0.774   1.055   3.731 -0.0928 -0.3610  0.8672
  382SOL     OW 1723   3.573   6.208   6.294 -0.1538 -0.1312 -0.4429
  382SOL    HW1 1724   3.605   6.291   6.260  1.3016 -0.5866 -0.2747
  382SOL    HW2 1725   3.650   6.168   6.335 -0.8764 -1.4460 -0.3122
  383SOL     OW 1726   6.504   5.552   4.158  0.3316  0.6673 -0.2905
  383SOL    HW1 1727   6.498   5.603   4.077 -2.1905 -1.3589 -1.5369
  383SOL    HW2 1728   6.414   5.523   4.174  0.7893  0.7915  3.1754
  384SOL     OW 1729   3.202   3.393   9.317 -0.2325 -0.0532  0.0697
  384SOL    HW1 1730   3.154   3.446   9.253  1.4529  1.6712  0.1577
  384SOL    HW2 1731   3.294   3.400   9.290  0.4624  0.2444  2.3420
  385SOL     OW 1732   0.643   2.160   0.323  0.1152  0.3049 -0.0304
  385SOL    HW1 1733   0.633   2.070   0.292  2.7800 -0.4427  0.9154
  385SOL    HW2 1734   0.730   2.160   0.365 -0.3305  3.0159  1.0629
  386SOL     OW 1735   8.261   9.914   9.878  0.0754 -0.0909 -0.1147
  386SOL    HW1 1736   8.169   9.936   9.863 -0.2252 -0.9778  0.3317
  386SOL    HW2 1737   8.284   9.959   9.959  0.9139  2.4915 -1.6602
  387SOL     OW 1738   5.254   8.323   8.614 -0.2278 -0.4646  0.6358
  387SOL    HW1 1739   5.259   8.329   8.709 -1.6270 -1.9070  0.8442
  387SOL    HW2 1740   5.225   8.410   8.586  2.6249  0.7877  1.2378
  388SOL     OW 1741   9.261   6.714   9.427  0.5903 -0.0372  0.1342
  388SOL    HW1 1742   9.321   6.676   9.490 -0.3385 -0.5170  0.7608
  388SOL    HW2 1743   9.312   6.726   9.348  0.9934 -2.3346  0.0037
  389SOL     OW 1744   6.607   8.364   5.988 -0.2374  0.3802  0.4785
  389SOL    HW1 1745   6.655   8.327   6.062 -0.3804 -1.8640 -0.4913
  389SOL    HW2 1746   6.515   8.361   6.015 -0.3907 -1.4130 -0.1342
  390SOL     OW 1747   0.736   9.502   2.874 -0.1529 -0.3635  0.4395
  390SOL    HW1 1748   0.797   9.510   2.801 -0.4930 -3.7829 -0.3834
  390SOL    HW2 1749   0.664   9.450   2.840 -1.5229 -0.0036  2.5826
  391SOL     OW 1750   1.716   3.049   9.838 -0.4898 -0.2380  0.0619
  391SOL    HW1 1751   1.732   3.055   9.932 -1.4240  0.2351  0.2031
  391SOL    HW2 1752   1.681   3.135   9.815  0.2595 -0.1512 -0.8332
  392SOL     OW 1753   9.060   0.980   2.910 -0.4790  0.3333 -0.8235
  392SOL    HW1 1754   9.047   0.890   2.937  0.2704 -0.3224 -2.5003
  392SOL    HW2 1755   9.065   1.030   2.992  0.2130 -1.2999  0.1619
  393SOL     OW 1756   0.043   8.424   6.762  0.2959 -0.0212  0.0583
  393SOL    HW1 1757   0.071   8.511   6.790  4.7025 -1.2735  0.3299
  393SOL    HW2 1758   0.024   8.433   6.669  0.3458  1.3057  0.1600
  394SOL     OW 1759   1.364   4.151   8.544 -0.2879 -0.6324  0.3608
  394SOL    HW1 1760   1.306   4.082   8.511  0.7678 -0.5304 -1.8291
  394SOL    HW2 1761   1.451   4.112   8.545  0.4318  0.8003 -1.5123
  395SOL     OW 1762   1.198   9.280   8.440 -0.1569 -0.2722 -0.4341
  395SOL    HW1 1763   1.105   9.258   8.438 -0.7633  2.0156  0.4614
  395SOL    HW2 1764   1.221   9.294   8.349 -1.7273  2.9239 -0.4650
  396SOL     OW 1765   2.894   5.283   7.767  0.0776  0.4025 -0.3190
  396SOL    HW1 1766   2.843   5.293   7.847  1.8039  2.6238  0.6083
  396SOL    HW2 1767   2.933   5.369   7.752  3.3506 -1.0566 -1.0738
  397SOL     OW 1768   1.605   2.812   0.504 -0.3635 -0.8285  0.5117
  397SOL    HW1 1769   1.542   2.818   0.432 -1.0850  2.0092  1.2585
  397SOL    HW2 1770   1.550   2.807   0.583  0.4115 -2.8048  0.9942
  398SOL     OW 1771   3.655   4.441   6.848  0.3227  0.3605  0.1035
  398SOL    HW1 1772   3.712   4.411   6.778 -1.3018  1.0409 -1.5879
  398SOL    HW2 1773   3.639   4.533   6.830 -1.4389  0.1582  0.3866
  399SOL     OW 1774   6.102   9.781   4.109 -0.4936 -0.2874  0.7886
  399SOL    HW1 1775   6.101   9.779   4.013 -2.0510  2.0563  0.6911
  399SOL    HW2 1776   6.061   9.698   4.134 -1.6009 -0.2107 -0.6212
  400SOL     OW 1777   3.318   6.110   2.057  0.1696  0.2397  0.5542
  400SOL    HW1 1778   3.410   6.131   2.037  0.1996 -0.8458 -0.5158
  400SOL    HW2 1779   3.310   6.016   2.041 -0.9732  0.1851  1.3116
  401SOL     OW 1780   4.874   2.797   5.839  0.0844 -0.3292 -0.2274
  401SOL    HW1 1781   4.931   2.850   5.783  1.5241  0.2929  1.7208
  401SOL    HW2 1782   4.925   2.783   5.919 -2.4775  0.2567  1.6390
  402SOL     OW 1783   9.637   4.933   8.698 -0.0393  0.2489  0.1909
  402SOL    HW1 1784   9.687   4.852   8.700 -0.3573  0.0165 -0.6549
  402SOL    HW2 1785   9.624   4.956   8.790 -0.7762 -1.1853  0.4820
  403SOL     OW 1786   2.045   4.064   4.272 -0.5012 -0.3795  0.1399
  403SOL    HW1 1787   2.023   4.002   4.341 -1.6867  1.0248  1.1049
  403SOL    HW2 1788   1.986   4.043   4.200 -0.3095 -0.9013  0.1346
  404SOL     OW 1789   3.796   1.023   5.551 -1.0244  0.2907 -0.3786
  404SOL    HW1 1790   3.809   1.005   5.644 -1.3263 -1.1814 -0.5947
  404SOL    HW2 1791   3.819   0.941   5.508 -0.9030  0.9523 -1.6145
  405SOL     OW 1792   0.988   5.715   9.704 -0.0884 -0.0490  0.3835
  405SOL    HW1 1793   0.914   5.772   9.681 -0.6308 -0.9350 -0.0957
  405SOL    HW2 1794   1.060   5.776   9.718 -0.4345  0.7180 -0.9792
  406SOL     OW 1795   2.890   6.074   2.346 -0.9207  0.1911 -0.3384
  406SOL    HW1 1796   2.950   6.001   2.332  1.3521  1.0283  3.5522
  406SOL    HW2 1797   2.937   6.151   2.312 -0.5475  0.5692  0.9459
  407SOL     OW 1798   5.692   6.349   2.311  0.1991  0.0548 -1.1972
  407SOL    HW1 1799   5.644   6.344   2.228 -1.4222  0.7141 -0.3470
  407SOL    HW2 1800   5.708   6.258   2.336 -2.4596 -0.3178 -0.5312
  408SOL     OW 1801   3.855   2.032   0.444 -0.0707 -0.3675 -0.1195
  408SOL    HW1 1802   3.841   1.992   0.530  0.2366  1.8397  1.0316
  408SOL    HW2 1803   3.950   2.038   0.436 -0.0847 -0.8831 -0.8064
  409SOL     OW 1804   6.992   4.131   0.109 -0.0128 -0.4849  0.0894
  409SOL    HW1 1805   6.899   4.147   0.128 -0.3143 -1.5629 -0.4005
  409SOL    HW2 1806   7.022   4.213   0.069 -1.3978 -0.9284 -2.0003
  410SOL     OW 1807   5.978   7.970   1.430 -0.0909 -0.1153  0.4076
  410SOL    HW1 1808   6.017   7.889   1.397 -0.4002  0.0097 -0.2745
  410SOL    HW2 1809   5.911   7.993   1.366 -1.2649 -0.2867  1.5280
  411SOL     OW 1810   0.492   3.261   7.291 -0.1022 -0.4503 -0.1214
  411SOL    HW1 1811   0.470   3.217   7.373  0.7446  0.1253  0.4477
  411SOL    HW2 1812   0.409   3.277   7.248 -0.4817 -1.7432  0.1066
  412SOL     OW 1813   9.543   7.995   1.113  0.6357 -0.7116  0.4128
  412SOL    HW1 1814   9.489   8.073   1.123 -0.3375 -0.9378 -2.3449
  412SOL    HW2 1815   9.486   7.923   1.138  0.3677 -0.7879 -0.4057
  413SOL     OW 1816   6.528   7.032   9.949 -0.2514  0.0492 -0.3638
  413SOL    HW1 1817   6.448   7.072   9.985  0.5537  0.6451  0.8254
  413SOL    HW2 1818   6.598   7.091   9.974  0.9535 -1.9034  1.1947
  414SOL     OW 1819   5.428   7.079   9.821  0.2960  0.0243 -0.4854
  414SOL    HW1 1820   5.491   7.150   9.840  0.7859 -0.6962  0.7241
  414SOL    HW2 1821   5.343   7.123   9.817  0.2467  0.4424  2.6547
  415SOL     OW 1822   5.107   4.121   2.233 -0.1140  0.1240  0.0267
  415SOL    HW1 1823   5.151   4.205   2.224  0.5058 -0.1108  0.7734
  415SOL    HW2 1824   5.176   4.056   2.219 -0.7966 -0.2919 -1.6290
  416SOL     OW 1825   3.392   7.890   8.866 -0.0318 -0.0871  0.5712
  416SOL    HW1 1826   3.404   7.887   8.771 -0.1188  0.4894  0.5387
  416SOL    HW2 1827   3.319   7.951   8.879 -1.0193 -1.3112  0.9321
  417SOL     OW 1828   8.545   7.591   2.193 -0.0997  0.3916  0.3098
  417SOL    HW1 1829   8.604   7.569   2.265  0.0467 -0.1170  0.0366
  417SOL    HW2 1830   8.559   7.522   2.128  2.3057  2.6267 -1.7812
  418SOL     OW 1831   0.881   4.138   2.604  0.0090 -0.2698  0.2281
  418SOL    HW1 1832   0.876   4.094   2.519 -0.0108 -0.5970  0.3968
  418SOL    HW2 1833   0.821   4.089   2.660 -1.6341  1.2238 -0.1185
  419SOL     OW 1834   0.956   9.909   6.741 -0.1832 -0.0955 -0.1669
  419SOL    HW1 1835   0.945  10.004   6.733  0.8471  0.0151 -0.4736
  419SOL    HW2 1836   1.014   9.886   6.668  2.9227 -0.3342  2.1959
  420SOL     OW 1837   0.413   2.175   1.510  0.4316  0.2974  0.0761
  420SOL    HW1 1838   0.494   2.222   1.492 -0.3364  1.6564  0.0430
  420SOL    HW2 1839   0.356   2.239   1.553 -1.2618 -0.0553 -1.4897
  421SOL     OW 1840   0.514   2.428   5.648  0.2608 -0.2016  0.7376
  421SOL    HW1 1841   0.458   2.377   5.706  1.0741 -0.1728  1.5725
  421SOL    HW2 1842   0.474   2.419   5.561 -1.2782  0.2053  1.3791
  422SOL     OW 1843   4.899   8.573   5.073 -0.2592 -0.2461 -0.6877
  422SOL    HW1 1844   4.826   8.549   5.016 -1.7215  2.7259 -0.2708
  422SOL    HW2 1845   4.857   8.596   5.156  0.8020  3.4198 -1.0062
  423SOL     OW 1846   5.962   0.996   6.209  0.1281  0.7515  0.1069
  423SOL    HW1 1847   5.867   0.999   6.209  0.0910 -0.1165  0.8001
  423SOL    HW2 1848   5.989   1.088   6.213 -0.6574  1.0364 -0.9100
  424SOL     OW 1849   9.516   0.080   7.269  0.2489  0.3343 -0.2048
  424SOL    HW1 1850   9.542   0.062   7.178 -1.2094  0.6171 -0.7032
  424SOL    HW2 1851   9.464   0.004   7.295  0.3617  0.4195  0.2764
  425SOL     OW 1852   3.936   3.965   5.274  0.3850 -0.2657  0.3138
  425SOL    HW1 1853   3.946   4.057   5.297  2.3763  0.2381 -2.1015
  425SOL    HW2 1854   4.020   3.925   5.296  0.8191 -0.6594 -1.7716
  426SOL     OW 1855   4.282   7.966   4.797  0.0032 -0.1184 -0.4985
  426SOL    HW1 1856   4.310   7.983   4.887  1.1887 -1.4766 -0.5652
  426SOL    HW2 1857   4.189   7.985   4.796  0.1015  0.5156  0.8634
  427SOL     OW 1858   2.289   1.066   3.910  0.4466  0.0038  0.7975
  427SOL    HW1 1859   2.375   1.100   3.934  0.1122  0.8669  0.8213
  427SOL    HW2 1860   2.276   1.094   3.819 -0.2844  0.8939  1.1586
  428SOL     OW 1861   0.938   8.476   2.857  0.2768  0.1100  0.0955
  428SOL    HW1 1862   0.920   8.410   2.790  1.1083 -0.1255  0.0878
  428SOL    HW2 1863   0.974   8.550   2.809 -1.9587  1.1765 -0.0779
  429SOL     OW 1864   3.675   9.744   5.897  0.1629  0.0266 -0.0292
  429SOL    HW1 1865   3.674   9.650   5.880  1.4592 -0.2855  1.3686
  429SOL    HW2 1866   3.739   9.779   5.835  2.0739 -0.5418  1.5111
  430SOL     OW 1867   4.772   8.974   9.524  0.7886  0.1823 -0.3975
  430SOL    HW1 1868   4.744   8.969   9.433  0.2642  2.3011 -0.4118
  430SOL    HW2 1869   4.867   8.986   9.520  0.9351 -0.9807 -0.5959
  431SOL     OW 1870   6.698   8.809   6.076  0.8299  0.2061  0.4824
  431SOL    HW1 1871   6.736   8.734   6.029 -0.3954 -0.7181  0.9132
  431SOL    HW2 1872   6.683   8.776   6.165  0.8396  1.1679  0.8479
  432SOL     OW 1873   8.211   3.152   0.248 -0.0030 -0.5920  0.2081
  432SOL    HW1 1874   8.275   3.087   0.217 -0.7988 -1.1341 -0.3432
  432SOL    HW2 1875   8.135   3.139   0.191 -0.6561 -0.0504  0.9459
  433SOL     OW 1876   6.891   9.184   4.206 -0.0993 -0.1210  0.1409
  433SOL    HW1 1877   6.893   9.101   4.253 -0.0083 -0.6281 -0.7283
  433SOL    HW2 1878   6.979   9.219   4.213 -0.2163  0.0639  0.7719
  434SOL     OW 1879   0.039   5.289   4.558 -0.0690  0.6213 -0.4528
  434SOL    HW1 1880   0.001   5.236   4.628 -0.0262 -0.6113 -1.3342
  434SOL    HW2 1881  -0.001   5.255   4.478  0.4173  1.5275 -1.0983
  435SOL     OW 1882   6.569   2.748   7.523 -0.0391 -0.0740  0.6038
  435SOL    HW1 1883   6.593   2.701   7.603  0.2021 -0.2917  0.4087
  435SOL    HW2 1884   6.640   2.810   7.509  0.1206 -0.3129  0.3430
  436SOL     OW 1885   6.758   8.841   0.554 -0.3073 -0.7147 -0.2090
  436SOL    HW1 1886   6.741   8.934   0.571  0.6963 -0.8218  1.5380
  436SOL    HW2 1887   6.787   8.838   0.463  1.4010  0.9384  0.2345
  437SOL     OW 1888   4.480   1.560   8.157 -0.5741  0.0672  0.3986
  437SOL    HW1 1889   4.451   1.628   8.097  1.0443 -0.3281 -0.8924
  437SOL    HW2 1890   4.544   1.602   8.213  0.6333 -0.4044 -0.5803
  438SOL     OW 1891   0.246   1.905   5.908 -0.3129 -0.3176 -0.0864
  438SOL    HW1 1892   0.272   1.814   5.898 -0.2242 -0.4963  1.4447
  438SOL    HW2 1893   0.326   1.955   5.889 -0.6467 -0.4564 -2.0494
  439SOL     OW 1894   8.457   3.147   0.702  0.0748 -0.4289  0.4786
  439SOL    HW1 1895   8.541   3.173   0.664 -0.6943  0.3302 -0.7761
  439SOL    HW2 1896   8.451   3.052   0.685  1.4180 -0.8555  2.1313
  440SOL     OW 1897   0.634   7.369   6.757 -0.3803 -0.5599  0.5406
  440SOL    HW1 1898   0.715   7.326   6.729 -0.9094 -0.5617 -1.1303
  440SOL    HW2 1899   0.569   7.340   6.693 -1.1120  1.4848  0.2855
  441SOL     OW 1900   2.413   3.121   8.016 -0.3051  0.0464 -0.0864
  441SOL    HW1 1901   2.394   3.150   7.927  4.1185 -0.9333 -1.6335
  441SOL    HW2 1902   2.374   3.034   8.022 -0.7236  0.1593 -1.0117
  442SOL     OW 1903   8.508   6.248   8.167  0.0881  0.0594 -0.2073
  442SOL    HW1 1904   8.564   6.297   8.107 -0.4497  0.1863 -0.6087
  442SOL    HW2 1905   8.539   6.158   8.160 -0.7617 -0.1521 -1.6257
  443SOL     OW 1906   3.403   1.350   4.761 -0.0782  0.0548  0.4854
  443SOL    HW1 1907   3.352   1.426   4.788  0.8305  0.9710 -0.3302
  443SOL    HW2 1908   3.455   1.328   4.838  0.1082  0.6378  0.5287
  444SOL     OW 1909   1.278   1.260   4.939 -0.0623  0.2671  0.0912
  444SOL    HW1 1910   1.361   1.214   4.950 -0.6906 -0.2520  3.8651
  444SOL    HW2 1911   1.301   1.352   4.947  0.2056  0.1309  1.0480
  445SOL     OW 1912   6.218   9.926   0.641  0.1874  0.1623  0.8749
  445SOL    HW1 1913   6.129   9.907   0.610 -0.1572 -1.7720  2.7592
  445SOL    HW2 1914   6.212  10.011   0.683 -0.2737  0.9383 -0.6864
  446SOL     OW 1915   5.683   2.451   1.347  0.2600  0.0842 -0.5225
  446SOL    HW1 1916   5.644   2.422   1.265 -0.5296  0.5951 -0.3385
  446SOL    HW2 1917   5.613   2.443   1.411  0.4828  0.9065 -0.1613
  447SOL     OW 1918   4.212   5.226   8.374  0.2669 -1.0495 -0.1466
  447SOL    HW1 1919   4.158   5.171   8.431 -2.0491  2.4410  1.3232
  447SOL    HW2 1920   4.273   5.270   8.433  1.1939 -1.0141 -1.0958
  448SOL     OW 1921   7.426   8.681   1.953 -0.2821  0.1903 -0.8245
  448SOL    HW1 1922   7.492   8.742   1.920 -0.3030  0.7494  0.1318
  448SOL    HW2 1923   7.353   8.736   1.980 -0.4237 -0.2755 -0.2187
  449SOL     OW 1924   2.601   5.259   8.590 -0.0987  0.2688 -0.3786
  449SOL    HW1 1925   2.517   5.281   8.631  0.9328  0.2886  1.8863
  449SOL    HW2 1926   2.650   5.341   8.591  0.4514 -0.0587 -0.4023
  450SOL     OW 1927   4.212   3.219   8.990  0.0072 -0.1999 -0.5156
  450SOL    HW1 1928   4.162   3.197   9.069 -2.0748  0.3759 -1.5895
  450SOL    HW2 1929   4.157   3.189   8.918  0.5390  1.6990 -1.7963
  451SOL     OW 1930   9.176   7.795   5.772 -0.0586 -0.0212  0.5056
  451SOL    HW1 1931   9.205   7.885   5.756 -2.0859  0.5014 -0.6092
  451SOL    HW2 1932   9.126   7.771   5.694 -2.6554 -0.7567  2.2434
  452SOL     OW 1933   7.988   0.842   1.926 -0.0705 -0.1770 -0.1046
  452SOL    HW1 1934   7.993   0.810   1.836  0.2486 -0.6877  0.0912
  452SOL    HW2 1935   7.950   0.769   1.976 -0.0539  0.0267  0.2119
  453SOL     OW 1936   1.995   7.259   7.790 -0.2907 -0.2628 -0.5999
  453SOL    HW1 1937   1.994   7.164   7.803  0.9500  0.0849  2.9607
  453SOL    HW2 1938   1.907   7.288   7.815 -1.2693 -0.5152 -3.3803
  454SOL     OW 1939   9.633   4.361   7.344  0.0467  0.0075  0.3395
  454SOL    HW1 1940   9.578   4.426   7.301 -0.6108 -0.1700  0.8853
  454SOL    HW2 1941   9.595   4.277   7.319  1.6659 -0.2697 -1.4261
  455SOL     OW 1942   2.448   3.758   0.024 -0.0431 -0.0968  0.0195
  455SOL    HW1 1943   2.539   3.766  -0.006 -0.1273 -2.1219 -0.9962
  455SOL    HW2 1944   2.455   3.726   0.114  0.2309  0.2641  0.1313
  456SOL     OW 1945   0.579   1.843   4.593  0.4775 -0.6726  0.0005
  456SOL    HW1 1946   0.611   1.926   4.560 -1.5182  0.0835 -0.1946
  456SOL    HW2 1947   0.625   1.830   4.676 -0.5227  1.6098  0.9981
  457SOL     OW 1948   8.370   7.154   3.085  0.0132 -0.0024  0.1592
  457SOL    HW1 1949   8.333   7.127   3.001  0.6926 -1.8439  0.4033
  457SOL    HW2 1950   8.345   7.084   3.146  1.2093  0.2957  1.0199
  458SOL     OW 1951   3.708   3.842   8.749 -0.0151 -0.0077 -0.5192
  458SOL    HW1 1952   3.699   3.889   8.666  0.3306 -0.6666 -0.9365
  458SOL    HW2 1953   3.792   3.798   8.744  0.7879  1.2688  0.8864
  459SOL     OW 1954   8.845   0.482   6.272 -0.2700 -0.2210 -0.2649
  459SOL    HW1 1955   8.827   0.400   6.227  0.2595  0.0171 -0.9270
  459SOL    HW2 1956   8.847   0.548   6.202  0.9034  0.1010  0.0451
  460SOL     OW 1957   8.821   6.388   5.840  0.2972  0.3646 -0.5953
  460SOL    HW1 1958   8.898   6.420   5.793  1.6678 -0.2193  1.1357
  460SOL    HW2 1959   8.847   6.302   5.873 -1.0952  0.1554  0.0201
  461SOL     OW 1960   3.519   7.533   8.798  0.0087  0.0752 -0.2802
  461SOL    HW1 1961   3.478   7.555   8.714  1.8519  1.1073 -0.9850
  461SOL    HW2 1962   3.448   7.536   8.862 -1.6007 -1.5181 -1.8983
  462SOL     OW 1963   3.234   2.678   9.614 -0.1257 -0.0945 -0.1910
  462SOL    HW1 1964   3.203   2.695   9.525 -0.3569 -0.7832 -0.2441
  462SOL    HW2 1965   3.159   2.700   9.669  0.3680  1.4086 -0.0637
  463SOL     OW 1966   2.970   2.798   3.764  0.1127 -0.5770 -0.3317
  463SOL    HW1 1967   2.986   2.739   3.837 -1.3249 -0.2741  0.2520
  463SOL    HW2 1968   2.996   2.748   3.687  0.2735 -1.4339  0.2685
  464SOL     OW 1969   5.103   7.373   4.378  0.2526 -0.0072  0.8438
  464SOL    HW1 1970   5.059   7.417   4.451  0.3212 -1.1423  1.5991
  464SOL    HW2 1971   5.073   7.282   4.384  0.1709 -0.0940 -0.6210
  465SOL     OW 1972   0.313   9.876   9.427 -0.7299  0.2220  0.3938
  465SOL    HW1 1973   0.294   9.836   9.512  2.1705  0.2708  1.1626
  465SOL    HW2 1974   0.306   9.970   9.442 -1.5913  0.1952  0.1901
  466SOL     OW 1975   7.910   6.648   2.430 -0.2326  0.3468 -0.2213
  466SOL    HW1 1976   7.926   6.669   2.338  0.4663 -1.1344 -0.4618
  466SOL    HW2 1977   7.829   6.597   2.429  1.0064 -1.7705 -0.3725
  467SOL     OW 1978   4.863   6.882   0.497  0.0998 -0.3781 -0.0529
  467SOL    HW1 1979   4.843   6.825   0.422 -1.3251  1.3037 -1.0278
  467SOL    HW2 1980   4.958   6.882   0.502  0.1908 -1.3823 -1.1841
  468SOL     OW 1981   2.529   4.898   0.683 -0.2797  0.4685 -0.2658
  468SOL    HW1 1982   2.506   4.986   0.714  1.2722  1.1510 -0.9385
  468SOL    HW2 1983   2.622   4.905   0.659 -0.4427 -1.0247 -1.4684
  469SOL     OW 1984   2.979   8.673   6.333  0.2239  0.6079  0.0540
  469SOL    HW1 1985   2.982   8.583   6.300  0.9095  0.9083 -0.7693
  469SOL    HW2 1986   2.916   8.671   6.405  1.0698 -0.7748  0.8020
  470SOL     OW 1987   0.270   4.003   8.665  0.4280 -0.4014 -0.2534
  470SOL    HW1 1988   0.253   3.914   8.636  2.4603 -0.6138 -0.9325
  470SOL    HW2 1989   0.229   4.058   8.598  0.5739 -0.8583 -0.7263
  471SOL     OW 1990   9.900   1.663   3.220  0.1525  0.5650 -0.2934
  471SOL    HW1 1991   9.912   1.650   3.126 -0.0809  0.9721 -0.3837
  471SOL    HW2 1992   9.809   1.690   3.229 -0.1407 -0.5211  0.1668
  472SOL     OW 1993   7.506   4.508   3.935  0.3421 -0.2296  0.0225
  472SOL    HW1 1994   7.486   4.424   3.975 -0.4067 -0.0650  0.0123
  472SOL    HW2 1995   7.548   4.487   3.852 -2.0575 -0.6578 -1.1516
  473SOL     OW 1996   8.495   8.281   5.327 -0.1994 -0.0323  0.6044
  473SOL    HW1 1997   8.560   8.280   5.398  0.0369 -0.3810  0.3912
  473SOL    HW2 1998   8.423   8.334   5.360  1.2764  2.6616 -0.1154
  474SOL     OW 1999   3.260   9.131   8.325  0.2568 -0.1389 -0.3096
  474SOL    HW1 2000   3.296   9.082   8.399 -2.6594 -1.4001  0.4336
  474SOL    HW2 2001   3.278   9.222   8.346 -0.5974 -0.4416  2.1290
  475SOL     OW 2002   9.444   8.825   1.527 -0.0959  0.4054 -0.4836
  475SOL    HW1 2003   9.364   8.772   1.522  0.2702 -0.2300  0.2725
  475SOL    HW2 2004   9.515   8.761   1.530  0.4037  0.9573 -0.4018
  476SOL     OW 2005   6.557   6.328   5.919 -0.3062  0.2998  0.4522
  476SOL    HW1 2006   6.590   6.342   6.008 -0.7727 -2.3041  1.1303
  476SOL    HW2 2007   6.635   6.301   5.869 -0.1869  0.9913  0.2560
  477SOL     OW 2008   5.953   9.015   3.893 -0.2064 -0.2457 -0.1797
  477SOL    HW1 2009   5.864   9.013   3.856 -1.0503  2.3895  1.4279
  477SOL    HW2 2010   5.975   9.108   3.897  1.9940 -0.7557  0.9554
  478SOL     OW 2011   3.154   4.776   0.962  0.3064 -0.0075 -0.1114
  478SOL    HW1 2012   3.155   4.813   1.050  1.7642 -0.2525  0.0120
  478SOL    HW2 2013   3.234   4.723   0.958  0.2658  0.0014 -1.5691
  479SOL     OW 2014   1.590   0.662   3.670 -0.5223 -0.1306 -0.3386
  479SOL    HW1 2015   1.499   0.633   3.677 -0.6899  0.3873 -0.3074
  479SOL    HW2 2016   1.601   0.725   3.742 -0.8517  1.6011 -1.7289
  480SOL     OW 2017   1.139   8.727   4.764  0.5699 -0.2951  0.3723
  480SOL    HW1 2018   1.122   8.695   4.853 -1.1189 -1.5735 -0.3403
  480SOL    HW2 2019   1.054   8.763   4.735 -0.0348 -3.2450 -1.9859
  481SOL     OW 2020   3.728   7.882   3.975  0.5722 -0.1012  0.2129
  481SOL    HW1 2021   3.792   7.861   3.907 -1.4030 -0.1728 -1.7254
  481SOL    HW2 2022   3.730   7.806   4.034  1.2357 -0.7588 -0.6330
  482SOL     OW 2023   9.140   7.303   4.670  0.5609  0.3030 -0.3423
  482SOL    HW1 2024   9.087   7.383   4.679 -2.4327 -1.3822 -1.5632
  482SOL    HW2 2025   9.178   7.290   4.757 -1.8395  1.1488  0.9251
  483SOL     OW 2026   5.296   3.190   9.636 -0.1648 -0.8521  0.3623
  483SOL    HW1 2027   5.262   3.101   9.630  0.2209 -0.9763 -0.0841
  483SOL    HW2 2028   5.222   3.246   9.612  0.1537 -1.1572 -1.4903
  484SOL     OW 2029   6.569   4.513   5.675 -0.0424 -0.7386 -0.1533
  484SOL    HW1 2030   6.519   4.492   5.596 -0.5964 -1.4234  0.3690
  484SOL    HW2 2031   6.505   4.508   5.746  0.3825  0.1924  0.3059
  485SOL     OW 2032   4.299   9.952   3.267 -0.5827  0.3728  0.2777
  485SOL    HW1 2033   4.393   9.968   3.270 -0.7431  1.5659 -0.2393
  485SOL    HW2 2034   4.290   9.857   3.261  0.5957  0.2788 -0.1959
  486SOL     OW 2035   7.129   4.294   1.982  0.3770 -0.2636  0.7853
  486SOL    HW1 2036   7.123   4.212   1.934  0.7674 -1.0308  2.0235
  486SOL    HW2 2037   7.073   4.282   2.058 -0.7496  1.1816  0.2430
  487SOL     OW 2038   0.123   4.233   6.469 -0.1331 -0.0430  0.1663
  487SOL    HW1 2039   0.052   4.184   6.429 -0.1353 -1.4434  1.7730
  487SOL    HW2 2040   0.086   4.269   6.550  1.2005 -1.8696  1.7077
  488SOL     OW 2041   4.727   9.363   1.316  0.3923 -0.5234 -0.3895
  488SOL    HW1 2042   4.821   9.351   1.332  0.7215  0.3270 -1.5698
  488SOL    HW2 2043   4.712   9.455   1.334  0.2186 -0.1780 -2.1273
  489SOL     OW 2044   7.280   8.761   1.064  0.4908 -0.0982 -0.2176
  489SOL    HW1 2045   7.373   8.759   1.087  0.2441 -0.7419  0.7987
  489SOL    HW2 2046   7.269   8.691   0.999  0.5082 -0.8687  0.5845
  490SOL     OW 2047   5.163   0.794  10.000  0.3257  0.3890  0.2873
  490SOL    HW1 2048   5.178   0.729   9.931  1.3360 -1.4747  2.1291
  490SOL    HW2 2049   5.090   0.847   9.969  0.3168 -0.7975 -1.8809
  491SOL     OW 2050   2.045   3.273   2.102 -0.4636  0.4608 -0.0921
  491SOL    HW1 2051   2.039   3.292   2.196 -1.2794 -0.6089  0.0997
  491SOL    HW2 2052   2.098   3.194   2.098 -2.0576 -0.6449 -0.3412
  492SOL     OW 2053   3.334   4.076   3.501  0.7083  0.3353 -0.4422
  492SOL    HW1 2054   3.419   4.049   3.536  0.0956 -0.8652  0.1862
  492SOL    HW2 2055   3.335   4.047   3.410  0.9446  0.2418 -0.4105
  493SOL     OW 2056   2.198   2.208   7.772 -0.1407 -0.1249  0.0192
  493SOL    HW1 2057   2.234   2.138   7.718  1.7340 -0.2672  1.3557
  493SOL    HW2 2058   2.220   2.183   7.862 -0.6017  1.5039  0.6217
  494SOL     OW 2059   8.684   1.962   4.510 -0.5596 -0.1230 -0.6037
  494SOL    HW1 2060   8.696   1.922   4.596 -0.5249 -0.2820 -0.6821
  494SOL    HW2 2061   8.640   2.045   4.528  2.0966  1.3035 -0.1191
  495SOL     OW 2062   1.597   3.136   6.056  0.3562 -0.0392  0.0988
  495SOL    HW1 2063   1.678   3.142   6.106 -0.4604  3.9779  1.3056
  495SOL    HW2 2064   1.623   3.157   5.966  0.6535  1.8818  0.5931
  496SOL     OW 2065   7.189   5.149   4.333  0.5586 -0.2073 -0.0158
  496SOL    HW1 2066   7.111   5.156   4.277  0.8149  2.0432 -0.1832
  496SOL    HW2 2067   7.202   5.237   4.367  2.7830 -0.6304  0.3713
  497SOL     OW 2068   0.234   3.475   8.213 -0.4510  0.1248 -0.1113
  497SOL    HW1 2069   0.328   3.489   8.218 -0.6336  1.5977 -0.3769
  497SOL    HW2 2070   0.212   3.428   8.294  0.4144  0.2842  0.2258
  498SOL     OW 2071   8.443   9.713   3.017  0.7652  0.0138 -0.4541
  498SOL    HW1 2072   8.449   9.627   2.975 -4.1721 -0.9822  0.3596
  498SOL    HW2 2073   8.426   9.774   2.945  1.0183 -0.1865 -0.6885
  499SOL     OW 2074   3.199   0.995   7.668  0.7037 -0.0167 -0.2142
  499SOL    HW1 2075   3.235   0.919   7.623 -0.2833 -1.0206  0.6520
  499SOL    HW2 2076   3.243   0.995   7.753  0.0050 -0.1851  0.1515
  500SOL     OW 2077   0.807   7.119   9.966  0.3350  0.1768 -0.3186
  500SOL    HW1 2078   0.785   7.038  10.013 -0.8828 -0.6121 -2.1313
  500SOL    HW2 2079   0.729   7.139   9.915  1.2030  1.6078 -1.1419
  501SOL     OW 2080   8.825   6.445   1.390  0.4439  0.4007 -0.0565
  501SOL    HW1 2081   8.818   6.424   1.483 -1.5910  1.3061  0.0521
  501SOL    HW2 2082   8.738   6.425   1.354  1.3748 -0.5861 -1.9278
  502SOL     OW 2083   0.332   1.046   8.355  0.0790  0.2659  0.3386
  502SOL    HW1 2084   0.261   1.010   8.407  0.3864  0.8719  1.1896
  502SOL    HW2 2085   0.408   0.991   8.376  0.6063  1.4899  1.8148
  503SOL     OW 2086   7.885   8.940   9.625 -0.2423 -0.0595  0.0636
  503SOL    HW1 2087   7.901   9.033   9.614  2.3444 -0.5825 -1.2028
  503SOL    HW2 2088   7.903   8.923   9.717  2.6595  0.1963 -0.3587
  504SOL     OW 2089   6.602   9.834   5.580 -0.5442  0.1622  0.9166
  504SOL    HW1 2090   6.622   9.747   5.615 -0.5087 -0.8287 -1.3686
  504SOL    HW2 2091   6.528   9.819   5.521  0.2745  1.4051 -0.5053
  505SOL     OW 2092   3.381   3.584   0.086 -0.8020  0.2353  0.0414
  505SOL    HW1 2093   3.378   3.488   0.087  0.1050  0.1939  0.3383
  505SOL    HW2 2094   3.324   3.609   0.014 -0.6125 -0.5563 -0.4070
  506SOL     OW 2095   0.601   2.788   0.774  0.2104  0.4997  0.1298
  506SOL    HW1 2096   0.656   2.763   0.847 -1.0569 -0.4384  0.8033
  506SOL    HW2 2097   0.612   2.883   0.767 -0.2947  0.7424  2.1181
  507SOL     OW 2098   4.787   0.366   3.908 -0.2577 -0.5519 -0.0160
  507SOL    HW1 2099   4.767   0.386   4.000 -2.8128 -0.7053 -0.4593
  507SOL    HW2 2100   4.702   0.370   3.864  1.0840  1.1366 -2.7207
  508SOL     OW 2101   7.173   3.953   3.512 -0.2632 -0.2197  0.1160
  508SOL    HW1 2102   7.261   3.976   3.540 -0.4190  3.4655 -1.7525
  508SOL    HW2 2103   7.120   3.958   3.591  0.8986 -0.6467  0.9420
  509SOL     OW 2104   4.793   0.344   6.707 -0.4996  0.0977 -0.1136
  509SOL    HW1 2105   4.820   0.288   6.635 -0.7924 -1.1912  0.7310
  509SOL    HW2 2106   4.800   0.433   6.673  2.4963 -0.2689 -0.6932
  510SOL     OW 2107   4.360   6.920   7.422 -0.5721  0.2771  0.2360
  510SOL    HW1 2108   4.413   6.871   7.359 -0.2119 -0.4130  1.0673
  510SOL    HW2 2109   4.386   7.012   7.407 -0.1224  0.0760 -0.2738
  511SOL     OW 2110   0.438   7.703   1.257 -0.1427  0.5038 -0.6282
  511SOL    HW1 2111   0.462   7.780   1.309 -0.6372 -0.3540  0.9217
  511SOL    HW2 2112   0.506   7.639   1.277 -1.9461 -0.8996  1.4381
  512SOL     OW 2113   5.942   2.104   8.554  0.1631  0.1854  0.3733
  512SOL    HW1 2114   6.023   2.153   8.538 -0.5426  1.5214  0.7315
  512SOL    HW2 2115   5.900   2.151   8.626  0.0911 -1.7661  1.6698
  513SOL     OW 2116   7.158   4.584   5.153 -0.0184 -0.4866  0.2768
  513SOL    HW1 2117   7.100   4.510   5.172  1.2591 -1.2747  1.2302
  513SOL    HW2 2118   7.100   4.660   5.158 -1.1889 -1.3262  0.1196
  514SOL     OW 2119   9.908   5.907   7.874 -0.2746 -0.6500 -0.3815
  514SOL    HW1 2120   9.823   5.902   7.831 -0.3808 -0.9649 -0.1356
  514SOL    HW2 2121   9.950   5.823   7.856 -0.0371 -0.5171 -0.4565
  515SOL     OW 2122   0.228   9.862   2.845 -0.4582  0.4580 -0.0326
  515SOL    HW1 2123   0.277   9.802   2.788  0.7118 -0.7186  2.0930
  515SOL    HW2 2124   0.170   9.805   2.895  0.3169  1.1168  1.6855
  516SOL     OW 2125   6.317   7.890   9.556 -0.0699  0.5909  0.1734
  516SOL    HW1 2126   6.280   7.908   9.470  0.4961 -0.4471 -0.2981
  516SOL    HW2 2127   6.403   7.931   9.554  0.9383 -1.4710 -0.6531
  517SOL     OW 2128   8.669   5.900   3.273 -0.5504  0.4821 -0.0420
  517SOL    HW1 2129   8.617   5.979   3.287 -0.8966  0.5603 -1.6306
  517SOL    HW2 2130   8.696   5.905   3.181  1.6821  0.0865  0.5321
  518SOL     OW 2131   0.749   4.858   5.005 -0.0456  0.4599  0.1254
  518SOL    HW1 2132   0.661   4.843   5.040  0.5117 -0.3076  1.2871
  518SOL    HW2 2133   0.777   4.772   4.973  0.0670  0.8224 -0.7719
  519SOL     OW 2134   2.507   3.128   1.943  0.0128  0.2720 -0.0829
  519SOL    HW1 2135   2.581   3.118   1.882 -0.4970  0.7201 -0.7997
  519SOL    HW2 2136   2.524   3.065   2.012  1.1095  0.4152 -0.1960
  520SOL     OW 2137   1.968   0.555   3.185  0.0973  0.1520  0.0988
  520SOL    HW1 2138   1.897   0.531   3.245 -1.1570 -2.2849 -2.1528
  520SOL    HW2 2139   1.938   0.636   3.144 -1.5712 -0.9488 -0.9782
  521SOL     OW 2140   8.094   8.082   7.501  0.4155 -0.6615 -0.4757
  521SOL    HW1 2141   8.097   8.025   7.425 -0.0607  0.2544 -1.2031
  521SOL    HW2 2142   8.114   8.169   7.466 -0.4889 -0.1159  0.3182
  522SOL     OW 2143   8.024   4.864   7.620 -0.1796 -0.0788 -0.6430
  522SOL    HW1 2144   7.990   4.779   7.647  1.6478 -1.3901 -2.1852
  522SOL    HW2 2145   8.103   4.876   7.673 -0.5362  0.7825 -0.2888
  523SOL     OW 2146   1.140   6.542   8.526  0.0505  0.4217 -0.4819
  523SOL    HW1 2147   1.126   6.585   8.611  0.7803 -1.5385  0.6894
  523SOL    HW2 2148   1.091   6.596   8.464 -1.8600  1.0274  1.4198
  524SOL     OW 2149   6.080   4.764   2.096 -0.1884  0.0917 -0.2087
  524SOL    HW1 2150   6.087   4.669   2.100 -1.3282 -0.0267 -0.5683
  524SOL    HW2 2151   6.037   4.788   2.178  1.0018  0.4103  0.3376
  525SOL     OW 2152   7.982   0.243   3.216  0.2361 -0.0028 -0.3262
  525SOL    HW1 2153   7.929   0.309   3.172  1.0731  0.3727 -0.7878
  525SOL    HW2 2154   7.919   0.193   3.269 -0.5490  0.5181 -0.7508
  526SOL     OW 2155   6.037   7.079   8.156  0.1950 -0.5961 -0.3306
  526SOL    HW1 2156   5.997   7.033   8.229  0.0658 -0.6254 -0.4206
  526SOL    HW2 2157   6.131   7.078   8.175  0.3185 -1.8660 -0.8797
  527SOL     OW 2158   4.195   7.576   2.351  0.0997  0.3038 -0.4063
  527SOL    HW1 2159   4.285   7.567   2.320 -0.3224  0.6404 -1.8136
  527SOL    HW2 2160   4.145   7.517   2.295 -0.3380 -1.3447  1.6051
  528SOL     OW 2161   7.603   3.696   9.180 -0.1347  0.2141  0.2937
  528SOL    HW1 2162   7.612   3.713   9.273 -0.0358 -0.2696  0.3714
  528SOL    HW2 2163   7.653   3.767   9.138 -1.4659  1.3646  0.5530
  529SOL     OW 2164   1.090   6.816   9.231 -0.6151 -0.4037 -0.1606
  529SOL    HW1 2165   1.079   6.798   9.324  0.1608  0.9252  0.2070
  529SOL    HW2 2166   1.184   6.810   9.216 -0.6240  0.4853 -0.6206
  530SOL     OW 2167   6.828   3.343   2.351 -0.5496 -0.5259  0.2982
  530SOL    HW1 2168   6.846   3.302   2.267  0.5042 -0.5401  0.5185
  530SOL    HW2 2169   6.870   3.429   2.346 -0.4630 -0.5337  0.8150
  531SOL     OW 2170   2.518   9.025   3.334 -0.1899  0.3697  0.2514
  531SOL    HW1 2171   2.591   9.087   3.340  1.1834 -1.0739 -0.6226
  531SOL    HW2 2172   2.469   9.052   3.257  0.4593  0.3345 -0.1843
  532SOL     OW 2173   2.149   2.575   2.816 -0.0730  0.1921  0.2963
  532SOL    HW1 2174   2.063   2.606   2.846 -0.8566 -0.9655 -0.6864
  532SOL    HW2 2175   2.151   2.483   2.840  1.8742  0.6855  2.3960
  533SOL     OW 2176   9.342   2.391   9.083 -0.1231 -0.4069 -0.1424
  533SOL    HW1 2177   9.418   2.437   9.047  0.1840  0.7075  1.8265
  533SOL    HW2 2178   9.268   2.449   9.063 -0.0264 -0.0439  0.5367
  534SOL     OW 2179   1.106   5.172   7.876 -0.0747 -0.8364 -0.0858
  534SOL    HW1 2180   1.039   5.239   7.891  0.2933 -0.9499  2.4333
  534SOL    HW2 2181   1.066   5.112   7.813 -1.7650 -0.1036  0.2327
  535SOL     OW 2182   0.692   3.027   0.985  0.7200 -0.2788 -0.1838
  535SOL    HW1 2183   0.726   3.080   1.058  0.9668  0.3351 -0.7307
  535SOL    HW2 2184   0.682   2.939   1.021 -2.0787  0.6056  1.5308
  536SOL     OW 2185   8.205   3.930   3.905 -0.5221  0.1222  0.2706
  536SOL    HW1 2186   8.142   3.969   3.844 -0.3194  1.6479  0.9971
  536SOL    HW2 2187   8.277   3.993   3.909 -0.8192  0.4130  2.5651
  537SOL     OW 2188   2.888   5.350   6.738  0.2357 -0.2800  0.2016
  537SOL    HW1 2189   2.954   5.285   6.714  1.0559  0.2069  1.1090
  537SOL    HW2 2190   2.916   5.383   6.823  0.0610  1.5774 -0.4265
  538SOL     OW 2191   0.520   5.236   6.345 -0.8090 -0.3518  0.1602
  538SOL    HW1 2192   0.583   5.222   6.274  0.0080 -1.8174  1.1409
  538SOL    HW2 2193   0.564   5.297   6.404 -0.5409 -0.9205  0.5517
  539SOL     OW 2194   8.192   0.068   7.334 -0.1534  0.5217 -0.2221
  539SOL    HW1 2195   8.275   0.110   7.358  0.7023 -1.5031  0.6785
  539SOL    HW2 2196   8.126   0.114   7.386  0.3112  2.3951 -1.2131
  540SOL     OW 2197   8.272   7.724   2.264 -0.2471 -0.0504  0.2780
  540SOL    HW1 2198   8.334   7.655   2.241 -0.5222 -0.2611  0.1666
  540SOL    HW2 2199   8.240   7.758   2.181  2.3601  2.5282  0.1621
  541SOL     OW 2200   0.420   2.440   2.696 -0.2393  0.3920 -0.5858
  541SOL    HW1 2201   0.352   2.382   2.663 -0.5717  0.8376 -0.6961
  541SOL    HW2 2202   0.501   2.406   2.658 -0.2414 -0.7842  0.3879
  542SOL     OW 2203   1.256   0.058   7.646 -0.0858  0.7325 -0.3574
  542SOL    HW1 2204   1.193   0.031   7.579  0.9591  0.1313 -1.1180
  542SOL    HW2 2205   1.231   0.148   7.667 -0.4016  0.9443 -1.5852
  543SOL     OW 2206   0.921   6.037   5.441 -0.4135  0.7189  0.1460
  543SOL    HW1 2207   1.016   6.042   5.441 -0.3313 -0.3565  0.7638
  543SOL    HW2 2208   0.893   6.103   5.505  0.0560 -0.3738  1.5316
  544SOL     OW 2209   6.187   4.505   3.548 -0.1245 -0.7592  0.1374
  544SOL    HW1 2210   6.227   4.437   3.494  0.5499 -0.4015  0.1853
  544SOL    HW2 2211   6.145   4.564   3.486  0.0570 -0.7269  0.0468
  545SOL     OW 2212   9.751   9.072   4.418  0.2353 -0.0189  0.2680
  545SOL    HW1 2213   9.803   9.141   4.459  0.6505  1.1288 -2.0356
  545SOL    HW2 2214   9.679   9.118   4.375 -0.0877 -1.1386 -0.4396
  546SOL     OW 2215   5.656   1.575   4.077 -0.2247  0.0477 -0.0373
  546SOL    HW1 2216   5.665   1.504   4.142  0.2371 -0.8601 -1.0664
  546SOL    HW2 2217   5.562   1.576   4.056 -0.1676 -0.5782 -0.3490
  547SOL     OW 2218   2.987   7.382   3.183  0.9651  0.3412  0.1951
  547SOL    HW1 2219   3.005   7.464   3.136  1.0667  0.4773  0.4706
  547SOL    HW2 2220   2.894   7.366   3.168  0.2640  1.9260  2.3551
  548SOL     OW 2221   6.786   8.597   3.038  0.1644  0.4430 -0.0329
  548SOL    HW1 2222   6.716   8.657   3.011  0.0234  0.4246  0.2880
  548SOL    HW2 2223   6.813   8.630   3.124 -1.5237 -1.3299  1.2658
  549SOL     OW 2224   1.736   5.289   6.118 -0.0600 -0.3137  0.0539
  549SOL    HW1 2225   1.820   5.310   6.159  0.7956  0.5586 -2.0166
  549SOL    HW2 2226   1.677   5.357   6.150  0.4266 -0.0178  0.3477
  550SOL     OW 2227   4.059   6.718   2.762  0.1381 -0.4365 -0.2605
  550SOL    HW1 2228   4.049   6.768   2.843  0.6754 -0.6290 -0.0751
  550SOL    HW2 2229   4.128   6.655   2.781 -0.0652 -0.7999 -0.7157
  551SOL     OW 2230   0.514   5.373   7.868 -0.3346  0.5681  0.5125
  551SOL    HW1 2231   0.575   5.446   7.878  0.1502  0.2424 -0.0392
  551SOL    HW2 2232   0.471   5.389   7.784  0.2033 -0.0937  0.1053
  552SOL     OW 2233   3.441   9.760   9.412 -1.1380 -1.1807  0.3946
  552SOL    HW1 2234   3.526   9.747   9.371 -0.7421 -1.6310  1.3331
  552SOL    HW2 2235   3.414   9.673   9.439 -1.1142 -0.8236  1.6163
  553SOL     OW 2236   9.712   9.667   2.465  0.3147  0.4101 -0.5284
  553SOL    HW1 2237   9.665   9.747   2.489  0.2883  0.1958  0.1601
  553SOL    HW2 2238   9.704   9.611   2.542  1.4003  0.2363 -0.5277
  554SOL     OW 2239   6.311   1.035   9.864  0.0915 -0.4176  0.1110
  554SOL    HW1 2240   6.388   1.000   9.819  1.6082  1.4991  1.0414
  554SOL    HW2 2241   6.275   1.100   9.804 -0.0655 -0.4360  0.1837
  555SOL     OW 2242   1.668   4.207   8.206 -0.0467  0.2453  0.1554
  555SOL    HW1 2243   1.757   4.240   8.222 -0.5166  0.6447  2.3268
  555SOL    HW2 2244   1.629   4.272   8.147  0.0308  2.0330  1.9559
  556SOL     OW 2245   7.921   5.364   2.116 -0.3114  0.5580 -0.0045
  556SOL    HW1 2246   7.863   5.345   2.190 -1.3829  0.4393 -0.8358
  556SOL    HW2 2247   7.959   5.279   2.094 -0.4480  0.4814  0.0475
  557SOL     OW 2248   9.088   5.036   1.356  0.1165 -0.2692  0.4796
  557SOL    HW1 2249   9.026   4.963   1.348  0.2684 -0.2767 -0.9313
  557SOL    HW2 2250   9.032   5.113   1.369 -0.1855 -0.3303 -0.3928
  558SOL     OW 2251   5.974   0.455   5.506  0.1053  0.5751  0.4488
  558SOL    HW1 2252   5.971   0.548   5.528 -0.4447  1.4351 -2.7097
  558SOL    HW2 2253   5.890   0.420   5.537  0.4521  1.0143  1.9442
  559SOL     OW 2254   4.398   0.896   5.636 -0.4918 -0.1282  0.1589
  559SOL    HW1 2255   4.347   0.939   5.705 -0.5889  1.1156 -0.6573
  559SOL    HW2 2256   4.334   0.878   5.567 -0.0730  0.2215 -0.3190
  560SOL     OW 2257   8.767   4.252   8.428  0.2634  0.7411  0.1631
  560SOL    HW1 2258   8.817   4.333   8.419 -0.8941  1.6122  1.2609
  560SOL    HW2 2259   8.819   4.197   8.487  1.4140  0.3414 -1.1698
  561SOL     OW 2260   9.402   9.518   0.867 -0.7555  0.5982 -0.5376
  561SOL    HW1 2261   9.406   9.478   0.780  1.6848  1.0757 -0.7153
  561SOL    HW2 2262   9.427   9.609   0.853 -2.0834  1.1469  0.4429
  562SOL     OW 2263   2.795   8.124   0.812  0.1729 -0.1642 -0.5175
  562SOL    HW1 2264   2.786   8.032   0.786  0.6961 -0.8268  1.5157
  562SOL    HW2 2265   2.883   8.130   0.849 -0.5650  0.6910  1.1737
  563SOL     OW 2266   5.667   1.921   9.080  0.1468 -0.1785 -0.0604
  563SOL    HW1 2267   5.662   1.832   9.045  2.6246 -0.2446 -0.4020
  563SOL    HW2 2268   5.751   1.925   9.126 -0.0469  1.8908  0.2295
  564SOL     OW 2269   1.253   4.981   7.997  0.5418  0.4807 -0.5488
  564SOL    HW1 2270   1.194   4.960   8.070  1.2256  1.6067  0.3622
  564SOL    HW2 2271   1.213   5.057   7.956  1.2717  1.1805  0.0052
  565SOL     OW 2272   2.643   0.335   1.132  0.2183  0.1228 -0.2523
  565SOL    HW1 2273   2.629   0.324   1.038 -0.0383 -2.1162 -0.0057
  565SOL    HW2 2274   2.639   0.429   1.146  1.4914  0.6198 -2.6755
  566SOL     OW 2275   4.242   4.566   9.579 -0.0839 -0.1027 -0.5830
  566SOL    HW1 2276   4.335   4.551   9.569 -0.0023  1.1438 -2.1700
  566SOL    HW2 2277   4.234   4.622   9.657  0.5832  0.5215 -0.9591
  567SOL     OW 2278   8.312   2.349   6.637  0.1972 -0.1332  0.3156
  567SOL    HW1 2279   8.237   2.407   6.648  0.6209  1.0095 -2.2337
  567SOL    HW2 2280   8.387   2.408   6.629  1.1252 -1.1882  0.9565
  568SOL     OW 2281   5.644   8.612   2.501  0.0184  0.1238 -0.0148
  568SOL    HW1 2282   5.599   8.609   2.417  0.2307  0.7356 -0.1564
  568SOL    HW2 2283   5.665   8.705   2.513 -0.6928  0.1671  1.0716
  569SOL     OW 2284   7.019   2.067   7.556  0.3876 -0.5396  0.0980
  569SOL    HW1 2285   6.979   2.054   7.470 -0.2969 -1.3167  0.5226
  569SOL    HW2 2286   7.083   2.137   7.542  0.2575 -0.6248 -1.0295
  570SOL     OW 2287   7.036   8.852   8.962 -0.1541 -0.5441 -0.5700
  570SOL    HW1 2288   7.113   8.809   8.925  1.0403 -0.1959  1.3883
  570SOL    HW2 2289   6.962   8.802   8.928  0.9388 -1.1891 -2.1062
  571SOL     OW 2290   8.515   4.384   8.806  0.7608 -0.2680 -0.0635
  571SOL    HW1 2291   8.578   4.454   8.788 -0.9486  1.2451 -0.4038
  571SOL    HW2 2292   8.540   4.351   8.892  1.4961  0.8653  0.1801
  572SOL     OW 2293   1.507   7.520   8.531 -0.0783 -0.2857  0.6177
  572SOL    HW1 2294   1.600   7.543   8.536  0.2067 -1.5679  1.6225
  572SOL    HW2 2295   1.463   7.602   8.510  1.2283  0.4401  0.6379
  573SOL     OW 2296   4.639   3.695   7.126  0.4155  0.0949  0.3248
  573SOL    HW1 2297   4.582   3.618   7.121  0.4508 -0.0391  1.7202
  573SOL    HW2 2298   4.725   3.660   7.150  1.2798  0.2376 -2.2430
  574SOL     OW 2299   6.716   8.847   1.560 -0.2105  0.4925 -0.2488
  574SOL    HW1 2300   6.714   8.941   1.577  2.9457  0.7491 -0.8625
  574SOL    HW2 2301   6.786   8.814   1.616 -2.1609 -1.8316  1.0557
  575SOL     OW 2302   5.347   9.168   2.552  0.0571 -0.2280  0.5503
  575SOL    HW1 2303   5.409   9.095   2.549 -0.2193 -0.4427 -0.1430
  575SOL    HW2 2304   5.333   9.191   2.460 -2.5032 -1.5845  0.4944
  576SOL     OW 2305   2.636   6.206   5.750  0.3145 -0.0982  0.0029
  576SOL    HW1 2306   2.648   6.154   5.670  0.1789 -1.2279  0.6890
  576SOL    HW2 2307   2.648   6.143   5.821 -0.0788  0.7793  0.8663
  577SOL     OW 2308   3.171   9.393   1.460 -0.3218  0.3016 -0.5541
  577SOL    HW1 2309   3.123   9.451   1.400 -2.1457 -1.0314 -0.4505
  577SOL    HW2 2310   3.167   9.307   1.418 -0.0100 -0.2842  0.5898
  578SOL     OW 2311   3.867   4.832   4.895 -0.1662  0.4577  0.1776
  578SOL    HW1 2312   3.930   4.760   4.897 -1.3678 -0.6113  0.7332
  578SOL    HW2 2313   3.819   4.825   4.977 -2.2864  0.0438 -1.0277
  579SOL     OW 2314   4.000   4.173   6.877  0.1808  0.0861  0.4793
  579SOL    HW1 2315   3.915   4.171   6.920 -0.4676  2.3059 -0.5474
  579SOL    HW2 2316   4.047   4.097   6.912 -2.1009 -1.0491  1.2646
  580SOL     OW 2317   8.653   6.191   5.153  0.2253  0.1511 -0.3040
  580SOL    HW1 2318   8.619   6.103   5.135  2.0403 -0.5231 -0.6400
  580SOL    HW2 2319   8.651   6.198   5.248 -0.0662 -0.1827 -0.2807
  581SOL     OW 2320   5.100   4.541   4.487 -0.3336 -0.3515 -0.1973
  581SOL    HW1 2321   5.170   4.598   4.518 -0.9572 -1.0527  2.8434
  581SOL    HW2 2322   5.020   4.589   4.506 -0.9949 -2.6752  4.2170
  582SOL     OW 2323   3.601   3.484   9.865  0.1463  0.0790  0.2681
  582SOL    HW1 2324   3.618   3.561   9.920  2.3683 -1.0796  1.3060
  582SOL    HW2 2325   3.544   3.429   9.918  1.9322 -0.8362  1.3357
  583SOL     OW 2326   2.629   6.134   2.815 -0.0105 -0.4910 -0.0554
  583SOL    HW1 2327   2.695   6.180   2.867 -0.3830 -0.4250  0.3644
  583SOL    HW2 2328   2.679   6.072   2.762  0.2172 -2.0528  1.8951
  584SOL     OW 2329   4.028   6.844   0.247 -0.0071  0.1979  0.2982
  584SOL    HW1 2330   4.069   6.842   0.333  1.0044  2.7956 -0.0532
  584SOL    HW2 2331   3.975   6.764   0.244 -0.3160  0.1689  3.4270
  585SOL     OW 2332   4.521   4.021   7.567  0.2950  0.1137  0.4340
  585SOL    HW1 2333   4.462   3.950   7.593  0.4007 -0.0863  0.1294
  585SOL    HW2 2334   4.570   4.041   7.647 -1.0066  1.0933  1.0044
  586SOL     OW 2335   2.440   3.209   2.781 -0.0992  0.2770  0.1013
  586SOL    HW1 2336   2.529   3.242   2.795 -0.0845  0.5777 -0.6368
  586SOL    HW2 2337   2.447   3.115   2.794  0.7055  0.0628 -1.5946
  587SOL     OW 2338   1.865   8.606   7.180 -0.3461 -0.3815 -0.0184
  587SOL    HW1 2339   1.869   8.668   7.107 -1.2022  0.7736  0.8777
  587SOL    HW2 2340   1.955   8.575   7.190  0.0219  0.4065 -0.7442
  588SOL     OW 2341   2.998   6.077   9.321 -0.2792  0.2336  0.2407
  588SOL    HW1 2342   2.937   6.003   9.326  0.2013 -0.1412  0.6645
  588SOL    HW2 2343   2.961   6.141   9.382 -0.2389 -0.0020  0.5164
  589SOL     OW 2344   0.357   1.406   3.890 -0.1439 -0.2378 -0.3366
  589SOL    HW1 2345   0.448   1.408   3.919 -0.0851  1.0217 -0.5671
  589SOL    HW2 2346   0.334   1.313   3.890  0.6535 -0.4645  1.2170
  590SOL     OW 2347   1.645   1.492   0.636 -0.0061  0.2611 -0.3168
  590SOL    HW1 2348   1.726   1.525   0.595 -0.4318  0.0624 -1.3511
  590SOL    HW2 2349   1.646   1.529   0.724  0.7339  1.0602 -0.6454
  591SOL     OW 2350   5.743   0.340   5.070  0.4284  0.6238  0.0785
  591SOL    HW1 2351   5.788   0.266   5.029  0.8039  0.5008  0.6918
  591SOL    HW2 2352   5.813   0.404   5.086  0.5429  0.1411  1.6876
  592SOL     OW 2353   4.213   3.180   2.004 -0.1289  0.3813 -0.0791
  592SOL    HW1 2354   4.271   3.215   1.937  0.3392  1.4344  0.8479
  592SOL    HW2 2355   4.270   3.163   2.079 -1.1613  2.9491  1.4256
  593SOL     OW 2356   3.436   4.668   8.424 -0.3512 -0.2658 -0.2260
  593SOL    HW1 2357   3.373   4.624   8.482  0.3438 -1.6453 -0.4862
  593SOL    HW2 2358   3.490   4.597   8.388  2.0509  0.9204  0.7887
  594SOL     OW 2359   1.618   5.101   1.978 -0.8233 -0.5255 -0.4467
  594SOL    HW1 2360   1.617   5.014   2.018 -1.3493 -0.4297 -0.2339
  594SOL    HW2 2361   1.705   5.136   1.997 -0.5996 -1.0242 -0.5710
  595SOL     OW 2362   7.176   9.671   1.810 -0.1316  0.0067 -0.1989
  595SOL    HW1 2363   7.098   9.726   1.819  0.4020  0.6273  0.9425
  595SOL    HW2 2364   7.220   9.704   1.731 -0.4037  0.4690 -0.1614
  596SOL     OW 2365   7.368   1.743   4.978 -0.3056 -0.0026  0.0413
  596SOL    HW1 2366   7.305   1.740   5.050  0.8698  0.8250  1.1414
  596SOL    HW2 2367   7.418   1.822   4.993  0.9537 -0.5972 -0.8558
  597SOL     OW 2368   0.556   9.519   0.098 -1.1146  0.0063 -0.6822
  597SOL    HW1 2369   0.526   9.589   0.156  0.0316 -0.4111  0.4643
  597SOL    HW2 2370   0.500   9.445   0.119  1.5306 -1.3188  2.7137
  598SOL     OW 2371   5.676   5.879   6.092 -0.5307  0.0220 -0.7380
  598SOL    HW1 2372   5.604   5.865   6.031 -0.0655 -1.3386 -1.0030
  598SOL    HW2 2373   5.634   5.887   6.178 -1.0104 -0.8712 -0.8768
  599SOL     OW 2374   4.014   6.536   2.252  0.2688  0.2761 -0.0038
  599SOL    HW1 2375   3.932   6.544   2.203 -0.1231  0.2495  0.6358
  599SOL    HW2 2376   3.992   6.567   2.340  0.9455  0.2575  0.1738
  600SOL     OW 2377   5.309   6.479   4.429  0.3624 -0.2879 -0.0088
  600SOL    HW1 2378   5.397   6.516   4.437  0.5338 -0.8101  0.6549
  600SOL    HW2 2379   5.277   6.509   4.344  0.7265  0.8702  0.2495
  601SOL     OW 2380   0.736   6.239   3.749  0.3645 -0.3782  0.1551
  601SOL    HW1 2381   0.656   6.241   3.801  0.4850 -0.8141  0.3701
  601SOL    HW2 2382   0.780   6.321   3.769  0.2534 -0.3984  0.4967
  602SOL     OW 2383   1.801   3.208   6.207 -0.5403  0.6772  0.1523
  602SOL    HW1 2384   1.807   3.228   6.301 -0.0284  0.1447  0.2419
  602SOL    HW2 2385   1.890   3.223   6.174 -0.0571 -1.5633  0.2698
  603SOL     OW 2386   3.621   4.482   1.525  0.0073 -0.2302 -0.5293
  603SOL    HW1 2387   3.599   4.459   1.615 -2.3413  0.4250 -0.8856
  603SOL    HW2 2388   3.615   4.400   1.477  1.1044 -0.5498 -0.1663
  604SOL     OW 2389   1.681   2.624   6.476  0.2418 -0.3489  0.3093
  604SOL    HW1 2390   1.703   2.558   6.410 -1.3733 -0.6123  0.0018
  604SOL    HW2 2391   1.635   2.692   6.427  1.2709  0.6942  0.7517
  605SOL     OW 2392   9.801   5.781   1.664 -0.3835  0.2057  0.2468
  605SOL    HW1 2393   9.893   5.797   1.682 -0.2017 -1.1540  0.6124
  605SOL    HW2 2394   9.778   5.846   1.597  1.2517 -0.4616 -1.0201
  606SOL     OW 2395   2.668   8.578   4.561 -0.4362 -0.3955 -0.0680
  606SOL    HW1 2396   2.733   8.648   4.550  0.4186 -1.2941 -0.9150
  606SOL    HW2 2397   2.585   8.619   4.539  0.2530 -0.0394 -2.3306
  607SOL     OW 2398   3.363   7.769   0.576  0.0360  0.4166  0.3710
  607SOL    HW1 2399   3.274   7.752   0.604  0.3082 -1.5840  0.1202
  607SOL    HW2 2400   3.409   7.686   0.587  1.5003  1.0038 -0.8868
  608SOL     OW 2401   0.058   0.884   3.913 -0.2019 -0.7395  0.7760
  608SOL    HW1 2402   0.049   0.889   3.818 -0.3091 -1.8164  0.7145
  608SOL    HW2 2403   0.131   0.823   3.927  0.6100  0.3429  1.3806
  609SOL     OW 2404   2.042   4.348   2.309  0.1636 -0.5185  0.1873
  609SOL    HW1 2405   2.006   4.328   2.223  0.1521 -0.5281  0.1940
  609SOL    HW2 2406   2.135   4.363   2.293  0.0222  0.2497  0.0601
  610SOL     OW 2407   6.409   0.707   8.115 -0.5845  0.3150  0.2219
  610SOL    HW1 2408   6.489   0.760   8.110  1.2219 -2.0272  1.7781
  610SOL    HW2 2409   6.412   0.650   8.038  0.4781 -1.2447  1.3531
  611SOL     OW 2410   0.766   2.657   6.477  0.0108 -0.2069 -0.1982
  611SOL    HW1 2411   0.772   2.731   6.416 -0.6551  0.2864  0.3065
  611SOL    HW2 2412   0.837   2.671   6.539 -0.1435  0.0526 -0.0754
  612SOL     OW 2413   7.724   8.773   9.508 -0.1376  0.3765 -0.0232
  612SOL    HW1 2414   7.644   8.768   9.561  0.3432  0.3677  0.7114
  612SOL    HW2 2415   7.779   8.837   9.553  0.8436 -0.6476  0.2773
  613SOL     OW 2416   9.122   4.992   6.046  0.0894  0.8499 -0.0862
  613SOL    HW1 2417   9.213   5.011   6.024  0.2419  0.8555  0.5257
  613SOL    HW2 2418   9.127   4.953   6.134 -0.4478  0.3777 -0.2621
  614SOL     OW 2419   8.662   7.583   1.556 -0.0482  0.2426 -0.0370
  614SOL    HW1 2420   8.720   7.511   1.532 -0.9280 -0.1669 -1.0307
  614SOL    HW2 2421   8.666   7.642   1.481  0.6140  1.2125  0.7403
  615SOL     OW 2422   1.903   6.473   0.214  0.5745  0.5557  0.7549
  615SOL    HW1 2423   1.810   6.479   0.192  1.2136  0.2478 -2.4626
  615SOL    HW2 2424   1.935   6.563   0.206  0.7071  0.5436  1.1334
  616SOL     OW 2425   8.736   0.867   6.900 -0.6032  0.2417  0.2443
  616SOL    HW1 2426   8.822   0.902   6.924 -1.0061  0.4556  1.4824
  616SOL    HW2 2427   8.728   0.885   6.807  1.0964 -0.6570 -0.1246
  617SOL     OW 2428   2.101   3.144   4.197  0.0635 -0.2000  0.0655
  617SOL    HW1 2429   2.195   3.149   4.213  0.2218 -0.3237 -0.7944
  617SOL    HW2 2430   2.070   3.234   4.207  0.3302 -0.0995  0.0029
  618SOL     OW 2431   2.885   6.622   0.054 -0.1933  0.5360 -0.2448
  618SOL    HW1 2432   2.831   6.543   0.053  0.7355 -0.1646  1.1604
  618SOL    HW2 2433   2.823   6.694   0.038 -1.2747 -0.3686 -0.2422
  619SOL     OW 2434   5.543   6.496   5.636 -0.0955 -0.0168 -0.0889
  619SOL    HW1 2435   5.610   6.429   5.652  0.0417  0.1893  0.2052
  619SOL    HW2 2436   5.565   6.567   5.696 -0.4122  0.1726 -0.1940
  620SOL     OW 2437   3.418   9.886   5.435 -0.2498  0.4917  0.4532
  620SOL    HW1 2438   3.495   9.840   5.403  0.0114  0.3162  1.3220
  620SOL    HW2 2439   3.344   9.838   5.397  0.0416  1.2958 -1.2764
  621SOL     OW 2440   9.915   2.059   0.854 -0.3530  0.4900  0.2018
  621SOL    HW1 2441   9.912   2.125   0.923  0.6479  1.9801 -1.0861
  621SOL    HW2 2442   9.945   1.980   0.898  1.1004  1.6084  1.3734
  622SOL     OW 2443   4.057   1.801   8.531  0.6936  0.3924 -1.0540
  622SOL    HW1 2444   4.112   1.732   8.493 -0.3572 -0.0426 -1.8390
  622SOL    HW2 2445   3.992   1.753   8.583  1.2239  0.9160  0.1221
  623SOL     OW 2446   3.571   2.040   8.512  0.3510  1.0353 -0.0993
  623SOL    HW1 2447   3.598   1.958   8.554 -0.1597  1.0024  0.1797
  623SOL    HW2 2448   3.634   2.053   8.442  0.3148  0.2891 -0.2834
  624SOL     OW 2449   9.566   1.312   5.569  0.0905 -0.3037 -0.1551
  624SOL    HW1 2450   9.661   1.326   5.568  0.2673 -1.4286  0.1945
  624SOL    HW2 2451   9.530   1.399   5.584  1.1073 -0.0192  0.7646
  625SOL     OW 2452   1.423   6.326   5.769  0.1293 -0.2696  0.1943
  625SOL    HW1 2453   1.354   6.261   5.783  0.4436 -0.2317  2.1339
  625SOL    HW2 2454   1.495   6.297   5.826  0.1816  1.9022  1.3206
  626SOL     OW 2455   4.126   4.499   7.362 -0.3697  0.2576  0.6169
  626SOL    HW1 2456   4.085   4.576   7.400  1.4520  1.1198  0.9457
  626SOL    HW2 2457   4.214   4.498   7.399  0.4026 -0.7011 -1.0997
  627SOL     OW 2458   0.982   6.522   0.194 -0.2421 -0.8286  0.0147
  627SOL    HW1 2459   1.076   6.504   0.189 -0.3327 -1.7431  1.2250
  627SOL    HW2 2460   0.943   6.439   0.222 -1.3692 -0.3467 -0.0691
  628SOL     OW 2461   5.866   9.932   9.311  0.4179 -0.1621 -0.0941
  628SOL    HW1 2462   5.824  10.018   9.313  0.4096 -0.1683  1.0828
  628SOL    HW2 2463   5.959   9.951   9.304  0.4355 -0.0431  0.4257
  629SOL     OW 2464   1.044   4.459   6.413 -0.2197  0.8689  0.1530
  629SOL    HW1 2465   1.115   4.448   6.476 -0.8146 -0.7939  0.5742
  629SOL    HW2 2466   1.001   4.374   6.410 -1.6470  1.5866 -0.7733
  630SOL     OW 2467   9.397   5.908   4.353  0.2772  0.1346 -0.0541
  630SOL    HW1 2468   9.490   5.909   4.376  0.0520  0.1655  0.8930
  630SOL    HW2 2469   9.376   5.815   4.342  0.1884  0.0539  0.7403
  631SOL     OW 2470   8.672   9.158   2.633  0.1996 -0.0576  0.1754
  631SOL    HW1 2471   8.763   9.129   2.638  0.3969  0.6979  1.3373
  631SOL    HW2 2472   8.665   9.199   2.547  0.4579 -1.6860 -0.6604
  632SOL     OW 2473   1.066   8.992   8.642  0.1290 -0.1344 -0.2254
  632SOL    HW1 2474   1.003   9.040   8.588 -0.3516  1.0776  1.3248
  632SOL    HW2 2475   1.100   8.923   8.585 -1.2696  0.3092 -1.6525
  633SOL     OW 2476   2.095   9.479   0.664  0.4295  0.2838 -0.4411
  633SOL    HW1 2477   2.050   9.430   0.595 -1.1676 -2.0896  2.0649
  633SOL    HW2 2478   2.186   9.451   0.659  0.0699 -0.8769 -0.7933
  634SOL     OW 2479   7.752   3.244   2.147  0.3185 -0.0061  0.3329
  634SOL    HW1 2480   7.813   3.284   2.085 -1.0872  0.7130 -0.6481
  634SOL    HW2 2481   7.667   3.280   2.123 -0.6653 -1.7974  0.9686
  635SOL     OW 2482   1.507   4.616   3.496  0.3379  0.1906  0.3227
  635SOL    HW1 2483   1.445   4.549   3.469 -0.2719  1.6548 -2.1908
  635SOL    HW2 2484   1.570   4.622   3.424  0.8645  1.7466  0.8667
  636SOL     OW 2485   8.542   8.593   9.261  0.6255  0.6256  0.7585
  636SOL    HW1 2486   8.562   8.606   9.353 -1.2169  0.8847  1.1401
  636SOL    HW2 2487   8.622   8.620   9.215  1.5611  0.4771  2.2556
  637SOL     OW 2488   1.471   7.766   5.477 -0.0190 -0.1075 -0.1170
  637SOL    HW1 2489   1.439   7.699   5.538 -1.3654 -1.4275 -2.1330
  637SOL    HW2 2490   1.566   7.759   5.482 -0.1248 -1.3466  0.6123
  638SOL     OW 2491   6.943   8.291   1.086 -0.4703 -0.6025 -0.0467
  638SOL    HW1 2492   7.020   8.332   1.125  0.7392 -3.0226  0.2698
  638SOL    HW2 2493   6.930   8.338   1.004  0.9919  0.2341  0.1686
  639SOL     OW 2494   2.249   3.820   9.329  0.2833 -0.0337 -0.2305
  639SOL    HW1 2495   2.256   3.762   9.254  0.3355 -0.6280  0.2241
  639SOL    HW2 2496   2.314   3.889   9.312  0.2596 -0.1348 -0.7487
  640SOL     OW 2497   8.636   0.074   6.554 -0.4806 -0.3766 -0.2444
  640SOL    HW1 2498   8.704   0.010   6.573  0.1097  0.6120  1.2219
  640SOL    HW2 2499   8.585   0.079   6.635 -0.1288  1.3958 -0.0853
  641SOL     OW 2500   9.301   9.853   6.425 -0.2780 -0.6194  0.3075
  641SOL    HW1 2501   9.211   9.830   6.401 -0.5593  0.5571  0.2054
  641SOL    HW2 2502   9.331   9.779   6.477 -0.6399 -1.9388 -1.2540
  642SOL     OW 2503   5.100   6.088   5.778  0.2108 -0.1407 -0.3564
  642SOL    HW1 2504   5.177   6.092   5.721 -0.6797  0.3922 -1.5735
  642SOL    HW2 2505   5.109   6.164   5.835  0.6855 -0.1941 -0.3542
  643SOL     OW 2506   9.579   8.157   0.044  0.6540  0.4201  0.0268
  643SOL    HW1 2507   9.585   8.238  -0.006  0.9828 -1.4257 -3.2256
  643SOL    HW2 2508   9.670   8.134   0.064  0.7480 -0.1959 -1.0205
  644SOL     OW 2509   6.396   4.023   4.372  0.2590  0.2496 -0.3996
  644SOL    HW1 2510   6.340   4.005   4.447  2.4124 -2.7593  0.7113
  644SOL    HW2 2511   6.351   4.092   4.324 -2.3341  0.7536  2.4426
  645SOL     OW 2512   1.039   0.072   8.222  0.2544 -0.4244  0.1301
  645SOL    HW1 2513   1.128   0.102   8.243  0.4611 -0.3673 -0.7841
  645SOL    HW2 2514   1.049   0.023   8.140 -0.0796 -3.0122  1.5382
  646SOL     OW 2515   9.682   6.679   5.145  0.0828 -0.2544 -0.1175
  646SOL    HW1 2516   9.607   6.623   5.124 -0.5803  0.4409  0.3838
  646SOL    HW2 2517   9.693   6.669   5.239  1.1738 -1.0153 -0.3021
  647SOL     OW 2518   4.076   4.946   6.932  0.3944  0.4436 -0.8669
  647SOL    HW1 2519   3.999   4.912   6.978 -0.2777  0.7012 -1.7651
  647SOL    HW2 2520   4.145   4.881   6.947 -0.7739 -1.2199 -2.3321
  648SOL     OW 2521   2.011   6.892   5.823  0.0917 -0.1591  0.3502
  648SOL    HW1 2522   1.959   6.826   5.870 -1.6106  1.5387  1.0221
  648SOL    HW2 2523   2.101   6.872   5.845  0.1842 -4.8026 -2.8603
  649SOL     OW 2524   8.794   2.839   6.559  0.1399  0.4405  0.5611
  649SOL    HW1 2525   8.791   2.752   6.597 -0.1082 -0.0555 -0.5341
  649SOL    HW2 2526   8.725   2.838   6.492 -0.2055  1.6410  0.8583
  650SOL     OW 2527   7.654   4.291   2.295 -0.3654  0.6340  0.0658
  650SOL    HW1 2528   7.727   4.257   2.243 -1.1251  0.7875 -1.1392
  650SOL    HW2 2529   7.660   4.386   2.285 -1.8037  0.5958 -1.6159
  651SOL     OW 2530   2.493   4.833   3.031  0.0440  0.3387 -0.5430
  651SOL    HW1 2531   2.506   4.741   3.010 -0.2491  0.0944  0.2713
  651SOL    HW2 2532   2.530   4.881   2.957  0.5073 -0.4262 -0.8186
  652SOL     OW 2533   6.118   8.445   9.688 -0.0366 -0.3051 -0.0380
  652SOL    HW1 2534   6.059   8.412   9.757  0.7579 -0.7524  0.4512
  652SOL    HW2 2535   6.081   8.410   9.607 -1.9926  1.6546 -0.0860
  653SOL     OW 2536   4.043   0.442   8.707  0.1818 -0.5129  0.6610
  653SOL    HW1 2537   4.128   0.399   8.715 -0.0089 -1.6981 -2.3962
  653SOL    HW2 2538   3.982   0.371   8.688 -0.5040  0.7496 -2.4862
  654SOL     OW 2539   4.193   0.133   4.379  0.5451 -0.6384 -0.2410
  654SOL    HW1 2540   4.129   0.109   4.312 -0.0175 -0.7783  0.3339
  654SOL    HW2 2541   4.150   0.112   4.462  2.0042 -2.4868  0.1378
  655SOL     OW 2542   0.711   7.724   3.414  0.6078 -0.1642  0.0612
  655SOL    HW1 2543   0.713   7.721   3.510 -1.1696  1.5300  0.1941
  655SOL    HW2 2544   0.674   7.640   3.388 -1.4881  0.4081  1.0334
  656SOL     OW 2545   9.264   1.432   1.957 -0.5453 -0.1816  0.0635
  656SOL    HW1 2546   9.256   1.527   1.946  0.6592  0.0100  0.6842
  656SOL    HW2 2547   9.205   1.412   2.030 -0.5803  0.1461  0.1294
  657SOL     OW 2548   1.316   3.392   5.271 -0.5685 -0.4582  0.4688
  657SOL    HW1 2549   1.386   3.416   5.211  0.1835 -0.5128  1.3018
  657SOL    HW2 2550   1.329   3.299   5.289 -1.9011 -0.8995 -0.7048
  658SOL     OW 2551   4.809   2.203   1.188  0.4803  0.2996 -0.8223
  658SOL    HW1 2552   4.717   2.228   1.183  0.3867  0.2037  0.1508
  658SOL    HW2 2553   4.847   2.264   1.251  1.0103  0.1233 -0.9630
  659SOL     OW 2554   1.345   3.011   1.657  0.4360 -0.0095  0.4510
  659SOL    HW1 2555   1.268   3.010   1.714 -0.1189  1.7962 -0.1965
  659SOL    HW2 2556   1.419   3.028   1.716  0.4509 -2.1043  1.1256
  660SOL     OW 2557   4.199   7.063   3.987 -0.7040 -0.2797 -0.6167
  660SOL    HW1 2558   4.119   7.010   3.983 -0.9419 -0.0456  0.5494
  660SOL    HW2 2559   4.267   7.001   4.014 -0.8120 -0.1752 -0.0888
  661SOL     OW 2560   4.809   2.862   3.299 -0.0252 -0.5089 -0.1904
  661SOL    HW1 2561   4.891   2.859   3.249 -0.0334 -1.0171 -0.1764
  661SOL    HW2 2562   4.833   2.906   3.381  0.0353  0.1337 -0.5470
  662SOL     OW 2563   4.024   1.295   9.175 -0.3191 -0.5827 -0.4698
  662SOL    HW1 2564   4.114   1.326   9.166 -0.6432  0.0176 -1.6860
  662SOL    HW2 2565   4.032   1.199   9.172  0.2315 -0.5253 -0.9790
  663SOL     OW 2566   0.991   0.814   7.044 -0.1728  0.5282  0.0627
  663SOL    HW1 2567   1.080   0.848   7.035  0.1438 -0.5821 -1.3015
  663SOL    HW2 2568   1.001   0.731   7.091 -0.4920  0.4461 -0.0105
  664SOL     OW 2569   6.938   8.907   9.534 -0.2299 -0.4023 -0.1520
  664SOL    HW1 2570   6.912   8.948   9.616  1.8610 -0.4810  0.6298
  664SOL    HW2 2571   6.873   8.839   9.519 -1.0216  0.0402  1.1000
  665SOL     OW 2572   4.313   9.443   3.743 -0.7886 -0.6319  0.2195
  665SOL    HW1 2573   4.266   9.493   3.676 -0.2364 -1.3242 -0.7154
  665SOL    HW2 2574   4.248   9.427   3.811 -1.8729 -1.4031 -0.9488
  666SOL     OW 2575   9.837   4.769   4.527  0.0271  0.1330  0.1938
  666SOL    HW1 2576   9.925   4.753   4.494 -0.5761  1.0287 -2.1303
  666SOL    HW2 2577   9.807   4.684   4.558  1.8325 -0.0909  1.4671
  667SOL     OW 2578   1.729   7.844   5.491 -0.3324 -0.0815 -0.4129
  667SOL    HW1 2579   1.737   7.914   5.427  0.2990  1.2812  1.0689
  667SOL    HW2 2580   1.734   7.889   5.576 -0.7510 -1.8387  0.5921
  668SOL     OW 2581   2.280   4.084   0.260  0.0594 -0.1462 -0.2188
  668SOL    HW1 2582   2.315   3.996   0.275  0.8536  0.0347 -0.9453
  668SOL    HW2 2583   2.303   4.133   0.339  1.8252  0.0637 -0.8055
  669SOL     OW 2584   0.170   1.151   7.256 -0.0275 -0.2311  0.3792
  669SOL    HW1 2585   0.188   1.238   7.219 -0.4444  0.1480  1.0444
  669SOL    HW2 2586   0.160   1.095   7.179  1.6659 -0.0050 -0.0511
  670SOL     OW 2587   3.216   9.534   6.423 -0.3473  0.1172 -0.1521
  670SOL    HW1 2588   3.226   9.464   6.358 -0.0770 -0.5317  0.5670
  670SOL    HW2 2589   3.196   9.488   6.505 -0.4209  0.9027  0.2851
  671SOL     OW 2590   3.702   9.967   1.601  0.0042  0.6099 -0.1756
  671SOL    HW1 2591   3.791   9.934   1.589  0.1723  0.8655  0.3910
  671SOL    HW2 2592   3.695   9.985   1.694  0.8866  4.9234 -0.7260
  672SOL     OW 2593   3.540   7.437   1.173  0.0381 -0.8835 -0.0928
  672SOL    HW1 2594   3.591   7.381   1.115  1.3361  0.5087 -0.3346
  672SOL    HW2 2595   3.547   7.524   1.135 -2.8632 -0.6733 -0.3607
  673SOL     OW 2596   7.007   4.734   1.024 -0.2593 -0.2270 -0.3242
  673SOL    HW1 2597   6.972   4.663   0.970 -1.7744  0.6852 -0.5943
  673SOL    HW2 2598   6.981   4.712   1.114  1.5095 -1.2959 -0.0247
  674SOL     OW 2599   6.534   0.292   7.585 -0.0733 -0.1603 -0.5255
  674SOL    HW1 2600   6.538   0.387   7.571  1.3351 -0.2944 -1.2271
  674SOL    HW2 2601   6.613   0.273   7.636 -0.5708 -0.9123 -0.0201
  675SOL     OW 2602   3.394   1.668   8.811 -0.6519  0.0396  0.4201
  675SOL    HW1 2603   3.387   1.733   8.741  1.4272  1.7051  1.6359
  675SOL    HW2 2604   3.433   1.591   8.770 -0.2061  0.7032 -0.4285
  676SOL     OW 2605   1.789   1.391   4.100 -0.3118  0.5358  0.2935
  676SOL    HW1 2606   1.762   1.483   4.099 -0.0018  0.7877  3.6595
  676SOL    HW2 2607   1.879   1.393   4.132  1.6106 -0.7651 -4.2406
  677SOL     OW 2608   6.523   7.028   9.562 -0.1709  0.4343  0.0035
  677SOL    HW1 2609   6.540   7.121   9.546  1.1572  0.3751  0.9000
  677SOL    HW2 2610   6.586   7.004   9.630 -0.1269 -1.2606 -0.6026
  678SOL     OW 2611   4.402   7.689   3.304 -0.2247 -0.8804  0.4472
  678SOL    HW1 2612   4.457   7.641   3.367  2.8230 -0.2946 -1.5695
  678SOL    HW2 2613   4.390   7.627   3.232 -0.2205 -0.2099 -0.1327
  679SOL     OW 2614   1.703   0.158   6.953  0.0028 -0.3970  0.3380
  679SOL    HW1 2615   1.767   0.174   7.023 -0.3600  0.6916  0.4456
  679SOL    HW2 2616   1.707   0.237   6.900  0.8847 -1.5518 -1.3940
  680SOL     OW 2617   6.016   4.758   3.801 -0.1609  0.2418  0.6026
  680SOL    HW1 2618   5.979   4.844   3.819  1.0041  0.7928  0.4265
  680SOL    HW2 2619   5.942   4.707   3.767 -1.1907  0.7342  2.0112
  681SOL     OW 2620   0.619   4.285   8.732  0.0429 -0.5407 -0.2624
  681SOL    HW1 2621   0.532   4.296   8.770  0.5396 -0.6240  0.9576
  681SOL    HW2 2622   0.679   4.298   8.806  0.9962 -2.3714 -0.6706
  682SOL     OW 2623   4.526   7.576   6.276  0.6889 -0.1760 -0.1835
  682SOL    HW1 2624   4.486   7.584   6.362  1.5284 -0.7534  0.2651
  682SOL    HW2 2625   4.456   7.541   6.221  0.1290  0.2596  0.2298
  683SOL     OW 2626   8.634   2.573   0.539 -0.1605 -0.0218 -0.0661
  683SOL    HW1 2627   8.609   2.504   0.477 -0.2521  1.0128 -1.1962
  683SOL    HW2 2628   8.551   2.604   0.575 -0.3445  1.1933 -1.4306
  684SOL     OW 2629   4.928   9.078   3.880 -0.1037  0.6263  0.3395
  684SOL    HW1 2630   5.001   9.139   3.890  0.0511  0.3753  0.7825
  684SOL    HW2 2631   4.850   9.133   3.880  0.1608  1.1173 -2.2025
  685SOL     OW 2632   0.120   4.370   9.172 -0.0562 -0.3151  0.2746
  685SOL    HW1 2633   0.112   4.366   9.267  3.3348 -2.7191  0.6446
  685SOL    HW2 2634   0.066   4.298   9.140 -0.8148  0.1964  0.3716
  686SOL     OW 2635   3.412   4.834   6.320 -0.5840 -0.4915 -0.3620
  686SOL    HW1 2636   3.471   4.834   6.245 -0.5274 -0.3126 -0.3160
  686SOL    HW2 2637   3.346   4.767   6.298 -1.0844  0.1949 -0.9786
  687SOL     OW 2638   5.774   7.328   8.441  0.4786 -0.3199  0.1047
  687SOL    HW1 2639   5.827   7.366   8.372  0.1295 -0.2080 -0.1022
  687SOL    HW2 2640   5.726   7.402   8.478 -0.4170 -0.5918 -0.4863
  688SOL     OW 2641   0.075   8.783   1.999 -0.0262  0.0419 -0.1685
  688SOL    HW1 2642   0.047   8.822   1.917 -0.2393 -2.0587 -1.1776
  688SOL    HW2 2643   0.114   8.699   1.973 -0.2856 -0.7744  1.8833
  689SOL     OW 2644   7.831   4.613   2.684 -0.5073  1.2044 -0.0780
  689SOL    HW1 2645   7.855   4.551   2.615  1.8773 -0.3654  1.9535
  689SOL    HW2 2646   7.747   4.582   2.717 -1.3750  1.6214 -1.8388
  690SOL     OW 2647   8.290   7.388   5.203 -0.3970  0.5179  0.1844
  690SOL    HW1 2648   8.311   7.404   5.111  0.4413 -3.6087 -0.5508
  690SOL    HW2 2649   8.204   7.346   5.200  1.3649 -3.5838  0.6089
  691SOL     OW 2650   2.518   6.406   9.135 -0.2577  0.6640  0.1917
  691SOL    HW1 2651   2.574   6.483   9.146 -0.0425  0.2221  3.0791
  691SOL    HW2 2652   2.560   6.338   9.187 -0.6401 -1.3561 -2.0102
  692SOL     OW 2653   6.007   7.549   8.341  0.4233  0.3837 -0.3411
  692SOL    HW1 2654   6.078   7.613   8.339 -0.6028  1.6036  0.7757
  692SOL    HW2 2655   6.048   7.468   8.371  1.2151  1.2656  1.0493
  693SOL     OW 2656   2.134   7.714   5.722 -0.3071  0.1623  0.3919
  693SOL    HW1 2657   2.210   7.738   5.774  0.0661 -0.6000  0.2044
  693SOL    HW2 2658   2.059   7.749   5.772  0.1277  0.5210  0.8012
  694SOL     OW 2659   7.246   1.059   0.418  0.1089 -0.4509  0.2716
  694SOL    HW1 2660   7.279   0.976   0.451 -1.0160 -1.3946 -0.8855
  694SOL    HW2 2661   7.273   1.060   0.326 -2.5816 -1.0569 -0.5984
  695SOL     OW 2662   2.958   5.239   1.978 -0.5008  0.3055 -0.6236
  695SOL    HW1 2663   3.046   5.204   1.970  0.2032  2.1597 -1.7633
  695SOL    HW2 2664   2.934   5.226   2.070  1.0162 -0.0571 -0.2629
  696SOL     OW 2665   9.002   8.062   5.303  0.1678  0.0745  0.0674
  696SOL    HW1 2666   9.050   8.130   5.350 -0.5910  0.4955  0.2518
  696SOL    HW2 2667   9.033   7.980   5.341 -0.1658  0.3930  1.0655
  697SOL     OW 2668   1.184   7.066   4.612  0.0703  0.0754  0.0948
  697SOL    HW1 2669   1.235   7.062   4.693  0.9603 -2.7205 -0.4968
  697SOL    HW2 2670   1.099   7.030   4.636 -0.5667  1.7029  0.3454
  698SOL     OW 2671   0.229   5.998   1.518  0.3633  0.0179 -0.6221
  698SOL    HW1 2672   0.215   5.927   1.455  0.2895  0.1579 -0.7633
  698SOL    HW2 2673   0.324   6.001   1.531  0.4182  0.2877 -1.0734
  699SOL     OW 2674   2.539   9.375   4.345  0.8320  0.6636  0.6599
  699SOL    HW1 2675   2.623   9.344   4.378 -0.2062 -1.2193  1.7005
  699SOL    HW2 2676   2.478   9.365   4.419 -0.8889 -0.7340 -0.8339
  700SOL     OW 2677   7.897   9.558   1.806  0.1191 -0.0022  0.9444
  700SOL    HW1 2678   7.920   9.650   1.818 -1.2562  0.2929  1.6093
  700SOL    HW2 2679   7.950   9.511   1.870  0.8171  0.3288  0.6164
  701SOL     OW 2680   1.703   9.898   3.889 -0.5274  0.7036 -0.2984
  701SOL    HW1 2681   1.706   9.899   3.985 -0.4242 -0.3674 -0.2745
  701SOL    HW2 2682   1.743   9.981   3.863  0.2668  0.6092  0.5698
  702SOL     OW 2683   5.650   4.049   8.760  0.0886 -0.3186 -0.1747
  702SOL    HW1 2684   5.578   4.004   8.803  0.8984 -0.7089  0.8190
  702SOL    HW2 2685   5.612   4.129   8.725 -0.6710 -0.1427  1.0014
  703SOL     OW 2686   4.693   8.503   1.123  0.6436 -0.1736  0.4989
  703SOL    HW1 2687   4.638   8.526   1.048 -0.8241 -0.5060  1.4286
  703SOL    HW2 2688   4.735   8.420   1.098  1.6030  0.6186 -0.6412
  704SOL     OW 2689   4.075   4.956   1.940 -0.2473  0.1349  0.4153
  704SOL    HW1 2690   4.097   5.041   1.978 -3.3043  1.0157  0.4714
  704SOL    HW2 2691   4.045   4.904   2.014  0.0926 -0.4694  0.1340
  705SOL     OW 2692   3.954   9.206   4.751 -0.0228 -0.0675  0.4364
  705SOL    HW1 2693   3.963   9.243   4.664 -1.0519 -0.7220  0.0305
  705SOL    HW2 2694   4.044   9.191   4.781  0.4603  2.6992  0.6372
  706SOL     OW 2695   5.990   3.605   2.074  0.1980  0.4218 -0.3611
  706SOL    HW1 2696   5.979   3.690   2.117  0.4752 -0.0429  0.6558
  706SOL    HW2 2697   5.908   3.592   2.026 -0.1345  0.9509  0.0479
  707SOL     OW 2698   1.058   6.445   5.599 -0.5626 -0.0526  0.0236
  707SOL    HW1 2699   1.022   6.431   5.687 -0.9652 -2.0993 -0.4030
  707SOL    HW2 2700   1.061   6.540   5.589 -0.0496  0.2407  2.4161
  708SOL     OW 2701   6.494   0.233   4.544 -0.1634  0.5134  0.2969
  708SOL    HW1 2702   6.574   0.182   4.554  0.6578  1.7370  0.2489
  708SOL    HW2 2703   6.512   0.314   4.592 -2.3527 -0.2091  2.4858
  709SOL     OW 2704   4.942   1.209   1.365  0.5107 -0.4152 -0.6331
  709SOL    HW1 2705   4.881   1.197   1.292 -1.4514 -2.1993  1.1662
  709SOL    HW2 2706   4.893   1.260   1.429  1.6457 -0.2108  0.0947
  710SOL     OW 2707   3.798   9.408   1.943 -0.5315 -0.8066  0.1283
  710SOL    HW1 2708   3.840   9.470   2.004 -1.4631  0.2065 -0.2263
  710SOL    HW2 2709   3.867   9.388   1.880 -0.0885 -0.4600  0.4871
  711SOL     OW 2710   6.130   9.677   1.229 -0.7716 -0.2739  0.6441
  711SOL    HW1 2711   6.096   9.760   1.196  0.0540  0.8819  2.5290
  711SOL    HW2 2712   6.187   9.645   1.159 -0.4149  1.1942  0.2207
  712SOL     OW 2713   7.492   5.037   1.402 -0.0634 -0.2932 -0.3513
  712SOL    HW1 2714   7.576   5.081   1.392  0.3720 -0.9214  0.4042
  712SOL    HW2 2715   7.497   4.962   1.342 -0.1828 -0.1989 -0.4805
  713SOL     OW 2716   0.671   3.473   0.675  0.2815  0.2282  0.3623
  713SOL    HW1 2717   0.579   3.450   0.659  0.5136 -1.7108  1.5022
  713SOL    HW2 2718   0.672   3.507   0.764  0.7118  0.0109  0.4393
  714SOL     OW 2719   3.215   7.723   2.349  0.0469  0.1024 -0.5707
  714SOL    HW1 2720   3.252   7.769   2.274 -0.0700  0.5112 -0.3808
  714SOL    HW2 2721   3.165   7.789   2.396  0.8851  0.0886  0.3940
  715SOL     OW 2722   9.110   6.987   2.321  0.4106 -0.1762  0.4264
  715SOL    HW1 2723   9.206   6.992   2.322  0.3656  0.8934  0.9406
  715SOL    HW2 2724   9.091   6.896   2.297  1.5563 -0.4870  0.6287
  716SOL     OW 2725   7.669   1.943   0.120  0.0459 -0.0604 -0.2865
  716SOL    HW1 2726   7.618   1.965   0.197 -0.9297 -1.3341 -0.5317
  716SOL    HW2 2727   7.743   1.892   0.155  0.2656  0.3895 -0.0876
  717SOL     OW 2728   1.815   7.396   8.048  0.0141  0.1226  0.2481
  717SOL    HW1 2729   1.891   7.390   8.105 -1.0998  0.0101  1.7866
  717SOL    HW2 2730   1.779   7.483   8.065 -1.2827 -0.5230  1.0464
  718SOL     OW 2731   5.694   2.531   8.745 -0.2409 -0.3130  0.1691
  718SOL    HW1 2732   5.751   2.585   8.799 -1.1566  2.0728 -1.1061
  718SOL    HW2 2733   5.610   2.533   8.790 -0.7260  0.8054 -0.7401
  719SOL     OW 2734   1.878   6.337   5.583  0.4855  0.7421  0.3287
  719SOL    HW1 2735   1.824   6.293   5.517 -2.4442  2.3466  1.4851
  719SOL    HW2 2736   1.960   6.356   5.538  0.0866 -1.6452 -1.6037
  720SOL     OW 2737   4.172   8.656   4.126 -0.2324 -0.0170  0.2071
  720SOL    HW1 2738   4.221   8.737   4.140  2.9216 -2.0389  2.0878
  720SOL    HW2 2739   4.212   8.616   4.049 -1.2689 -0.1402 -0.2822
  721SOL     OW 2740   9.829   1.674   9.868  0.2118  0.3535 -0.0746
  721SOL    HW1 2741   9.803   1.700   9.956  1.2041 -0.8076  0.5937
  721SOL    HW2 2742   9.756   1.621   9.836 -0.0582  0.5983  0.1340
  722SOL     OW 2743   8.405   6.638   5.574  0.4186  0.4472 -0.1034
  722SOL    HW1 2744   8.409   6.646   5.670  0.3224  0.4690 -0.1011
  722SOL    HW2 2745   8.448   6.555   5.555  1.9869  1.2246 -0.1678
  723SOL     OW 2746   9.888   7.930   4.318 -0.0433 -0.1970 -0.5123
  723SOL    HW1 2747   9.796   7.951   4.332 -0.0146 -0.0736 -0.5096
  723SOL    HW2 2748   9.910   7.974   4.236 -0.1416 -0.6976 -0.8118
  724SOL     OW 2749   4.794   9.866   6.799 -0.0440 -0.1914  1.0159
  724SOL    HW1 2750   4.770   9.904   6.883 -3.4852  3.7820 -1.3455
  724SOL    HW2 2751   4.713   9.828   6.766  1.1128 -1.3161 -0.6468
  725SOL     OW 2752   7.423   2.483   2.178  0.9075  0.4190 -0.4087
  725SOL    HW1 2753   7.329   2.475   2.188  0.7076  2.3512 -0.4312
  725SOL    HW2 2754   7.457   2.482   2.268  0.5907  2.2215 -0.2328
  726SOL     OW 2755   4.533   5.421   8.152  0.4453 -0.1737 -0.2002
  726SOL    HW1 2756   4.476   5.495   8.129 -0.6354 -1.5279 -2.1452
  726SOL    HW2 2757   4.604   5.425   8.087  0.8363 -0.3625  0.2128
  727SOL     OW 2758   4.827   3.248   0.154 -0.2506  0.1855 -0.4951
  727SOL    HW1 2759   4.916   3.272   0.180  0.6664 -2.0300 -1.3595
  727SOL    HW2 2760   4.792   3.327   0.112 -0.3611  2.5684  3.4790
  728SOL     OW 2761   3.023   6.797   4.621  0.2922 -0.5605  1.0442
  728SOL    HW1 2762   2.955   6.730   4.620 -0.4385  0.0852 -1.3207
  728SOL    HW2 2763   3.005   6.850   4.543  1.4268  1.7852  2.2507
  729SOL     OW 2764   0.425   4.367   6.604  0.0939 -0.5932 -0.0304
  729SOL    HW1 2765   0.373   4.420   6.544 -0.7204 -0.6828  0.5833
  729SOL    HW2 2766   0.445   4.288   6.555 -2.4310 -1.6410  0.5110
  730SOL     OW 2767   1.053   5.525   0.919  0.2465 -0.0643  0.3755
  730SOL    HW1 2768   1.124   5.584   0.893 -0.7166  1.0265  0.1534
  730SOL    HW2 2769   1.065   5.512   1.013 -0.3028  1.5875  0.6966
  731SOL     OW 2770   6.118   2.359   0.599 -0.3642 -0.5270 -0.4937
  731SOL    HW1 2771   6.141   2.443   0.559 -0.1820 -0.6103 -0.5670
  731SOL    HW2 2772   6.025   2.367   0.620 -0.6638 -0.7645 -1.6562
  732SOL     OW 2773   7.062   8.016   1.818  0.5472 -0.0062 -0.4390
  732SOL    HW1 2774   7.015   8.039   1.738  0.1645  1.0154  0.0694
  732SOL    HW2 2775   7.000   7.965   1.869  0.4666  0.1461 -0.3837
  733SOL     OW 2776   3.860   7.636   4.511  0.1850 -0.2633  0.1236
  733SOL    HW1 2777   3.952   7.643   4.487  0.1958 -1.1443 -0.1354
  733SOL    HW2 2778   3.860   7.583   4.590 -0.0689  0.1215  0.3831
  734SOL     OW 2779   3.327   0.791   2.845 -0.3343 -0.3449  0.6416
  734SOL    HW1 2780   3.297   0.842   2.769  0.2440 -1.7171 -0.5325
  734SOL    HW2 2781   3.383   0.723   2.809  2.5186  0.7887  2.5667
  735SOL     OW 2782   1.464   6.080   4.954  0.4143 -0.0446 -0.1134
  735SOL    HW1 2783   1.483   5.997   4.911  0.3497  0.1643 -0.5512
  735SOL    HW2 2784   1.392   6.118   4.903 -1.6421 -1.0741  1.8111
  736SOL     OW 2785   6.774   0.954   0.104  0.2696 -0.3500 -0.2108
  736SOL    HW1 2786   6.807   0.933   0.017  1.7201 -0.1377  0.2715
  736SOL    HW2 2787   6.724   1.035   0.091 -2.4342 -2.0489 -1.4203
  737SOL     OW 2788   6.468   2.073   6.659  0.1144 -0.0137 -0.5642
  737SOL    HW1 2789   6.431   2.144   6.606  2.8417  0.8597 -1.4507
  737SOL    HW2 2790   6.521   2.022   6.599 -0.2939 -1.7597  0.4670
  738SOL     OW 2791   3.311   7.445   5.514  0.3527  0.5421 -0.3444
  738SOL    HW1 2792   3.327   7.351   5.523  0.9490  0.6356 -0.3661
  738SOL    HW2 2793   3.357   7.484   5.589 -0.3161  0.7801 -0.0455
  739SOL     OW 2794   8.759   1.192   6.535  0.2246 -0.4023  0.0706
  739SOL    HW1 2795   8.682   1.191   6.479  0.2961 -0.7041 -0.0256
  739SOL    HW2 2796   8.724   1.194   6.624  0.1024 -0.5793  0.0280
  740SOL     OW 2797   7.513   0.504   7.749 -0.5870  0.6852  0.1507
  740SOL    HW1 2798   7.490   0.546   7.666 -0.5958 -0.8844 -0.6991
  740SOL    HW2 2799   7.468   0.419   7.745 -0.5515  0.5741  1.7562
  741SOL     OW 2800   8.956   5.198   6.974  0.3499  0.1962 -0.2848
  741SOL    HW1 2801   9.030   5.155   6.932  2.5034  1.6425  1.7458
  741SOL    HW2 2802   8.913   5.129   7.024  0.6653 -0.5489 -1.0127
  742SOL     OW 2803   8.967   3.991   9.720  0.1533  0.2178 -0.1817
  742SOL    HW1 2804   9.022   4.052   9.671  1.6180 -1.4076 -0.6632
  742SOL    HW2 2805   9.029   3.933   9.765 -1.1816 -0.0300  1.4253
  743SOL     OW 2806   2.320   7.157   3.829 -0.5413 -0.0398 -0.1745
  743SOL    HW1 2807   2.302   7.100   3.904 -0.8748 -0.4117 -0.5334
  743SOL    HW2 2808   2.252   7.224   3.834 -1.7043 -1.0965 -1.1768
  744SOL     OW 2809   8.384   1.887   5.008  0.1866 -0.1403 -0.0804
  744SOL    HW1 2810   8.411   1.800   5.035 -1.9004 -0.7014  0.3150
  744SOL    HW2 2811   8.458   1.920   4.955  1.4298 -1.7010  0.6217
  745SOL     OW 2812   2.522   2.455   4.702  0.4216 -0.2707 -0.3498
  745SOL    HW1 2813   2.544   2.378   4.650  0.2020 -0.4716 -0.1478
  745SOL    HW2 2814   2.523   2.528   4.640  1.4482 -0.2978 -0.3930
  746SOL     OW 2815   9.852   8.664   9.624 -0.3482  0.3286  0.1093
  746SOL    HW1 2816   9.779   8.713   9.662 -1.7532  1.3967 -3.5529
  746SOL    HW2 2817   9.918   8.730   9.605 -0.1060 -0.0026 -0.2096
  747SOL     OW 2818   5.356   3.637   4.028  0.0701 -0.1438 -0.3028
  747SOL    HW1 2819   5.446   3.609   4.009  0.5527  1.0018  0.2269
  747SOL    HW2 2820   5.323   3.670   3.944  0.4822  0.3095 -0.2928
  748SOL     OW 2821   0.361   2.225   3.112 -0.6051  0.5282 -0.1238
  748SOL    HW1 2822   0.405   2.177   3.183 -0.6660 -1.0621 -1.1133
  748SOL    HW2 2823   0.293   2.165   3.081 -1.6149  1.8360 -0.4893
  749SOL     OW 2824   3.041   9.399   8.667 -0.2053 -0.3662 -1.0785
  749SOL    HW1 2825   3.041   9.321   8.612 -1.7424  0.2647 -2.0323
  749SOL    HW2 2826   2.952   9.433   8.661  0.0937  0.7659  0.3337
  750SOL     OW 2827   1.280   4.923   1.190  0.0296  0.0363  0.0846
  750SOL    HW1 2828   1.314   4.917   1.279 -2.4092  0.9362  1.1461
  750SOL    HW2 2829   1.302   5.011   1.161 -1.4815  0.6947  0.8517
  751SOL     OW 2830   6.504   7.658   3.536  0.2685 -0.4140  0.1470
  751SOL    HW1 2831   6.494   7.738   3.485  2.5409 -1.0198 -1.3731
  751SOL    HW2 2832   6.592   7.662   3.572  0.0103 -1.7051  1.0223
  752SOL     OW 2833   1.001   4.047   0.979  0.2490 -0.7788  0.3736
  752SOL    HW1 2834   0.923   4.099   0.961 -0.4326 -1.2833  1.7739
  752SOL    HW2 2835   0.987   4.011   1.066  2.2375 -0.5585  0.8383
  753SOL     OW 2836   2.054   9.076   7.973 -0.0241  0.0959 -0.1172
  753SOL    HW1 2837   2.132   9.115   8.014 -1.1417  2.4422 -0.0146
  753SOL    HW2 2838   2.029   9.139   7.905 -2.7586  0.3177  0.9608
  754SOL     OW 2839   0.085   2.120   8.876 -0.1705  0.1477 -0.2316
  754SOL    HW1 2840   0.073   2.210   8.907  0.5458  0.6518 -1.3851
  754SOL    HW2 2841   0.089   2.127   8.781  0.8940 -0.9816 -0.2953
  755SOL     OW 2842   0.017   5.719   0.248  0.1418 -0.2042  0.1530
  755SOL    HW1 2843   0.022   5.780   0.322 -0.2259  0.1632 -0.1175
  755SOL    HW2 2844   0.014   5.776   0.171 -1.9416 -0.4805 -0.0356
  756SOL     OW 2845   5.000   4.187   6.448  0.0282  0.2559  0.5493
  756SOL    HW1 2846   5.034   4.276   6.462 -1.5575  1.1676 -0.9818
  756SOL    HW2 2847   5.042   4.134   6.517 -1.7304  2.8730  3.9722
  757SOL     OW 2848   8.887   5.428   1.057 -0.1591  0.0299  0.4912
  757SOL    HW1 2849   8.834   5.471   0.989  1.1635 -0.5386 -0.9723
  757SOL    HW2 2850   8.827   5.365   1.097 -0.5901 -0.7313 -1.2349
  758SOL     OW 2851   9.184   6.081   1.844  0.1604  0.3675  0.2500
  758SOL    HW1 2852   9.269   6.113   1.815 -1.2929  2.8911 -1.6779
  758SOL    HW2 2853   9.178   6.109   1.936  0.6158  2.0676 -0.2010
  759SOL     OW 2854   2.267   7.704   2.514  0.4158 -0.6530  0.0045
  759SOL    HW1 2855   2.175   7.731   2.511 -0.4870 -3.4409 -0.9340
  759SOL    HW2 2856   2.302   7.745   2.593 -2.4217 -1.6905  1.9509
  760SOL     OW 2857   9.538   0.128   8.504  0.0033  0.5861  0.4873
  760SOL    HW1 2858   9.588   0.079   8.439  0.9656 -0.1176  1.7136
  760SOL    HW2 2859   9.494   0.062   8.557 -0.6930  1.1402  0.6206
  761SOL     OW 2860   3.464   6.836   1.539 -0.0994 -0.1668  0.4051
  761SOL    HW1 2861   3.379   6.825   1.583 -0.0108 -0.6717  0.4591
  761SOL    HW2 2862   3.448   6.905   1.474 -0.8900 -1.0801 -0.4107
  762SOL     OW 2863   2.003   3.866   4.910  0.3530 -0.9281  0.4232
  762SOL    HW1 2864   2.008   3.796   4.976  0.7864  0.1191  1.5275
  762SOL    HW2 2865   1.936   3.925   4.943  0.5682 -0.3872 -0.0916
  763SOL     OW 2866   9.636   6.857   5.561  0.3238 -0.0481 -0.1901
  763SOL    HW1 2867   9.630   6.919   5.634 -3.7330  0.9977 -1.1978
  763SOL    HW2 2868   9.704   6.893   5.504  0.3167  1.6413  0.8082
  764SOL     OW 2869   2.464   1.300   5.432 -0.3795 -0.1846  0.4879
  764SOL    HW1 2870   2.381   1.298   5.385  0.0258  2.0644 -0.4669
  764SOL    HW2 2871   2.472   1.391   5.462  0.7362 -0.8650  2.4716
  765SOL     OW 2872   0.811   0.862   8.016 -0.3505  0.4147 -0.1920
  765SOL    HW1 2873   0.902   0.834   8.028 -1.2512 -3.5091 -1.2035
  765SOL    HW2 2874   0.814   0.923   7.942  1.1823 -2.3998 -2.6303
  766SOL     OW 2875   0.508   2.896   9.932 -0.5439 -0.1464 -0.4592
  766SOL    HW1 2876   0.484   2.896  10.025 -2.1830  2.1185 -0.7998
  766SOL    HW2 2877   0.473   2.813   9.898 -1.2928 -0.2945  0.6274
  767SOL     OW 2878   0.901   3.157   1.687 -0.0455 -1.0670 -0.1921
  767SOL    HW1 2879   0.969   3.221   1.706 -0.8439 -0.5807  1.2186
  767SOL    HW2 2880   0.916   3.087   1.750  0.3041 -1.8885 -1.1627
  768SOL     OW 2881   6.764   3.480   1.984 -0.1011 -0.4305 -0.0479
  768SOL    HW1 2882   6.683   3.530   1.999 -0.0608 -0.9361  2.4025
  768SOL    HW2 2883   6.831   3.530   2.029  0.1784 -1.9582  1.3385
  769SOL     OW 2884   3.857   4.854   4.192 -0.2144 -0.7482 -0.7230
  769SOL    HW1 2885   3.860   4.774   4.141  1.1939 -1.5290  0.4947
  769SOL    HW2 2886   3.909   4.835   4.270 -1.2074  0.8181  0.3823
  770SOL     OW 2887   8.886   5.694   0.700 -0.6904 -0.3546  0.3266
  770SOL    HW1 2888   8.932   5.674   0.781  0.7209 -0.5834 -0.5042
  770SOL    HW2 2889   8.870   5.788   0.704 -0.5751 -0.3560  0.8455
  771SOL     OW 2890   8.666   6.001   8.803  0.0792 -0.1436 -0.4170
  771SOL    HW1 2891   8.595   6.043   8.755  0.0796 -0.2244 -0.4899
  771SOL    HW2 2892   8.700   6.069   8.861 -0.9849 -0.4894  0.6538
  772SOL     OW 2893   4.913   2.830   1.157 -0.0916  0.0124  0.2221
  772SOL    HW1 2894   4.943   2.902   1.101  2.3844 -0.2063  1.1354
  772SOL    HW2 2895   4.880   2.874   1.235 -0.5545  0.2090 -0.0778
  773SOL     OW 2896   5.478   2.690   3.925 -1.1157 -0.5826  0.2368
  773SOL    HW1 2897   5.522   2.671   4.008  0.4331  2.3379  0.2331
  773SOL    HW2 2898   5.537   2.658   3.858 -0.0858  1.1386  0.2686
  774SOL     OW 2899   1.023   2.439   8.486 -0.1434  0.1373 -0.1452
  774SOL    HW1 2900   1.028   2.432   8.391 -0.0649  0.7295 -0.1882
  774SOL    HW2 2901   1.113   2.428   8.516 -0.1055  0.3745 -0.1710
  775SOL     OW 2902   1.086   9.316   1.269 -0.2419  0.6148  0.2882
  775SOL    HW1 2903   1.155   9.322   1.204  0.4795 -0.7164  0.9047
  775SOL    HW2 2904   1.128   9.341   1.352  0.0869 -2.1148  1.0286
  776SOL     OW 2905   5.558   7.567   9.912 -0.0550 -0.1230  0.0267
  776SOL    HW1 2906   5.465   7.547   9.928  0.0530 -0.0762  0.7802
  776SOL    HW2 2907   5.563   7.662   9.920 -0.2354  0.0631 -1.7159
  777SOL     OW 2908   3.567   0.755   5.518  0.3303 -0.1360  0.1485
  777SOL    HW1 2909   3.557   0.661   5.529 -2.5499  0.0130 -0.2753
  777SOL    HW2 2910   3.595   0.786   5.604  1.2712 -1.3473  0.3016
  778SOL     OW 2911   6.413   1.628   9.109  0.4180  0.5448  0.0101
  778SOL    HW1 2912   6.443   1.538   9.097 -0.1299  0.4127 -0.4337
  778SOL    HW2 2913   6.398   1.660   9.020  0.0075  0.8636  0.1902
  779SOL     OW 2914   7.521   5.835   3.306  0.2857  0.1378 -0.1035
  779SOL    HW1 2915   7.504   5.783   3.384  0.1244  0.8783  0.3656
  779SOL    HW2 2916   7.545   5.921   3.339  0.7276  0.3183 -0.8645
  780SOL     OW 2917   7.856   6.667   4.876  0.6145  0.6817 -0.1853
  780SOL    HW1 2918   7.895   6.598   4.822  1.1419  0.9575 -0.1665
  780SOL    HW2 2919   7.856   6.744   4.820 -0.0515  0.6500 -0.2328
  781SOL     OW 2920   3.828   1.635   7.778  0.0570  0.1214 -0.0463
  781SOL    HW1 2921   3.843   1.558   7.832  0.3599  0.8279  0.9146
  781SOL    HW2 2922   3.914   1.676   7.769  0.1159 -0.2760 -1.5546
  782SOL     OW 2923   0.113   7.516   5.832  0.1452  0.3131 -0.3880
  782SOL    HW1 2924   0.118   7.435   5.781 -0.9285 -1.3344  1.9314
  782SOL    HW2 2925   0.025   7.550   5.814  0.3029  0.5415 -0.7406
  783SOL     OW 2926   3.654   8.500   4.363  0.2841  0.0051 -0.4176
  783SOL    HW1 2927   3.616   8.509   4.275  2.4188  0.4559 -1.3527
  783SOL    HW2 2928   3.710   8.577   4.372 -0.7205  0.5570  1.8282
  784SOL     OW 2929   6.315   8.954   8.235 -0.5970  0.0966 -0.0087
  784SOL    HW1 2930   6.303   9.028   8.175 -0.9284 -1.2502 -1.7109
  784SOL    HW2 2931   6.362   8.990   8.310  0.5643  1.7192 -1.4417
  785SOL     OW 2932   1.979   8.549   3.397 -0.0198 -0.3362 -0.4665
  785SOL    HW1 2933   1.909   8.570   3.459  0.5869  1.0361 -0.2340
  785SOL    HW2 2934   2.055   8.531   3.451  0.7067  1.5830 -0.7936
  786SOL     OW 2935   1.004   6.179   8.507 -0.8792 -0.3094 -0.0377
  786SOL    HW1 2936   0.938   6.165   8.439  0.4640  1.1732 -1.7263
  786SOL    HW2 2937   0.957   6.226   8.576 -1.3736  2.0900 -1.8550
  787SOL     OW 2938   9.018   6.123   1.435 -0.1637  0.5099  0.3681
  787SOL    HW1 2939   9.042   6.060   1.368 -0.7465  0.3302  0.3257
  787SOL    HW2 2940   9.087   6.189   1.431  0.4074 -0.0752  0.3574
  788SOL     OW 2941   9.897   4.052   8.830 -0.2373 -0.0991  0.0331
  788SOL    HW1 2942   9.948   3.972   8.811  0.0183 -0.0192  0.3836
  788SOL    HW2 2943   9.834   4.056   8.758 -1.1640 -1.3687  0.7285
  789SOL     OW 2944   7.294   2.480   1.815  0.1761 -0.1665 -0.0809
  789SOL    HW1 2945   7.250   2.397   1.828 -0.2670  0.1811  0.6589
  789SOL    HW2 2946   7.269   2.507   1.726 -1.2666  0.1210  0.3968
  790SOL     OW 2947   0.054   2.775   0.362 -0.3923  0.8996  0.7214
  790SOL    HW1 2948   0.125   2.738   0.415 -1.2572  1.2649  2.1740
  790SOL    HW2 2949   0.080   2.866   0.349  0.3730  0.5377 -0.4974
  791SOL     OW 2950   7.039   9.182   9.539 -0.0991  0.9262 -0.1360
  791SOL    HW1 2951   7.007   9.092   9.549 -0.6517  1.0052 -1.0585
  791SOL    HW2 2952   6.968   9.227   9.493  0.4629  1.6656 -0.2931
  792SOL     OW 2953   8.589   9.287   2.378 -0.4481 -0.3704  0.0103
  792SOL    HW1 2954   8.512   9.250   2.334 -0.9603  2.0679 -1.3149
  792SOL    HW2 2955   8.662   9.238   2.341 -1.1791 -1.0467 -0.6045
  793SOL     OW 2956   4.817   0.709   9.725  0.7455  0.2430  0.0205
  793SOL    HW1 2957   4.734   0.754   9.744  1.8777  1.9082  1.2527
  793SOL    HW2 2958   4.825   0.713   9.629  0.0115  1.1856 -0.0157
  794SOL     OW 2959   8.526   3.660   1.322  0.8753  0.0591 -0.0522
  794SOL    HW1 2960   8.488   3.747   1.331 -0.8728 -0.3605 -2.3420
  794SOL    HW2 2961   8.465   3.601   1.365  1.0089 -0.2247 -0.2420
  795SOL     OW 2962   4.024   8.468   9.377  0.0882  0.1329 -0.0151
  795SOL    HW1 2963   3.956   8.504   9.320  0.5501 -1.8467 -1.9290
  795SOL    HW2 2964   3.975   8.429   9.450 -0.7089  0.2101 -0.4907
  796SOL     OW 2965   0.601   3.723   7.088  0.3038 -0.4782  0.0480
  796SOL    HW1 2966   0.649   3.727   7.006  1.0112 -1.0611  0.4255
  796SOL    HW2 2967   0.555   3.639   7.086 -0.0405 -0.2954  0.0566
  797SOL     OW 2968   1.222   4.754   3.248  0.1684 -0.3659  0.1319
  797SOL    HW1 2969   1.146   4.775   3.194  0.4852  1.3820  0.3249
  797SOL    HW2 2970   1.269   4.688   3.197 -2.1362 -2.5649  0.6476
  798SOL     OW 2971   1.011   8.202   1.641 -0.0151  0.5764  0.1947
  798SOL    HW1 2972   0.927   8.179   1.602 -0.5283  1.7939  0.5346
  798SOL    HW2 2973   0.988   8.246   1.723  1.0156 -1.5492  1.7310
  799SOL     OW 2974   0.528   5.380   5.494 -0.2510 -0.2583 -0.2033
  799SOL    HW1 2975   0.452   5.434   5.513  0.1834  0.1549  0.4173
  799SOL    HW2 2976   0.498   5.316   5.430 -2.0324 -2.2293  2.4063
  800SOL     OW 2977   3.746   0.840   1.592 -0.0852  0.5530 -0.1495
  800SOL    HW1 2978   3.747   0.823   1.687 -0.7783  0.2161 -0.1917
  800SOL    HW2 2979   3.678   0.780   1.559 -0.7219  1.5508 -0.6832
  801SOL     OW 2980   3.073   9.393   4.168  0.2079  0.8184 -0.1387
  801SOL    HW1 2981   3.054   9.437   4.084  1.5795  0.9079 -0.4339
  801SOL    HW2 2982   3.098   9.465   4.226  0.9593  0.5955 -0.1757
  802SOL     OW 2983   9.749   3.245   5.051  0.3231 -0.3584  0.5307
  802SOL    HW1 2984   9.663   3.267   5.085  0.6257  0.7294  0.6194
  802SOL    HW2 2985   9.784   3.181   5.113 -1.0262 -2.0589 -0.3505
  803SOL     OW 2986   4.723   7.534   5.264 -0.6023 -0.5090  0.3491
  803SOL    HW1 2987   4.729   7.495   5.352  1.2513 -0.7119  0.1749
  803SOL    HW2 2988   4.742   7.461   5.205 -0.2399 -0.0383 -0.1254
  804SOL     OW 2989   4.385   4.772   5.226  0.3135  0.1528 -0.0333
  804SOL    HW1 2990   4.355   4.698   5.279 -1.5986  0.4512 -0.6008
  804SOL    HW2 2991   4.399   4.734   5.139 -0.4065  0.3847 -0.2582
  805SOL     OW 2992   0.640   7.667   3.722  0.7881 -0.5628  0.1879
  805SOL    HW1 2993   0.544   7.668   3.727  0.7991 -0.4568  0.4156
  805SOL    HW2 2994   0.668   7.692   3.810  1.0183  0.2572 -0.1043
  806SOL     OW 2995   0.519   5.016   2.163 -0.5370  0.0118 -0.0768
  806SOL    HW1 2996   0.569   5.076   2.219  2.2118  0.3644 -2.6755
  806SOL    HW2 2997   0.455   5.072   2.120 -0.0545  0.4989 -0.1796
  807SOL     OW 2998   9.181   5.273   4.571  0.0406 -0.2825  0.5446
  807SOL    HW1 2999   9.188   5.181   4.597 -0.3860 -0.3026  0.5998
  807SOL    HW2 3000   9.116   5.310   4.631  0.6475  0.2045  0.9185
  808SOL     OW 3001   8.135   8.188   0.758 -0.0442  0.3664 -0.3968
  808SOL    HW1 3002   8.208   8.236   0.718  1.1410  0.6700  1.9403
  808SOL    HW2 3003   8.154   8.096   0.739  0.4570  0.4978 -0.5496
  809SOL     OW 3004   9.877   2.623   9.368  0.0753 -0.3295 -0.5994
  809SOL    HW1 3005   9.895   2.672   9.448 -1.2302  0.0702 -0.5234
  809SOL    HW2 3006   9.836   2.687   9.309 -0.4142 -0.9930 -0.9991
  810SOL     OW 3007   6.237   4.852   9.572 -0.0882 -0.0643  0.2731
  810SOL    HW1 3008   6.215   4.886   9.486  1.8982  0.7736  0.0354
  810SOL    HW2 3009   6.201   4.916   9.634 -0.2589  0.0898  0.0135
  811SOL     OW 3010   6.517   7.821   6.244 -0.0025 -0.3087  0.0489
  811SOL    HW1 3011   6.431   7.778   6.243  0.9391 -2.3142  1.1651
  811SOL    HW2 3012   6.529   7.850   6.153 -0.0724 -3.8011 -1.2198
  812SOL     OW 3013   4.275   8.361   2.524 -0.4130  0.0490  0.5196
  812SOL    HW1 3014   4.334   8.285   2.524 -0.2271  0.1898  0.6527
  812SOL    HW2 3015   4.200   8.334   2.472 -0.7302 -0.5244  1.2679
  813SOL     OW 3016   9.941   8.682   2.960 -0.1709 -0.3528  0.3428
  813SOL    HW1 3017  10.003   8.723   3.019  1.0365  0.1914 -1.2252
  813SOL    HW2 3018   9.860   8.731   2.973  0.5271  0.8500  0.3728
  814SOL     OW 3019   4.966   9.225   7.069  0.2758  0.1203 -0.0659
  814SOL    HW1 3020   5.042   9.201   7.015  0.9274  1.5936  0.1397
  814SOL    HW2 3021   4.891   9.209   7.013  0.8860  0.7351 -1.0963
  815SOL     OW 3022   0.802   5.881   2.796  0.1046 -0.0524 -0.4399
  815SOL    HW1 3023   0.746   5.945   2.752 -1.8444 -2.2129 -1.3138
  815SOL    HW2 3024   0.817   5.919   2.883  1.3953  2.8252 -1.7750
  816SOL     OW 3025   3.756   5.862   0.278 -0.5026 -0.1961  0.5109
  816SOL    HW1 3026   3.761   5.948   0.236 -1.5987  0.5930  1.9330
  816SOL    HW2 3027   3.756   5.880   0.372  2.4421 -1.9349  0.9809
  817SOL     OW 3028   0.098   0.982   2.014  0.1950  0.0288 -0.1366
  817SOL    HW1 3029   0.166   0.948   2.074 -0.3951 -1.2906 -0.1725
  817SOL    HW2 3030   0.020   0.930   2.034 -1.0437  1.9869  0.3834
  818SOL     OW 3031   8.916   9.179   6.395 -0.2992  0.0700  0.6704
  818SOL    HW1 3032   8.870   9.250   6.439  0.1204 -0.4890  2.0778
  818SOL    HW2 3033   8.993   9.220   6.355 -0.5952  0.5601  0.5986
  819SOL     OW 3034   0.981   8.405   4.756 -0.3767  0.6853 -0.0162
  819SOL    HW1 3035   0.960   8.494   4.785  0.4199  1.0239 -0.4331
  819SOL    HW2 3036   0.959   8.404   4.663 -0.6482  0.3597  0.0515
  820SOL     OW 3037   0.694   2.677   8.389 -0.4415  0.0768 -0.0529
  820SOL    HW1 3038   0.699   2.706   8.480  0.4756  1.2164 -0.4475
  820SOL    HW2 3039   0.709   2.582   8.394 -0.9643  0.0201  1.0140
  821SOL     OW 3040   3.854   5.385   3.045  0.0211 -0.3159 -0.6891
  821SOL    HW1 3041   3.825   5.472   3.074  0.7558 -0.0110 -0.8328
  821SOL    HW2 3042   3.785   5.326   3.074 -0.1618  0.2303  0.0240
  822SOL     OW 3043   8.017   4.239   9.888 -0.0796 -0.2435  0.4350
  822SOL    HW1 3044   8.103   4.249   9.928  0.3983 -1.1839 -0.3183
  822SOL    HW2 3045   7.961   4.300   9.935  0.4890 -1.1930  2.4593
  823SOL     OW 3046   2.496   3.035   2.525 -0.0048 -0.4788  0.3206
  823SOL    HW1 3047   2.520   3.107   2.466 -0.8751 -0.8231 -0.4845
  823SOL    HW2 3048   2.542   3.055   2.607  2.1674 -0.5762 -0.7945
  824SOL     OW 3049   7.585   3.463   9.490  0.2129  0.0133  0.3956
  824SOL    HW1 3050   7.670   3.426   9.470  2.0386  2.9759  1.9070
  824SOL    HW2 3051   7.581   3.466   9.586 -1.1685  0.8267  0.3499
  825SOL     OW 3052   8.740   9.331   6.566  0.4941 -0.0207  0.4338
  825SOL    HW1 3053   8.673   9.263   6.572  0.3012  0.0817 -0.4191
  825SOL    HW2 3054   8.786   9.326   6.649  0.2330 -0.9358  0.5405
  826SOL     OW 3055   0.843   2.129   6.650  0.0565 -0.2616 -0.4165
  826SOL    HW1 3056   0.816   2.215   6.618  1.1611  0.7612  1.2365
  826SOL    HW2 3057   0.795   2.118   6.732  0.0208 -1.1807 -0.5505
  827SOL     OW 3058   3.432   4.091   8.947 -0.1604 -0.2433 -0.3951
  827SOL    HW1 3059   3.527   4.082   8.948 -0.0844  0.3436 -1.1736
  827SOL    HW2 3060   3.402   4.025   8.885 -0.3520 -1.0815  0.5718
  828SOL     OW 3061   2.290   8.785   0.323 -0.4539  0.1097 -0.0440
  828SOL    HW1 3062   2.250   8.835   0.252 -2.3312  0.5020  1.2222
  828SOL    HW2 3063   2.219   8.732   0.358  0.6984 -0.9102  0.8277
  829SOL     OW 3064   1.446   1.363   7.363 -0.1322  0.4296  0.4082
  829SOL    HW1 3065   1.453   1.456   7.343  1.0138  0.3697  0.4286
  829SOL    HW2 3066   1.475   1.356   7.454  2.4308 -0.2295 -0.3759
  830SOL     OW 3067   1.893   5.623   0.922  0.0817 -0.0148  0.0644
  830SOL    HW1 3068   1.982   5.645   0.897  0.0545 -0.2330 -0.2268
  830SOL    HW2 3069   1.864   5.697   0.976  1.1874 -0.9130  1.9684
  831SOL     OW 3070   9.446   4.684   1.693  0.9789  0.1672 -0.7292
  831SOL    HW1 3071   9.452   4.758   1.754 -0.2755 -0.4588  0.1924
  831SOL    HW2 3072   9.352   4.669   1.682  1.2099 -1.3857 -0.7906
  832SOL     OW 3073   9.186   9.689   3.421  0.0816  0.2125  0.3565
  832SOL    HW1 3074   9.172   9.760   3.483 -2.1035  0.4002 -0.2738
  832SOL    HW2 3075   9.204   9.612   3.477  3.2873  1.2864  1.0255
  833SOL     OW 3076   9.028   6.304   6.149  0.0926  0.8297  0.0938
  833SOL    HW1 3077   9.022   6.257   6.066 -0.6922  0.6901  0.2269
  833SOL    HW2 3078   9.121   6.300   6.172  0.0128 -0.8122  0.2000
  834SOL     OW 3079   8.050   0.966   4.652  0.4356 -0.0894  0.5939
  834SOL    HW1 3080   8.101   1.034   4.608 -0.2460  0.3733  0.5060
  834SOL    HW2 3081   8.114   0.899   4.675  1.3644  1.1760  1.8732
  835SOL     OW 3082   2.125   8.820   8.327  0.4612 -0.4072  0.3757
  835SOL    HW1 3083   2.060   8.812   8.396 -0.6871 -0.2560 -0.6450
  835SOL    HW2 3084   2.086   8.881   8.264  1.7150 -0.0939 -0.1389
  836SOL     OW 3085   7.895   8.195   8.802 -0.3697 -0.5373  0.1769
  836SOL    HW1 3086   7.826   8.130   8.789  0.1763 -1.0265 -0.3855
  836SOL    HW2 3087   7.961   8.172   8.736 -1.6720  2.6833 -2.5233
  837SOL     OW 3088   2.334   7.802   9.062  0.1613  0.3919 -0.2344
  837SOL    HW1 3089   2.325   7.829   8.971  1.1835  1.4565 -0.0340
  837SOL    HW2 3090   2.315   7.881   9.113 -0.4053 -0.1903  0.4871
  838SOL     OW 3091   3.755   2.480   8.726  0.1363  0.2091 -0.2415
  838SOL    HW1 3092   3.744   2.396   8.681 -0.5305  0.1267  0.0709
  838SOL    HW2 3093   3.836   2.469   8.776 -1.3192 -1.2449  1.9512
  839SOL     OW 3094   9.691   3.000   9.516 -0.2584  0.4819  0.3878
  839SOL    HW1 3095   9.755   2.993   9.445 -0.2031  1.3161  0.3475
  839SOL    HW2 3096   9.611   3.029   9.473 -0.4797  0.0949  0.5378
  840SOL     OW 3097   6.084   5.100   8.605 -0.0640  0.5850  0.2512
  840SOL    HW1 3098   6.049   5.184   8.635 -0.5183  0.0216  1.4018
  840SOL    HW2 3099   6.145   5.074   8.674 -1.4117 -0.9309  0.9416
  841SOL     OW 3100   1.409   7.194   5.112  0.4222  0.0426  0.2246
  841SOL    HW1 3101   1.339   7.248   5.148  0.1550 -0.4300  0.4337
  841SOL    HW2 3102   1.487   7.250   5.114  0.4729 -0.0290  1.7838
  842SOL     OW 3103   2.407   6.054   4.998  0.4736 -0.6591  0.3084
  842SOL    HW1 3104   2.442   6.143   4.996  2.0960 -1.2278  1.8306
  842SOL    HW2 3105   2.462   6.005   4.936  0.1379 -0.8108  0.1246
  843SOL     OW 3106   6.942   5.476   9.674  0.1374  0.2941  0.3599
  843SOL    HW1 3107   6.873   5.417   9.703 -0.4049 -0.2624 -1.8544
  843SOL    HW2 3108   6.916   5.502   9.586  1.9856  1.3017  0.0593
  844SOL     OW 3109   5.456   7.144   7.402 -0.3476  0.0408 -0.1485
  844SOL    HW1 3110   5.494   7.212   7.458 -0.7199  0.9847 -0.9931
  844SOL    HW2 3111   5.367   7.133   7.435 -0.6128  0.6971 -0.6059
  845SOL     OW 3112   7.252   2.729   7.752  0.8831  0.7094 -0.6242
  845SOL    HW1 3113   7.212   2.729   7.665  2.2780  1.2605 -1.2970
  845SOL    HW2 3114   7.193   2.782   7.805  0.1511  0.5894 -1.2917
  846SOL     OW 3115   8.452   7.640   8.146 -0.6756 -0.4782 -0.0452
  846SOL    HW1 3116   8.368   7.595   8.137 -0.8859 -0.1021  0.0642
  846SOL    HW2 3117   8.433   7.732   8.129 -0.0625 -0.5591 -1.2698
  847SOL     OW 3118   7.188   9.127   9.306  0.8096 -0.0883 -0.1322
  847SOL    HW1 3119   7.145   9.151   9.388 -3.3407 -1.3346 -1.7186
  847SOL    HW2 3120   7.195   9.209   9.258 -2.1693 -0.0707 -0.7337
  848SOL     OW 3121   6.585   7.228   5.972  0.1418 -0.2377 -0.0954
  848SOL    HW1 3122   6.501   7.270   5.956  0.1489 -0.1988 -0.0326
  848SOL    HW2 3123   6.580   7.144   5.926  0.6050  0.3723 -1.3026
  849SOL     OW 3124   7.190   6.835   1.279 -0.0037  0.3080  0.3951
  849SOL    HW1 3125   7.277   6.833   1.239  0.0903 -0.0113  0.6124
  849SOL    HW2 3126   7.195   6.905   1.345  0.1630  0.1264  0.5755
  850SOL     OW 3127   3.552   4.331   0.363 -0.1286  0.0588 -0.1408
  850SOL    HW1 3128   3.553   4.402   0.298  1.4232 -0.0206 -0.2353
  850SOL    HW2 3129   3.486   4.270   0.330  1.9427 -0.9756 -2.7901
  851SOL     OW 3130   3.697   2.583   5.622  0.1380  0.1034  0.1487
  851SOL    HW1 3131   3.666   2.659   5.671  0.9215  0.5034  0.0468
  851SOL    HW2 3132   3.738   2.620   5.544  2.3296 -0.2526  1.0465
  852SOL     OW 3133   1.959   7.608   3.479  0.5640 -0.2283 -0.3743
  852SOL    HW1 3134   2.037   7.562   3.450 -0.1428 -1.0395 -1.0573
  852SOL    HW2 3135   1.916   7.548   3.540 -0.0967 -0.2634 -0.8641
  853SOL     OW 3136   9.057   2.160   2.020  0.1464  0.0250  0.0869
  853SOL    HW1 3137   9.007   2.232   1.982  0.5214  0.3208  0.1495
  853SOL    HW2 3138   9.149   2.181   2.002  0.6353  1.6823  3.5396
  854SOL     OW 3139   0.031   0.979   0.019 -0.2994  0.3419  0.7210
  854SOL    HW1 3140   0.091   0.909   0.044  0.0579  0.9279  1.5318
  854SOL    HW2 3141   0.087   1.044  -0.023 -0.5715  0.3243  0.3245
  855SOL     OW 3142   8.927   5.184   3.090 -0.1786 -0.5984  0.0390
  855SOL    HW1 3143   8.934   5.259   3.149 -0.4466 -0.8568  0.4049
  855SOL    HW2 3144   8.933   5.108   3.147 -2.5208 -0.8759  0.0422
  856SOL     OW 3145   5.766   0.694   4.766  0.8150 -0.7486  0.2770
  856SOL    HW1 3146   5.828   0.624   4.743 -0.9390 -2.7965  1.4419
  856SOL    HW2 3147   5.700   0.650   4.819  0.1301  2.0290  1.8792
  857SOL     OW 3148   4.762   3.672   8.828  0.4095 -0.2186 -0.5994
  857SOL    HW1 3149   4.815   3.642   8.902 -1.1301 -0.1454  0.5932
  857SOL    HW2 3150   4.734   3.591   8.784  1.4900 -0.2549 -1.2391
  858SOL     OW 3151   8.390   6.296   4.418 -0.3195  0.3075 -0.5609
  858SOL    HW1 3152   8.403   6.233   4.347  0.2651  0.6052 -0.7261
  858SOL    HW2 3153   8.479   6.317   4.448 -0.5670 -0.0760  0.4952
  859SOL     OW 3154   8.444   6.221   4.931 -0.2296 -0.0166  0.3596
  859SOL    HW1 3155   8.484   6.236   5.016  0.7125  0.2206 -0.1092
  859SOL    HW2 3156   8.357   6.186   4.951 -0.0789  0.1741  1.4095
  860SOL     OW 3157   1.681   1.703   7.571  0.4138  0.1158 -0.4728
  860SOL    HW1 3158   1.590   1.733   7.567  0.4385  0.1697 -0.6350
  860SOL    HW2 3159   1.703   1.681   7.480 -0.0373 -1.6649 -0.1799
  861SOL     OW 3160   8.658   7.882   3.291  0.1198  0.2309 -0.0180
  861SOL    HW1 3161   8.600   7.955   3.313 -0.1026 -0.0460  0.3321
  861SOL    HW2 3162   8.745   7.922   3.281  0.2602  0.3715  1.4751
  862SOL     OW 3163   4.109   5.813   8.255  0.3309 -0.4442  0.0643
  862SOL    HW1 3164   4.133   5.904   8.268  3.4272 -0.9484 -1.2937
  862SOL    HW2 3165   4.112   5.774   8.343  0.1586  0.4769  0.4861
  863SOL     OW 3166   1.522   1.864   4.304 -0.0728 -0.2810 -0.8125
  863SOL    HW1 3167   1.521   1.954   4.338 -1.3202 -0.7133  0.4043
  863SOL    HW2 3168   1.522   1.874   4.209  0.7122  0.9881 -0.7078
  864SOL     OW 3169   4.748   5.993   0.887 -0.1273 -0.2547 -0.1064
  864SOL    HW1 3170   4.689   6.068   0.898  0.9734  1.2770 -3.2287
  864SOL    HW2 3171   4.691   5.917   0.891 -1.3167  0.6319  3.1012
  865SOL     OW 3172   8.417   0.272   3.500 -0.2395 -0.6465 -0.0540
  865SOL    HW1 3173   8.338   0.256   3.551  0.3838 -1.2295  0.7510
  865SOL    HW2 3174   8.390   0.254   3.409 -1.6220  1.3908 -0.1196
  866SOL     OW 3175   3.674   4.431   6.336 -0.2092  0.2473  0.3389
  866SOL    HW1 3176   3.753   4.439   6.390 -0.6536 -0.3989  1.0963
  866SOL    HW2 3177   3.696   4.363   6.272 -0.2790 -0.1872  0.7759
  867SOL     OW 3178   8.443   2.991   9.159 -0.0821 -0.0594 -0.3773
  867SOL    HW1 3179   8.389   2.926   9.203  1.0119 -1.3720 -0.8994
  867SOL    HW2 3180   8.512   2.940   9.116 -0.0973  1.3216 -2.1456
  868SOL     OW 3181   7.957   1.149   9.224 -0.0036  0.2775 -0.0613
  868SOL    HW1 3182   7.865   1.143   9.197 -0.0231 -0.8982  0.2179
  868SOL    HW2 3183   7.956   1.208   9.300 -0.8904 -1.5672  1.4359
  869SOL     OW 3184   2.848   4.842   3.087  0.3786  0.5856 -0.9097
  869SOL    HW1 3185   2.805   4.758   3.103  0.3139  0.9455  0.9895
  869SOL    HW2 3186   2.817   4.898   3.158  0.5614  2.1770 -2.0428
  870SOL     OW 3187   2.820   8.867   3.512 -0.7176  0.5591 -0.4721
  870SOL    HW1 3188   2.820   8.843   3.604 -0.6370  0.6367 -0.4521
  870SOL    HW2 3189   2.739   8.830   3.477 -1.6553  2.0460  0.0221
  871SOL     OW 3190   1.390   2.981   0.301 -0.2306  0.2209  0.6106
  871SOL    HW1 3191   1.358   3.063   0.266  0.4072  0.4215  0.4766
  871SOL    HW2 3192   1.357   2.914   0.242  0.7483  0.5451 -0.3287
  872SOL     OW 3193   1.616   3.089   7.296 -0.2527 -0.0405 -0.1283
  872SOL    HW1 3194   1.605   3.179   7.266  1.2709  0.1130 -0.2712
  872SOL    HW2 3195   1.700   3.088   7.341  0.3992 -1.6840 -1.2871
  873SOL     OW 3196   3.255   4.759   9.308  0.2241  0.3547 -0.0044
  873SOL    HW1 3197   3.216   4.788   9.391 -1.4167 -0.0952 -0.5770
  873SOL    HW2 3198   3.256   4.664   9.315 -1.4318  0.2188 -1.1053
  874SOL     OW 3199   8.553   2.921   4.773 -0.2407 -0.0259  0.8755
  874SOL    HW1 3200   8.532   2.995   4.829  0.7922 -0.0007  1.2573
  874SOL    HW2 3201   8.499   2.933   4.695 -2.7868 -0.8337  2.4109
  875SOL     OW 3202   8.334   9.578   1.639 -0.5694 -0.3242 -0.0720
  875SOL    HW1 3203   8.313   9.658   1.591  1.4612  0.2804 -0.0357
  875SOL    HW2 3204   8.394   9.606   1.708 -2.2034 -1.4209  1.8969
  876SOL     OW 3205   2.734   4.139   7.074  0.2965 -0.0516  0.3282
  876SOL    HW1 3206   2.743   4.234   7.081 -1.1809  0.1361  0.0690
  876SOL    HW2 3207   2.823   4.106   7.064  0.8901  1.2427  1.1732
  877SOL     OW 3208   4.580   7.378   9.945 -0.3384 -0.2273  0.3113
  877SOL    HW1 3209   4.626   7.311   9.895  0.3859  0.5932 -0.1527
  877SOL    HW2 3210   4.628   7.459   9.927 -1.5822  0.5465  0.3197
  878SOL     OW 3211   8.388   6.201   5.296  0.4765  0.2522 -0.0256
  878SOL    HW1 3212   8.339   6.136   5.246  0.7489 -0.1539  0.2204
  878SOL    HW2 3213   8.417   6.153   5.374  2.5810  0.0150 -0.8829
  879SOL     OW 3214   8.745   9.574   0.859  0.4028 -0.1281  0.1291
  879SOL    HW1 3215   8.797   9.502   0.823  1.6676 -0.7627  2.9522
  879SOL    HW2 3216   8.675   9.530   0.908  0.2887  0.6193  0.6448
  880SOL     OW 3217   9.791   4.882   9.646 -0.0337  0.4466 -0.5103
  880SOL    HW1 3218   9.706   4.923   9.633  0.1648  0.8456 -0.5791
  880SOL    HW2 3219   9.839   4.944   9.702  0.2826  0.3219 -0.6419
  881SOL     OW 3220   3.728   2.263   9.923 -0.1823 -0.1261  0.1730
  881SOL    HW1 3221   3.728   2.359   9.927 -1.5632 -0.0917 -0.0570
  881SOL    HW2 3222   3.725   2.236  10.015  1.6756  0.0040  0.2991
  882SOL     OW 3223   8.780   2.871   2.842 -0.2973 -0.7759 -0.2661
  882SOL    HW1 3224   8.726   2.933   2.893  0.1304 -0.1221 -0.5954
  882SOL    HW2 3225   8.726   2.852   2.765 -1.0815 -2.0126  0.5475
  883SOL     OW 3226   1.361   0.562   6.036  0.5888  0.4921 -0.7426
  883SOL    HW1 3227   1.352   0.565   5.940 -0.3152  1.2889 -0.6415
  883SOL    HW2 3228   1.373   0.469   6.055 -2.4569 -0.1316 -1.3841
  884SOL     OW 3229   5.901   2.679   5.364 -0.2511  0.0785  0.1435
  884SOL    HW1 3230   5.810   2.652   5.377 -0.2496 -0.0922 -0.1809
  884SOL    HW2 3231   5.947   2.646   5.441 -1.1549  3.6857  2.4498
  885SOL     OW 3232   4.357   7.121   5.495 -0.0824  0.1258  0.4351
  885SOL    HW1 3233   4.409   7.144   5.418  0.2729  0.2834  0.7214
  885SOL    HW2 3234   4.402   7.046   5.534  0.0423  0.3863  0.7942
  886SOL     OW 3235   5.116   8.436   9.513  0.3422  0.0229 -0.5339
  886SOL    HW1 3236   5.103   8.384   9.433  1.2153  0.8673 -1.2603
  886SOL    HW2 3237   5.211   8.447   9.518  0.2712  0.2196  0.4787
  887SOL     OW 3238   4.723   6.793   5.840  0.5694 -0.8224 -0.1583
  887SOL    HW1 3239   4.682   6.714   5.874  1.3957 -1.0293  0.3577
  887SOL    HW2 3240   4.785   6.762   5.774  0.9677 -0.6208  0.1148
  888SOL     OW 3241   7.318   7.446   7.382 -0.3251 -0.3317 -0.2691
  888SOL    HW1 3242   7.390   7.502   7.410 -1.1547  1.0461 -0.7776
  888SOL    HW2 3243   7.269   7.428   7.462  0.4473 -1.1113  0.0462
  889SOL     OW 3244   5.981   0.177   7.780 -0.0441 -0.3679 -0.3806
  889SOL    HW1 3245   5.949   0.191   7.869 -0.7329  0.1805 -0.7066
  889SOL    HW2 3246   5.943   0.093   7.754 -0.9188  0.0890 -0.6186
  890SOL     OW 3247   9.067   6.908   5.460 -0.0936 -0.1765 -0.1727
  890SOL    HW1 3248   9.084   6.989   5.509 -2.3355  1.3962 -1.7589
  890SOL    HW2 3249   9.094   6.929   5.370 -1.4790 -0.8730 -0.7746
  891SOL     OW 3250   6.421   4.474   2.802 -0.2208 -0.3461  0.7415
  891SOL    HW1 3251   6.338   4.453   2.759 -0.3524 -0.1300  0.8849
  891SOL    HW2 3252   6.406   4.455   2.894 -0.3879  0.4706  0.8987
  892SOL     OW 3253   3.091   0.449   2.000 -0.5868 -0.6478  0.6361
  892SOL    HW1 3254   3.143   0.410   1.930 -2.4192 -0.6043 -0.8363
  892SOL    HW2 3255   3.112   0.542   1.998 -2.2306 -0.2576 -1.4200
  893SOL     OW 3256   0.127   8.241   7.462  0.1224  0.0218 -0.0809
  893SOL    HW1 3257   0.069   8.303   7.506 -0.6570 -0.6956 -0.0618
  893SOL    HW2 3258   0.211   8.250   7.507 -0.3148  0.2047  0.7144
  894SOL     OW 3259   0.564   3.820   1.790 -0.1600  0.0509  0.7518
  894SOL    HW1 3260   0.489   3.826   1.730  0.2884 -0.7735  0.0798
  894SOL    HW2 3261   0.553   3.894   1.849 -0.6605  0.8711 -0.3158
  895SOL     OW 3262   9.152   5.178   2.596  0.0183  0.2870  0.3168
  895SOL    HW1 3263   9.103   5.175   2.679  0.8441  0.9452  0.8489
  895SOL    HW2 3264   9.185   5.268   2.591  0.0662  0.2235 -0.6864
  896SOL     OW 3265   3.526   8.988   2.299 -0.0788 -0.6434  0.4461
  896SOL    HW1 3266   3.565   8.981   2.212 -2.0826 -0.1128 -0.5586
  896SOL    HW2 3267   3.560   9.071   2.334 -0.6478  0.0671 -0.6197
  897SOL     OW 3268   4.723   4.851   0.164  0.0887  0.7006  0.0902
  897SOL    HW1 3269   4.637   4.815   0.143  0.2257  1.0235 -1.0731
  897SOL    HW2 3270   4.728   4.846   0.260 -0.3543 -1.3158  0.0588
  898SOL     OW 3271   1.122   2.580   4.249 -0.3584  0.4131 -0.3418
  898SOL    HW1 3272   1.198   2.569   4.307 -0.5937  0.3772 -0.0342
  898SOL    HW2 3273   1.096   2.671   4.261 -1.1197  0.1011  0.5104
  899SOL     OW 3274   8.435   6.716   5.298  0.2976 -0.0298  0.4773
  899SOL    HW1 3275   8.477   6.797   5.328  3.5220 -0.8218 -1.4234
  899SOL    HW2 3276   8.409   6.671   5.378  1.6480  1.3099  1.7433
  900SOL     OW 3277   4.089   9.755   7.344  0.2589  0.6963  0.1484
  900SOL    HW1 3278   4.129   9.829   7.389  0.4199  0.7973 -0.1538
  900SOL    HW2 3279   4.013   9.792   7.299  0.2500  0.6467  0.1227
  901SOL     OW 3280   6.529   3.254   4.488  0.4585 -0.1276 -0.9001
  901SOL    HW1 3281   6.485   3.337   4.467  2.0912  1.4848  1.5512
  901SOL    HW2 3282   6.485   3.223   4.566  1.9149  0.1550  0.0699
  902SOL     OW 3283   2.253   8.946   9.152 -0.3752 -0.0668  0.1916
  902SOL    HW1 3284   2.231   8.901   9.071  0.3509  0.5902 -0.3898
  902SOL    HW2 3285   2.250   9.039   9.129 -0.7587  0.1535  1.0786
  903SOL     OW 3286   1.713   5.996   9.277  0.3615  0.1900 -0.1660
  903SOL    HW1 3287   1.754   6.080   9.257 -1.1291  0.5399 -2.1090
  903SOL    HW2 3288   1.722   5.944   9.197 -0.5537 -0.7083  0.2789
  904SOL     OW 3289   2.191   2.886   1.840 -0.2157  0.1130 -0.2111
  904SOL    HW1 3290   2.204   2.903   1.747 -1.0870 -0.7654 -0.5108
  904SOL    HW2 3291   2.210   2.793   1.851  0.2505  0.2881  0.5684
  905SOL     OW 3292   2.957   7.034   3.208  0.4394 -0.0195 -0.0901
  905SOL    HW1 3293   2.863   7.015   3.213  0.4834 -0.3247 -0.3806
  905SOL    HW2 3294   2.980   7.061   3.297  0.3335 -1.1507  0.2987
  906SOL     OW 3295   1.886   1.316   1.787  0.2928  0.4469 -0.8736
  906SOL    HW1 3296   1.802   1.290   1.749 -0.3007  1.4677 -0.3152
  906SOL    HW2 3297   1.866   1.333   1.879  0.9997  1.1632 -0.8431
  907SOL     OW 3298   0.447   1.526   8.160  0.2822  0.0642  0.3184
  907SOL    HW1 3299   0.355   1.528   8.135 -0.1614  0.6848  1.8899
  907SOL    HW2 3300   0.495   1.544   8.079 -0.9470 -0.5711 -0.5768
  908SOL     OW 3301   0.121   3.843   5.887 -0.3228 -0.5914 -0.0723
  908SOL    HW1 3302   0.064   3.766   5.887  0.3129 -1.1016  1.5913
  908SOL    HW2 3303   0.069   3.911   5.931  0.1000 -0.8817  0.9014
  909SOL     OW 3304   3.177   1.485   6.512  0.7099 -0.1951 -0.6848
  909SOL    HW1 3305   3.270   1.490   6.533  1.1756 -4.2756 -0.9302
  909SOL    HW2 3306   3.137   1.443   6.588 -0.7985  0.6390 -0.9720
  910SOL     OW 3307   1.413   2.097   0.147 -0.4673 -0.1322 -0.7306
  910SOL    HW1 3308   1.471   2.118   0.074 -0.1443 -1.0129 -0.7507
  910SOL    HW2 3309   1.473   2.075   0.219 -0.7824  0.3403 -0.3192
  911SOL     OW 3310   4.429   6.905   4.073  0.3214 -0.2060 -0.0630
  911SOL    HW1 3311   4.431   6.881   4.165 -0.6236 -1.1015 -0.2547
  911SOL    HW2 3312   4.434   6.822   4.026  1.3097  0.2706 -0.8386
  912SOL     OW 3313   6.355   7.404   4.636  0.2276 -0.5370 -0.8014
  912SOL    HW1 3314   6.277   7.388   4.584  0.0984  0.6972 -1.0104
  912SOL    HW2 3315   6.362   7.328   4.694 -0.1019 -1.5171 -2.0162
  913SOL     OW 3316   4.686  -0.009   5.346 -0.2830  0.4774 -0.2337
  913SOL    HW1 3317   4.601   0.007   5.304 -0.3053 -1.8488 -1.2013
  913SOL    HW2 3318   4.748   0.041   5.294 -0.7724  0.4050 -0.8954
  914SOL     OW 3319   3.416   8.735   6.749  0.0428  0.1981 -0.2649
  914SOL    HW1 3320   3.416   8.642   6.728 -0.8075  0.4059 -1.3158
  914SOL    HW2 3321   3.467   8.743   6.829  1.2511 -1.0102 -0.8902
  915SOL     OW 3322   0.291   3.093   1.521  0.9921 -0.2385 -0.0872
  915SOL    HW1 3323   0.366   3.038   1.544  1.1434  0.6047  1.5973
  915SOL    HW2 3324   0.297   3.168   1.580 -0.7969  0.1934 -0.3817
  916SOL     OW 3325   1.137   4.728   9.149  0.3035 -0.4039  0.3263
  916SOL    HW1 3326   1.067   4.747   9.087  1.2354  1.4396 -0.2607
  916SOL    HW2 3327   1.177   4.647   9.117 -0.4084 -0.4905 -0.3815
  917SOL     OW 3328   1.712   8.111   9.126 -0.1077 -0.1033  0.2341
  917SOL    HW1 3329   1.680   8.201   9.126  2.2416  0.8078  0.8653
  917SOL    HW2 3330   1.695   8.080   9.037 -0.6664  1.0670 -0.0949
  918SOL     OW 3331   8.071   6.962   9.021 -0.0123  0.5961 -0.1311
  918SOL    HW1 3332   7.979   6.985   9.036 -0.9933 -2.3280 -1.0138
  918SOL    HW2 3333   8.120   7.028   9.070 -2.5930  1.6356  1.2543
  919SOL     OW 3334   8.533   9.199   5.326 -0.6371  0.2105  0.5272
  919SOL    HW1 3335   8.528   9.118   5.378 -0.2820 -1.2173 -1.5512
  919SOL    HW2 3336   8.457   9.196   5.269 -0.5101  1.2567  0.2802
  920SOL     OW 3337   3.423   2.879   3.976  0.8206  0.4719  0.5021
  920SOL    HW1 3338   3.388   2.920   4.055  2.4791 -0.0031  1.5284
  920SOL    HW2 3339   3.387   2.790   3.978  0.4806  0.6088  0.4678
  921SOL     OW 3340   0.056   4.980   8.471  0.0534 -0.1503 -0.0001
  921SOL    HW1 3341   0.148   4.989   8.446 -0.2032  1.4744 -0.4119
  921SOL    HW2 3342   0.038   4.886   8.462  1.4222 -0.3591 -0.7510
  922SOL     OW 3343   1.719   8.579   1.525  0.2355  0.2276 -0.3955
  922SOL    HW1 3344   1.781   8.650   1.509  1.5724 -0.6839  0.5142
  922SOL    HW2 3345   1.709   8.537   1.439  0.3743  0.7817 -0.6886
  923SOL     OW 3346   5.406   5.345   8.404 -0.3096  0.2701 -0.1675
  923SOL    HW1 3347   5.448   5.376   8.323 -0.2431 -0.4430 -0.4083
  923SOL    HW2 3348   5.474   5.296   8.450 -0.7539 -0.5386 -0.3653
  924SOL     OW 3349   1.721   3.730   9.577 -0.1106 -0.3541 -0.4526
  924SOL    HW1 3350   1.641   3.782   9.570  0.0107  0.0130  0.6792
  924SOL    HW2 3351   1.792   3.792   9.563  0.0214 -0.2709  0.4869
  925SOL     OW 3352   2.732   5.026   0.032  0.4460 -0.0218  0.0819
  925SOL    HW1 3353   2.796   4.955   0.038  0.0242 -0.2858  2.3937
  925SOL    HW2 3354   2.763   5.091   0.095 -1.4516 -0.1089  1.1915
  926SOL     OW 3355   8.942   8.923   0.790 -0.1355 -0.3616  0.0285
  926SOL    HW1 3356   8.904   8.973   0.718  0.1563 -1.7956 -1.1810
  926SOL    HW2 3357   8.943   8.833   0.759 -1.1146 -1.2503  2.3276
  927SOL     OW 3358   2.249   8.224   0.564 -0.6541  0.3664  0.2265
  927SOL    HW1 3359   2.257   8.280   0.487 -2.0739  0.3753  0.0607
  927SOL    HW2 3360   2.294   8.143   0.539  1.9810  1.6000  0.7046
  928SOL     OW 3361   3.154   0.767   9.063 -0.1752 -0.0680 -0.0509
  928SOL    HW1 3362   3.120   0.843   9.016  1.4984  0.3655 -0.6173
  928SOL    HW2 3363   3.182   0.707   8.994  2.0508  0.4494  0.3398
  929SOL     OW 3364   4.058   6.678   5.938 -0.0429  0.7646  0.0645
  929SOL    HW1 3365   4.073   6.766   5.904 -1.2161  0.4498 -1.3855
  929SOL    HW2 3366   3.999   6.691   6.012  0.3832  1.2413  0.3309
  930SOL     OW 3367   9.477   7.115   9.326  0.6171  0.5304 -0.0495
  930SOL    HW1 3368   9.546   7.103   9.262  1.9699  0.7571  1.3116
  930SOL    HW2 3369   9.471   7.030   9.372 -0.3998  0.3358 -0.5032
  931SOL     OW 3370   7.766   3.005   3.050 -0.1125  0.1950  0.2473
  931SOL    HW1 3371   7.703   3.074   3.031 -0.9915 -0.0582  1.9962
  931SOL    HW2 3372   7.719   2.924   3.031  1.1454 -0.0068 -2.4768
  932SOL     OW 3373   3.687   4.712   7.239  0.5020 -0.0323 -0.1630
  932SOL    HW1 3374   3.649   4.634   7.199  0.3706 -0.5582  0.9345
  932SOL    HW2 3375   3.654   4.711   7.329 -0.1512  1.7328 -0.3377
  933SOL     OW 3376   8.655   7.966   4.733 -0.7312  0.6280  0.1363
  933SOL    HW1 3377   8.689   7.976   4.822  2.4790  0.4210 -0.9228
  933SOL    HW2 3378   8.718   7.909   4.689 -0.5988  2.9020 -3.0070
  934SOL     OW 3379   4.417   1.974   7.076 -0.0824  0.4052 -0.5048
  934SOL    HW1 3380   4.382   2.050   7.121  0.7022  1.4045 -1.5289
  934SOL    HW2 3381   4.477   2.010   7.011 -0.3509 -1.0367 -1.6083
  935SOL     OW 3382   7.947   0.898   8.874 -0.0457  0.4553 -0.5082
  935SOL    HW1 3383   8.013   0.961   8.903 -0.9819  0.4624  1.7797
  935SOL    HW2 3384   7.868   0.951   8.859 -2.0275 -0.2229  5.0545
  936SOL     OW 3385   0.663   4.728   2.710  0.0901 -0.5540  0.0855
  936SOL    HW1 3386   0.577   4.770   2.721 -0.3610 -1.6399  0.9675
  936SOL    HW2 3387   0.687   4.745   2.619  0.2156  2.0773  0.5197
  937SOL     OW 3388   7.690   5.503   6.725  0.0803  0.1180 -0.6188
  937SOL    HW1 3389   7.718   5.418   6.761 -0.6033  0.5695  1.0986
  937SOL    HW2 3390   7.614   5.482   6.671  0.5027 -0.4677 -1.0004
  938SOL     OW 3391   0.208   2.982   7.433 -0.2375  0.0488 -0.2437
  938SOL    HW1 3392   0.139   3.002   7.497  0.6128  0.8118  0.4537
  938SOL    HW2 3393   0.289   3.003   7.478  0.4193 -0.0516 -1.3548
  939SOL     OW 3394   9.797   9.298   2.672  0.3243 -0.3745 -0.4594
  939SOL    HW1 3395   9.878   9.347   2.687  0.0663 -0.2660  0.6889
  939SOL    HW2 3396   9.735   9.362   2.638  0.8522 -0.5681 -1.8552
  940SOL     OW 3397   6.654   6.880   9.774 -0.0811  0.2312 -0.4872
  940SOL    HW1 3398   6.617   6.940   9.840 -2.3406 -0.2959 -1.1855
  940SOL    HW2 3399   6.652   6.794   9.816 -0.7428  0.0235 -0.9321
  941SOL     OW 3400   2.816   6.871   7.540 -0.1739 -0.1025  0.4641
  941SOL    HW1 3401   2.912   6.876   7.535 -0.1723 -0.0193  0.5534
  941SOL    HW2 3402   2.786   6.949   7.493 -0.2286 -0.6639 -0.4460
  942SOL     OW 3403   2.219   6.495   5.712  0.1041  0.1242  0.0888
  942SOL    HW1 3404   2.288   6.461   5.769  0.4662  0.8736  0.0956
  942SOL    HW2 3405   2.260   6.566   5.663 -0.5974  0.4235 -0.0738
  943SOL     OW 3406   5.763   9.197   2.488  0.0793  0.3263  0.2892
  943SOL    HW1 3407   5.837   9.257   2.475 -0.6740  1.1985 -0.0930
  943SOL    HW2 3408   5.712   9.238   2.558 -0.7195  0.4162 -0.3333
  944SOL     OW 3409   7.467   4.097   7.728  0.6756 -0.3994 -0.2105
  944SOL    HW1 3410   7.458   4.188   7.701  1.1348  0.0543  1.0833
  944SOL    HW2 3411   7.386   4.078   7.775  0.8527 -0.4438  0.0804
  945SOL     OW 3412   9.818   9.328   5.114  0.4800 -0.1862 -0.4886
  945SOL    HW1 3413   9.722   9.333   5.116  0.3209 -1.9932 -1.4423
  945SOL    HW2 3414   9.842   9.372   5.032  0.2909 -1.3516 -1.1940
  946SOL     OW 3415   3.276   8.199   4.950 -0.2955  0.0349 -0.5472
  946SOL    HW1 3416   3.365   8.232   4.968 -0.0367 -0.7780 -0.2828
  946SOL    HW2 3417   3.237   8.189   5.037  0.6089 -2.9659 -0.3913
  947SOL     OW 3418   0.340   7.813   4.148 -0.4908 -0.4575 -0.1104
  947SOL    HW1 3419   0.335   7.763   4.229  1.0893  1.8689  1.5458
  947SOL    HW2 3420   0.410   7.771   4.098 -0.8438 -1.3482  0.1273
  948SOL     OW 3421   9.255   7.117   9.120 -0.0119  0.0981 -0.2517
  948SOL    HW1 3422   9.300   7.194   9.086  0.7509 -0.2486 -0.0601
  948SOL    HW2 3423   9.282   7.112   9.212 -1.0673  0.3214  0.0787
  949SOL     OW 3424   7.085   2.778   1.718  0.3459 -0.2184  0.8105
  949SOL    HW1 3425   7.138   2.710   1.677  1.2144  1.0455 -0.2578
  949SOL    HW2 3426   7.109   2.776   1.810  0.5955 -1.1279  0.7305
  950SOL     OW 3427   6.734   3.048   2.237 -0.0089 -0.2730 -0.8866
  950SOL    HW1 3428   6.755   3.114   2.172 -0.4143  0.6289 -0.1188
  950SOL    HW2 3429   6.645   3.069   2.265  0.9038  0.7399  1.5399
  951SOL     OW 3430   4.545   2.559   2.291  0.6918 -0.1080  0.4914
  951SOL    HW1 3431   4.619   2.505   2.319  1.0791  0.2130  0.1030
  951SOL    HW2 3432   4.469   2.501   2.297  1.0809 -0.6525  0.2011
  952SOL     OW 3433   4.709   4.886   5.461 -0.5622 -0.7624  0.4984
  952SOL    HW1 3434   4.782   4.826   5.476  1.0475  1.2768  1.3684
  952SOL    HW2 3435   4.715   4.910   5.369 -1.3205 -2.0055  0.1030
  953SOL     OW 3436   3.115   0.505   4.557 -0.1588  0.0438  0.1436
  953SOL    HW1 3437   3.109   0.513   4.461  0.6973 -0.0069  0.0728
  953SOL    HW2 3438   3.209   0.493   4.573 -0.0605  1.9260  1.1333
  954SOL     OW 3439   8.261   4.258   4.976  0.0150  0.4297  1.0873
  954SOL    HW1 3440   8.208   4.274   4.898  0.8427 -2.9084 -0.3168
  954SOL    HW2 3441   8.198   4.256   5.048 -0.9945  1.8002  0.3034
  955SOL     OW 3442   2.255   0.737   8.146 -0.3600 -0.9317 -0.1521
  955SOL    HW1 3443   2.207   0.672   8.096  1.7085 -2.0221 -0.8290
  955SOL    HW2 3444   2.342   0.739   8.106  0.3201  0.6451  1.2761
  956SOL     OW 3445   4.294   9.196   8.474 -0.1833  0.6366  0.2059
  956SOL    HW1 3446   4.204   9.192   8.506  0.0894  0.2700  0.9465
  956SOL    HW2 3447   4.345   9.229   8.549  0.1040  2.1935 -0.6193
  957SOL     OW 3448   1.438   4.809   1.417  0.6706  0.5085  0.8984
  957SOL    HW1 3449   1.508   4.773   1.471  1.0546 -0.0341  0.0724
  957SOL    HW2 3450   1.482   4.834   1.335  0.1837  1.7192  0.9869
  958SOL     OW 3451   5.645   1.644   6.792 -0.2537 -0.2957 -0.0251
  958SOL    HW1 3452   5.610   1.727   6.759  2.8746  0.0687 -3.0223
  958SOL    HW2 3453   5.579   1.579   6.767 -2.3039  1.0516  1.5097
  959SOL     OW 3454   9.605   5.819   5.308 -0.0043  0.2970  0.1556
  959SOL    HW1 3455   9.669   5.750   5.291 -0.7618 -0.1419 -1.0074
  959SOL    HW2 3456   9.652   5.900   5.291  0.0620 -0.0394 -1.4330
  960SOL     OW 3457   3.301   1.661   3.164 -0.0133 -0.1170  0.1327
  960SOL    HW1 3458   3.227   1.713   3.131  0.4445 -0.0099 -0.7641
  960SOL    HW2 3459   3.323   1.701   3.248 -1.2819 -0.4599  0.6496
  961SOL     OW 3460   7.275   3.431   8.378  0.4532  0.0081 -0.2716
  961SOL    HW1 3461   7.250   3.521   8.400 -0.4132 -0.8116  2.5173
  961SOL    HW2 3462   7.197   3.395   8.336 -0.1330 -0.1074  0.8596
  962SOL     OW 3463   4.978   4.179   5.332 -0.0963 -0.2712 -0.2000
  962SOL    HW1 3464   4.970   4.148   5.242 -1.6824  1.0235 -0.5510
  962SOL    HW2 3465   5.059   4.140   5.364  1.3278  0.4912 -2.6750
  963SOL     OW 3466   6.899   5.109   6.398 -0.8204 -0.3682  0.6592
  963SOL    HW1 3467   6.834   5.039   6.390 -1.2383  0.1318 -0.5874
  963SOL    HW2 3468   6.905   5.126   6.492 -0.8274 -1.9623  0.9689
  964SOL     OW 3469   0.492   6.009   3.300 -0.0973  0.3759  0.0094
  964SOL    HW1 3470   0.563   6.037   3.357 -1.0625  0.0367  1.4347
  964SOL    HW2 3471   0.532   5.945   3.242  0.7015 -0.0281  0.9741
  965SOL     OW 3472   6.164   5.544   6.691 -0.2638 -0.0204 -0.0279
  965SOL    HW1 3473   6.246   5.592   6.699  1.2629 -2.0551 -2.0359
  965SOL    HW2 3474   6.117   5.562   6.772  2.7544  0.1759  1.8106
  966SOL     OW 3475   1.248   2.228   6.634  0.1706  0.3223 -0.0807
  966SOL    HW1 3476   1.295   2.222   6.717  2.0231 -1.2089 -1.1556
  966SOL    HW2 3477   1.183   2.158   6.638  1.4502 -0.9654 -0.5437
  967SOL     OW 3478   5.262   6.405   9.605 -0.3972  0.5663  0.4471
  967SOL    HW1 3479   5.239   6.372   9.518  4.0691  1.2926 -1.2509
  967SOL    HW2 3480   5.281   6.327   9.656 -0.6472  0.2102  0.0027
  968SOL     OW 3481   9.373   8.006   1.918  0.7419 -0.0495 -0.3679
  968SOL    HW1 3482   9.285   8.032   1.890 -0.1400  0.1484  2.3413
  968SOL    HW2 3483   9.392   7.927   1.866 -2.3707 -1.9492  1.0547
  969SOL     OW 3484   9.670   4.569   3.119 -0.1706  0.3085  1.2417
  969SOL    HW1 3485   9.669   4.478   3.088  1.5872  0.2398  1.3166
  969SOL    HW2 3486   9.679   4.621   3.040 -0.7141  0.4102  1.2409
  970SOL     OW 3487   1.334   2.953   6.228  0.0372 -0.1215  0.1467
  970SOL    HW1 3488   1.244   2.979   6.207  0.6782  0.3932 -2.2067
  970SOL    HW2 3489   1.376   3.033   6.258 -0.2024 -0.3287  1.0887
  971SOL     OW 3490   7.444   1.982   9.166  0.1640 -0.2800 -0.2593
  971SOL    HW1 3491   7.388   2.005   9.092 -0.2782 -0.4416  0.0200
  971SOL    HW2 3492   7.530   2.019   9.144 -0.5088  1.6367  0.1797
  972SOL     OW 3493   1.592   7.377   6.337  0.3474 -0.4284  0.3568
  972SOL    HW1 3494   1.563   7.287   6.325  0.9388 -0.2838 -3.4899
  972SOL    HW2 3495   1.512   7.430   6.333  0.2399 -0.6370 -0.5170
  973SOL     OW 3496   0.614   8.823   2.461  0.5426  0.1298  0.3234
  973SOL    HW1 3497   0.704   8.803   2.434  0.3190  0.1825 -0.4871
  973SOL    HW2 3498   0.570   8.738   2.462  1.0563 -0.1548  2.5405
  974SOL     OW 3499   9.233   2.613   1.675 -0.2843 -0.2560  0.0594
  974SOL    HW1 3500   9.192   2.698   1.659 -1.9744 -1.4474 -2.6201
  974SOL    HW2 3501   9.206   2.590   1.764  0.9591  2.3252  1.2064
  975SOL     OW 3502   2.425   6.378   4.838  0.2522 -0.3199 -0.3695
  975SOL    HW1 3503   2.500   6.361   4.781  0.6289  0.9889 -0.2985
  975SOL    HW2 3504   2.402   6.469   4.821  0.8095  0.3417  2.0360
  976SOL     OW 3505   1.426   3.618   1.248  0.2888 -0.2568  0.0964
  976SOL    HW1 3506   1.372   3.697   1.247 -0.3587 -0.6774  1.0867
  976SOL    HW2 3507   1.516   3.651   1.237  0.1219  0.7006  1.4282
  977SOL     OW 3508   6.694   6.639   5.441  0.5160  0.3333 -0.0236
  977SOL    HW1 3509   6.603   6.629   5.411 -0.0126 -0.0738  1.6268
  977SOL    HW2 3510   6.707   6.734   5.443 -0.1663  0.4267  0.5315
  978SOL     OW 3511   4.916   2.893   9.248  0.1329  0.4050 -0.0286
  978SOL    HW1 3512   4.919   2.973   9.301 -1.3246 -0.2376  1.0751
  978SOL    HW2 3513   4.975   2.911   9.175 -1.8287  3.3774 -1.0751
  979SOL     OW 3514   2.831   7.392   8.232  0.3844  0.2909  0.0804
  979SOL    HW1 3515   2.813   7.321   8.294 -1.6285 -1.0702 -1.9522
  979SOL    HW2 3516   2.778   7.465   8.264 -0.8326 -0.4768 -0.1251
  980SOL     OW 3517   3.426   3.380   2.886  0.0690 -0.6033  0.1162
  980SOL    HW1 3518   3.474   3.424   2.956 -0.6308  0.1610  0.1381
  980SOL    HW2 3519   3.445   3.433   2.808 -1.5325  0.3393  0.3244
  981SOL     OW 3520   0.677   7.160   1.274 -0.0950  0.7689 -0.0593
  981SOL    HW1 3521   0.745   7.108   1.231 -1.3993 -1.0040 -0.0892
  981SOL    HW2 3522   0.598   7.107   1.267 -1.1276  2.0044  1.4660
  982SOL     OW 3523   6.984   1.824   9.579  0.6053  0.3419 -1.1451
  982SOL    HW1 3524   7.066   1.864   9.607  0.6893 -1.9535  2.5001
  982SOL    HW2 3525   6.919   1.856   9.641 -0.8812  0.5491 -2.7505
  983SOL     OW 3526   0.912   2.229   4.006 -0.2072  0.2575  0.0838
  983SOL    HW1 3527   0.877   2.207   3.919  1.9464 -2.3733 -0.2501
  983SOL    HW2 3528   0.853   2.186   4.067 -0.2347 -0.1829 -0.2435
  984SOL     OW 3529   1.882   6.237   0.813 -0.6168  0.2184 -0.2985
  984SOL    HW1 3530   1.967   6.232   0.857 -0.7159  0.6108 -0.0613
  984SOL    HW2 3531   1.842   6.151   0.830  0.0551 -0.2640 -1.0845
  985SOL     OW 3532   2.308   0.854   6.679  0.3273  0.0497  0.6144
  985SOL    HW1 3533   2.347   0.769   6.657  1.8304  0.9396 -0.4269
  985SOL    HW2 3534   2.342   0.913   6.612 -1.0522  1.3848  1.0477
  986SOL     OW 3535   1.555   8.616   2.119 -0.2363 -0.8048 -0.7718
  986SOL    HW1 3536   1.599   8.542   2.078  0.9332  0.6407 -2.2715
  986SOL    HW2 3537   1.465   8.610   2.090  0.0381 -1.1836 -1.5757
  987SOL     OW 3538   8.103   5.312   1.167  0.2409  0.4846  0.1369
  987SOL    HW1 3539   8.078   5.301   1.076 -0.6305  0.0596  0.4124
  987SOL    HW2 3540   8.104   5.406   1.181 -4.1371  0.6702  0.8180
  988SOL     OW 3541   5.204   7.840   9.166 -0.1656 -0.0893  0.2593
  988SOL    HW1 3542   5.192   7.790   9.247 -1.4277  0.9670  0.7615
  988SOL    HW2 3543   5.163   7.924   9.184 -0.1713  0.2893 -1.3803
  989SOL     OW 3544   0.384   6.796   4.062 -0.0402 -0.2986  0.1363
  989SOL    HW1 3545   0.302   6.817   4.017  0.1766  0.0624 -0.0991
  989SOL    HW2 3546   0.452   6.807   3.994  0.5400  2.2613  0.9957
  990SOL     OW 3547   7.815   5.512   1.026  0.2047 -0.0673 -0.3588
  990SOL    HW1 3548   7.777   5.425   1.018  2.2156 -1.0697  0.3107
  990SOL    HW2 3549   7.838   5.520   1.118 -0.1181  1.2629 -0.3751
  991SOL     OW 3550   6.232   4.336   5.773 -0.1515  0.0172 -0.4360
  991SOL    HW1 3551   6.310   4.386   5.799  0.2293  1.2852 -3.5527
  991SOL    HW2 3552   6.265   4.247   5.757 -0.0237 -0.2681  1.2167
  992SOL     OW 3553   4.670   1.620   5.451 -0.5000 -0.4412  0.0277
  992SOL    HW1 3554   4.693   1.528   5.463 -1.5468 -0.5653  1.4004
  992SOL    HW2 3555   4.752   1.663   5.427  0.2059 -1.5796  0.3519
  993SOL     OW 3556   5.469   3.604   5.955  0.2403  0.0947  0.5602
  993SOL    HW1 3557   5.502   3.656   5.881 -0.2212  1.6838  1.4219
  993SOL    HW2 3558   5.493   3.655   6.032 -0.1680 -1.0380  1.4623
  994SOL     OW 3559   8.815   7.495   6.427  0.0107  0.3960 -0.0009
  994SOL    HW1 3560   8.881   7.466   6.364  0.3666  0.8534  0.1580
  994SOL    HW2 3561   8.855   7.569   6.472 -0.0054 -0.2778  1.1716
  995SOL     OW 3562  -0.017   7.387   8.158 -0.0261 -0.1569  0.8817
  995SOL    HW1 3563   0.069   7.430   8.151 -0.6344  1.0914  0.6992
  995SOL    HW2 3564  -0.049   7.412   8.245 -0.1523 -0.7327  1.0053
  996SOL     OW 3565   6.508   2.684   5.225 -0.4912  0.6113 -0.1885
  996SOL    HW1 3566   6.597   2.647   5.228 -0.8944 -0.3913 -0.1027
  996SOL    HW2 3567   6.480   2.670   5.134 -0.6736  0.6361 -0.1352
  997SOL     OW 3568   6.891   4.812   9.768  0.5735 -0.1483 -0.3726
  997SOL    HW1 3569   6.881   4.822   9.673 -3.8489  2.8434  0.1141
  997SOL    HW2 3570   6.862   4.722   9.785  0.4519 -0.3936 -1.7532
  998SOL     OW 3571   9.371   8.231   0.226  0.0898  0.5053  0.3068
  998SOL    HW1 3572   9.416   8.271   0.300  0.3569  0.2497  0.2857
  998SOL    HW2 3573   9.441   8.205   0.166  0.0310 -1.1229  0.8817
  999SOL     OW 3574   0.920   2.016   6.396  0.3178 -0.8645  0.0411
  999SOL    HW1 3575   1.013   1.991   6.400  0.5883 -0.2952 -1.7097
  999SOL    HW2 3576   0.901   2.052   6.482  2.2727  0.7691 -0.1309
 1000SOL     OW 3577   6.248   9.568   5.891  0.1872 -0.0404  0.1379
 1000SOL    HW1 3578   6.169   9.575   5.944  0.3804  0.5576  0.3530
 1000SOL    HW2 3579   6.228   9.499   5.827 -0.8856  0.8158 -0.4837
 1001SOL     OW 3580   4.189   9.612   9.619 -0.3984  0.3409  0.1077
 1001SOL    HW1 3581   4.227   9.650   9.698 -0.9366  0.7914  0.1507
 1001SOL    HW2 3582   4.162   9.687   9.567 -1.7961  0.0358  0.3442
 1002SOL     OW 3583   8.872   4.899   2.676 -0.0742 -0.3198 -0.2358
 1002SOL    HW1 3584   8.946   4.845   2.703  0.3586  0.4540  0.1408
 1002SOL    HW2 3585   8.796   4.856   2.715  0.2365 -0.7897 -0.1402
 1003SOL     OW 3586   7.636   2.230   9.700 -0.1507  0.1087 -0.1946
 1003SOL    HW1 3587   7.562   2.230   9.639 -1.7405  1.6114  1.6262
 1003SOL    HW2 3588   7.672   2.141   9.693 -3.3615 -1.3697  0.2582
 1004SOL     OW 3589   6.509   3.818   4.892  0.4848 -0.2727 -0.1359
 1004SOL    HW1 3590   6.509   3.875   4.970 -0.5876 -0.8696  0.3330
 1004SOL    HW2 3591   6.557   3.868   4.826 -0.4247  1.2105  0.2527
 1005SOL     OW 3592   4.181   0.496   2.497 -0.4923 -0.2057 -0.5454
 1005SOL    HW1 3593   4.229   0.413   2.499  1.3245  0.8160  0.0456
 1005SOL    HW2 3594   4.138   0.500   2.583  1.7983  0.7515  0.6315
 1006SOL     OW 3595   6.679   5.250   7.311 -0.2721 -0.6818  0.0888
 1006SOL    HW1 3596   6.755   5.289   7.355  0.3799 -4.2128  2.5379
 1006SOL    HW2 3597   6.605   5.270   7.368 -0.3862 -0.9024  0.0195
 1007SOL     OW 3598   8.856   6.533   3.076 -0.1681  0.2022 -0.1016
 1007SOL    HW1 3599   8.864   6.440   3.095  3.0613  0.4393  0.3533
 1007SOL    HW2 3600   8.796   6.566   3.143  1.4361 -1.0340  2.1060
 1008SOL     OW 3601   8.371   9.218   3.681  0.6491  0.2832 -0.3744
 1008SOL    HW1 3602   8.295   9.161   3.671  0.6499 -0.1682  1.6755
 1008SOL    HW2 3603   8.335   9.306   3.681  0.2560  0.1224 -0.4372
 1009SOL     OW 3604   4.047   0.023   5.498 -0.4246  0.6356  0.6530
 1009SOL    HW1 3605   3.959   0.019   5.462  0.1709  0.9733 -0.9683
 1009SOL    HW2 3606   4.061   0.116   5.518  0.0253  0.8140 -0.4135
 1010SOL     OW 3607   5.523   2.830   8.978  1.0326 -0.0469 -0.0065
 1010SOL    HW1 3608   5.576   2.769   9.029 -0.3070 -2.3711 -1.1999
 1010SOL    HW2 3609   5.576   2.850   8.901  1.2743 -0.1070  0.1445
 1011SOL     OW 3610   9.288   6.361   6.204  0.1097 -0.2431 -0.7110
 1011SOL    HW1 3611   9.347   6.354   6.279 -0.5996 -1.2968 -0.2319
 1011SOL    HW2 3612   9.328   6.305   6.137  0.8209  0.8120 -1.2121
 1012SOL     OW 3613   2.868   2.640   8.457 -0.1368  0.1272 -0.3489
 1012SOL    HW1 3614   2.891   2.607   8.544  1.2017  2.5955  0.3524
 1012SOL    HW2 3615   2.774   2.628   8.451 -0.4629  0.8894  1.9517
 1013SOL     OW 3616   7.897   5.640   8.852  0.2122  0.5079  0.1156
 1013SOL    HW1 3617   7.947   5.694   8.790 -0.4290 -0.5929 -1.4020
 1013SOL    HW2 3618   7.836   5.701   8.893  1.2886  1.4366  0.3991
 1014SOL     OW 3619   9.510   3.458   4.964 -0.0279 -0.6487 -0.3750
 1014SOL    HW1 3620   9.472   3.463   4.876  0.0876  1.0987 -0.3620
 1014SOL    HW2 3621   9.491   3.368   4.993 -1.0167 -0.9250 -1.7498
 1015SOL     OW 3622   4.929   5.522   8.298  0.4390  0.1017 -0.9443
 1015SOL    HW1 3623   4.929   5.618   8.295 -1.3280  0.1360 -1.2684
 1015SOL    HW2 3624   4.968   5.495   8.215 -1.2071  0.5997 -1.9216
 1016SOL     OW 3625   0.699   3.461   9.149 -0.2526  0.2675  0.1854
 1016SOL    HW1 3626   0.759   3.517   9.198  0.3508  1.1348 -1.4729
 1016SOL    HW2 3627   0.657   3.407   9.216 -2.1843  3.8403  2.1904
 1017SOL     OW 3628   9.533   2.279   8.716 -0.5599 -0.1421 -0.0054
 1017SOL    HW1 3629   9.609   2.225   8.693 -0.0593  0.0029  1.2204
 1017SOL    HW2 3630   9.493   2.233   8.790 -1.4403  0.0017 -0.3784
 1018SOL     OW 3631   9.865   7.776   7.326  0.1916 -0.5139  0.7222
 1018SOL    HW1 3632   9.916   7.698   7.349  1.4952  0.1986  0.3260
 1018SOL    HW2 3633   9.924   7.849   7.343 -0.3294  0.2770 -0.7116
 1019SOL     OW 3634   4.549   5.114   1.423  0.4058  0.0157  0.9826
 1019SOL    HW1 3635   4.588   5.168   1.355 -0.7794  1.7117  1.5797
 1019SOL    HW2 3636   4.621   5.094   1.482  1.3407 -1.0335 -0.4511
 1020SOL     OW 3637   2.731   7.450   5.107  0.3033  0.5073  0.2444
 1020SOL    HW1 3638   2.670   7.522   5.089  0.4433  0.1958 -1.7225
 1020SOL    HW2 3639   2.676   7.373   5.113  0.4776  0.0643 -2.5302
 1021SOL     OW 3640   8.197   8.413   8.723 -0.2803  0.6033  0.4280
 1021SOL    HW1 3641   8.124   8.470   8.700 -2.0010 -0.9781  1.7343
 1021SOL    HW2 3642   8.194   8.343   8.658 -0.0664  0.4105  0.6271
 1022SOL     OW 3643   8.638   6.052   5.875 -0.4120 -0.2807 -0.5978
 1022SOL    HW1 3644   8.714   6.065   5.819  0.0564 -0.7343 -0.0885
 1022SOL    HW2 3645   8.642   5.960   5.900 -0.3998 -0.0132  0.4611
 1023SOL     OW 3646   1.221   4.578   4.417  0.2374 -0.2560  0.1764
 1023SOL    HW1 3647   1.141   4.591   4.366 -1.7932 -1.1122  2.8799
 1023SOL    HW2 3648   1.281   4.533   4.357 -1.4508  0.0363 -1.8388
 1024SOL     OW 3649   1.579   0.439   3.328  0.3092 -0.0938 -0.7703
 1024SOL    HW1 3650   1.594   0.352   3.290 -0.6747 -0.7130  0.1818
 1024SOL    HW2 3651   1.651   0.451   3.390  1.4306  0.5452 -2.1707
 1025SOL     OW 3652   7.597   1.138   7.132 -0.2775 -0.3944 -0.0270
 1025SOL    HW1 3653   7.545   1.149   7.211  1.8341  0.9001  1.2715
 1025SOL    HW2 3654   7.661   1.071   7.154  1.4451  1.2041  0.0427
 1026SOL     OW 3655   9.501   1.092   8.066 -0.6209  0.1866  0.1812
 1026SOL    HW1 3656   9.412   1.122   8.085 -0.6475  0.2306 -0.0035
 1026SOL    HW2 3657   9.489   1.012   8.015 -0.5424 -0.5727  1.3182
 1027SOL     OW 3658   4.700   2.741   2.616  0.3303  0.1975 -0.0998
 1027SOL    HW1 3659   4.709   2.811   2.681 -0.3711  1.3532 -1.2204
 1027SOL    HW2 3660   4.641   2.777   2.550 -0.8889 -1.8450 -0.1931
 1028SOL     OW 3661   7.931   8.962   1.429 -0.0556 -0.5141  0.1418
 1028SOL    HW1 3662   7.909   9.055   1.423  0.3662 -0.4241 -0.0576
 1028SOL    HW2 3663   7.926   8.931   1.339 -0.2455 -0.6981  0.2155
 1029SOL     OW 3664   1.768   7.732   9.307 -0.1046 -0.2353  0.1781
 1029SOL    HW1 3665   1.742   7.640   9.311 -0.6323 -0.0569  0.9410
 1029SOL    HW2 3666   1.717   7.768   9.235 -0.9720 -0.2079  0.7978
 1030SOL     OW 3667   9.985   3.009   8.706  0.2910 -0.0580 -0.1560
 1030SOL    HW1 3668   9.995   3.056   8.789  1.6824  2.3755 -1.5729
 1030SOL    HW2 3669   9.892   3.019   8.684  0.6244  2.6879 -0.6631
 1031SOL     OW 3670   8.356   6.159   6.680  0.0832  0.0942  0.3776
 1031SOL    HW1 3671   8.270   6.152   6.640 -0.1804  0.8925  0.7793
 1031SOL    HW2 3672   8.343   6.218   6.755  0.8769 -0.1562  0.7236
 1032SOL     OW 3673   7.677   2.336   4.568 -0.0555 -0.1056 -0.0009
 1032SOL    HW1 3674   7.732   2.258   4.568  0.6548  0.3486 -2.0110
 1032SOL    HW2 3675   7.618   2.325   4.494  0.7992  1.7056 -1.0201
 1033SOL     OW 3676   1.009   6.382   4.001 -0.6828  0.9448  0.1885
 1033SOL    HW1 3677   0.919   6.390   4.032 -1.0637  0.2427 -0.6889
 1033SOL    HW2 3678   1.012   6.297   3.957  1.1228 -0.3420  2.5412
 1034SOL     OW 3679   0.150   8.230   6.074 -0.1360 -0.1950 -0.2601
 1034SOL    HW1 3680   0.139   8.223   5.979 -0.2032 -3.0857 -0.1474
 1034SOL    HW2 3681   0.062   8.216   6.109 -0.2454  1.5900  0.2645
 1035SOL     OW 3682   0.403   3.732   9.495 -0.2525  0.1536  0.5153
 1035SOL    HW1 3683   0.434   3.801   9.437 -1.2645  2.4222  2.4894
 1035SOL    HW2 3684   0.381   3.659   9.437  1.3242  1.2718 -1.6186
 1036SOL     OW 3685   3.507   3.671   2.465 -0.4145  0.0094 -0.2075
 1036SOL    HW1 3686   3.468   3.674   2.377 -0.3144  1.4029 -0.2315
 1036SOL    HW2 3687   3.602   3.678   2.449 -0.2201 -1.8807 -0.0740
 1037SOL     OW 3688   9.627   5.985   3.792  0.0249 -0.2911  0.4701
 1037SOL    HW1 3689   9.707   5.933   3.791 -0.3561 -0.8890  0.1671
 1037SOL    HW2 3690   9.652   6.069   3.753  0.4291 -0.5924  0.0661
 1038SOL     OW 3691   0.147   0.461   6.094  0.5153  0.5196 -0.3971
 1038SOL    HW1 3692   0.067   0.434   6.139  2.2370  0.5815  3.0668
 1038SOL    HW2 3693   0.126   0.545   6.054 -1.0323  0.7894  0.9025
 1039SOL     OW 3694   9.647   1.703   8.644  0.3169 -0.4073  0.0701
 1039SOL    HW1 3695   9.669   1.634   8.705 -1.5744 -1.5980 -0.5034
 1039SOL    HW2 3696   9.581   1.756   8.690  0.8003  0.2666  0.0134
 1040SOL     OW 3697   6.445   4.258   2.300  0.5586 -0.6932  0.1084
 1040SOL    HW1 3698   6.515   4.228   2.358  0.2424  1.0222  1.4649
 1040SOL    HW2 3699   6.461   4.352   2.291 -0.3723 -0.6417 -1.2635
 1041SOL     OW 3700   1.060   0.423   4.102  0.4605 -0.1975  0.5730
 1041SOL    HW1 3701   0.972   0.387   4.115  0.3299  0.1318  0.5958
 1041SOL    HW2 3702   1.114   0.346   4.085  0.2764 -0.4615  1.1499
 1042SOL     OW 3703   3.978   8.782   7.489 -0.0336 -0.7036  0.1170
 1042SOL    HW1 3704   4.054   8.805   7.543 -0.2773  1.1019 -0.2652
 1042SOL    HW2 3705   3.986   8.687   7.477  1.3011 -0.7932  1.3649
 1043SOL     OW 3706   7.820   7.598   0.910 -0.2954 -0.5147  1.0385
 1043SOL    HW1 3707   7.813   7.631   0.821 -1.1415 -0.3898  1.1435
 1043SOL    HW2 3708   7.854   7.509   0.901 -2.8946 -1.5239  0.3710
 1044SOL     OW 3709   5.627   3.366   6.432 -0.4660  0.7368 -0.3383
 1044SOL    HW1 3710   5.681   3.380   6.354 -0.9253 -0.4336 -0.9094
 1044SOL    HW2 3711   5.543   3.335   6.397 -1.0756  1.3083  0.5827
 1045SOL     OW 3712   3.896   9.843   2.238  0.6970 -0.0616  0.2381
 1045SOL    HW1 3713   3.832   9.791   2.190 -0.5535  0.6599  1.0656
 1045SOL    HW2 3714   3.843   9.906   2.288  1.6562 -1.9935  4.1096
 1046SOL     OW 3715   7.915   5.749   7.011  0.1042 -0.6554 -0.4862
 1046SOL    HW1 3716   7.832   5.738   6.964 -0.2324  0.4605 -0.1754
 1046SOL    HW2 3717   7.952   5.829   6.975 -0.3744  0.4902  1.4368
 1047SOL     OW 3718   8.936   3.266   1.060  0.3069  0.1288  0.3875
 1047SOL    HW1 3719   8.890   3.209   1.123 -0.4455  0.7980  0.4486
 1047SOL    HW2 3720   8.868   3.299   1.002  0.8399  0.4234 -0.0836
 1048SOL     OW 3721   7.156   5.530   1.037  0.4338 -0.7328 -0.0364
 1048SOL    HW1 3722   7.189   5.586   1.108 -0.2474 -0.1948 -0.1317
 1048SOL    HW2 3723   7.095   5.471   1.081 -2.6828  1.7942 -0.5466
 1049SOL     OW 3724   7.814   7.295   1.887  0.9059  0.0173  0.6976
 1049SOL    HW1 3725   7.777   7.221   1.936 -1.0014 -0.0334 -0.6904
 1049SOL    HW2 3726   7.877   7.255   1.828 -0.5282 -0.6527 -0.4550
 1050SOL     OW 3727   6.473   4.656   7.086  0.5595 -0.4867  0.0312
 1050SOL    HW1 3728   6.385   4.687   7.069  0.1471 -1.7263 -0.1788
 1050SOL    HW2 3729   6.530   4.714   7.035 -0.2360 -0.5811 -0.9733
 1051SOL     OW 3730   6.796   8.769   4.714  0.4308  0.1381 -0.0713
 1051SOL    HW1 3731   6.779   8.675   4.724 -0.0247  0.1551 -0.6335
 1051SOL    HW2 3732   6.785   8.785   4.620 -1.9695  1.2139  0.3137
 1052SOL     OW 3733   9.818   4.117   7.300 -0.0821 -0.1038 -0.5313
 1052SOL    HW1 3734   9.785   4.135   7.212 -1.3378  0.6681  0.0705
 1052SOL    HW2 3735   9.744   4.078   7.346  0.6559 -0.7899  0.1085
 1053SOL     OW 3736   1.555   3.708   2.097  0.2604 -0.7981  0.2938
 1053SOL    HW1 3737   1.493   3.703   2.170  1.2516 -1.1046  1.1240
 1053SOL    HW2 3738   1.499   3.723   2.020 -0.7752 -0.1785  1.1374
 1054SOL     OW 3739   0.445   8.014   9.479  0.1079  0.3459  0.0309
 1054SOL    HW1 3740   0.402   8.097   9.494 -0.2259  0.2622 -0.4319
 1054SOL    HW2 3741   0.538   8.035   9.474  0.2734  0.3637  2.2468
 1055SOL     OW 3742   6.404   7.287   5.718  0.7045  0.1724 -0.2402
 1055SOL    HW1 3743   6.417   7.194   5.734 -1.0632 -0.0839 -0.0811
 1055SOL    HW2 3744   6.333   7.290   5.653  1.0500  1.3956 -0.5788
 1056SOL     OW 3745   7.676   7.932   2.554  0.2646  0.4142  0.0708
 1056SOL    HW1 3746   7.619   8.008   2.561 -1.3285 -0.8654  2.0401
 1056SOL    HW2 3747   7.649   7.890   2.472 -1.3529  0.0961  0.7293
 1057SOL     OW 3748   3.715   5.202   5.973  0.3602 -0.4946 -0.1232
 1057SOL    HW1 3749   3.783   5.243   6.026 -0.0428  0.1660 -0.1069
 1057SOL    HW2 3750   3.701   5.264   5.901  0.7078 -1.2469 -0.8562
 1058SOL     OW 3751   3.345   7.180   3.261  0.4717  0.3766 -0.0023
 1058SOL    HW1 3752   3.285   7.243   3.302 -1.2388 -1.1341 -0.0257
 1058SOL    HW2 3753   3.350   7.208   3.169 -0.7724  0.1639 -0.1556
 1059SOL     OW 3754   1.736   3.749   0.586  0.0410  0.0964  0.6307
 1059SOL    HW1 3755   1.766   3.772   0.673 -0.9138 -0.1079  1.0244
 1059SOL    HW2 3756   1.755   3.656   0.578  0.9202  0.3014  0.2848
 1060SOL     OW 3757   8.847   5.830   7.968 -0.4796 -0.2079  0.3659
 1060SOL    HW1 3758   8.770   5.786   8.003 -0.8047  0.5360  0.6188
 1060SOL    HW2 3759   8.812   5.902   7.916  0.0291 -0.4947 -0.3841
 1061SOL     OW 3760   7.419   4.059   3.245 -1.0137  0.6150 -0.3960
 1061SOL    HW1 3761   7.360   4.029   3.176  0.0259 -0.5374 -0.8142
 1061SOL    HW2 3762   7.383   4.022   3.326 -1.0580  0.2171 -0.5982
 1062SOL     OW 3763   1.180   1.176   7.981  0.9766 -0.6371  0.1747
 1062SOL    HW1 3764   1.153   1.237   8.049 -2.2426 -1.3681 -0.2749
 1062SOL    HW2 3765   1.198   1.231   7.904 -1.9596 -0.1348 -0.2532
 1063SOL     OW 3766   1.763   4.739   4.044 -0.5350 -0.3068 -0.3344
 1063SOL    HW1 3767   1.847   4.779   4.064 -1.7199  2.4464 -0.3131
 1063SOL    HW2 3768   1.781   4.646   4.037  2.4484  0.1661 -0.1631
 1064SOL     OW 3769   3.662   8.740   2.349  0.1150  0.0790  0.6588
 1064SOL    HW1 3770   3.595   8.806   2.332  0.1678  0.0289  0.2415
 1064SOL    HW2 3771   3.742   8.790   2.362  0.7630  0.0463 -2.4303
 1065SOL     OW 3772   9.122   3.415   0.097  0.0745 -0.2247  0.7342
 1065SOL    HW1 3773   9.193   3.388   0.040 -1.4877 -2.0832 -0.4700
 1065SOL    HW2 3774   9.147   3.385   0.184  2.0122  1.7254  0.9335
 1066SOL     OW 3775   9.623   6.207   3.076  0.0659 -0.1519  0.3089
 1066SOL    HW1 3776   9.617   6.176   3.167  0.0780  0.6920  0.5995
 1066SOL    HW2 3777   9.711   6.180   3.048 -0.2705 -1.2239  0.2364
 1067SOL     OW 3778   7.395   1.307   1.965  0.6723 -0.0884 -0.0186
 1067SOL    HW1 3779   7.341   1.385   1.977 -0.0869 -0.2874 -1.8913
 1067SOL    HW2 3780   7.481   1.342   1.940 -0.4921  0.2981 -4.3334
 1068SOL     OW 3781   5.011   6.193   3.846 -0.2018 -0.6237 -0.3734
 1068SOL    HW1 3782   5.058   6.138   3.908 -0.7308 -0.9216 -0.2228
 1068SOL    HW2 3783   4.998   6.136   3.770 -1.4803 -1.0136  0.1016
 1069SOL     OW 3784   7.997   2.401   5.554  0.1870 -0.4178 -0.3494
 1069SOL    HW1 3785   7.987   2.422   5.646  0.3479 -0.5471 -0.3021
 1069SOL    HW2 3786   7.935   2.329   5.539  1.3401 -1.5522  0.0604
 1070SOL     OW 3787   6.328   9.608   3.786  0.4773 -0.1229  0.4034
 1070SOL    HW1 3788   6.283   9.526   3.768  1.4188 -0.7106  0.6511
 1070SOL    HW2 3789   6.258   9.670   3.806 -0.2830 -0.7179 -0.3141
 1071SOL     OW 3790   8.855   8.431   3.442  0.0859 -0.4956  0.3537
 1071SOL    HW1 3791   8.915   8.500   3.412 -1.0917  0.9438  1.2257
 1071SOL    HW2 3792   8.912   8.368   3.486  1.2093 -0.2192 -0.6375
 1072SOL     OW 3793   0.657   6.832   3.108  0.2331  0.7737 -0.3288
 1072SOL    HW1 3794   0.740   6.786   3.113 -0.4117 -0.5391 -1.1885
 1072SOL    HW2 3795   0.601   6.775   3.056 -1.5366  1.1365  1.0770
 1073SOL     OW 3796   3.573   2.243   3.119  0.2633 -0.6906  0.2971
 1073SOL    HW1 3797   3.570   2.297   3.040  1.0838 -1.0379  0.0191
 1073SOL    HW2 3798   3.506   2.280   3.176  0.4765  0.3063 -0.0874
 1074SOL     OW 3799   5.785   0.333   5.846 -0.4254  0.1358  0.1477
 1074SOL    HW1 3800   5.867   0.317   5.800 -0.6708  1.0053 -0.6174
 1074SOL    HW2 3801   5.719   0.287   5.794 -0.6376  0.7432 -0.1299
 1075SOL     OW 3802   2.258   8.225   1.997 -0.0803 -0.0656  0.2377
 1075SOL    HW1 3803   2.209   8.155   2.039 -0.1392  0.7106  1.4954
 1075SOL    HW2 3804   2.349   8.210   2.024  0.4433 -1.4331 -1.9901
 1076SOL     OW 3805   8.104   6.882   4.870 -0.2734  0.5227  0.5405
 1076SOL    HW1 3806   8.051   6.848   4.798 -4.0108  1.5700  2.5055
 1076SOL    HW2 3807   8.158   6.808   4.897 -1.5225 -1.0335 -0.9783
 1077SOL     OW 3808   5.320   4.762   6.620  0.3122 -0.8865  0.0969
 1077SOL    HW1 3809   5.309   4.743   6.713 -2.1724 -0.8087 -0.1038
 1077SOL    HW2 3810   5.265   4.839   6.604  1.4452 -0.3095 -1.2740
 1078SOL     OW 3811   5.086   4.698   7.631  0.0290  0.9250  0.4961
 1078SOL    HW1 3812   5.129   4.724   7.713  0.1333 -1.7704  1.3761
 1078SOL    HW2 3813   4.995   4.682   7.656  0.2358 -0.6769  0.2798
 1079SOL     OW 3814   3.080   1.613   0.277 -0.0487  0.0214 -1.5970
 1079SOL    HW1 3815   3.136   1.675   0.229 -1.1161  0.5840 -2.1590
 1079SOL    HW2 3816   3.114   1.527   0.253  1.6539  0.3560 -0.5715
 1080SOL     OW 3817   3.485   8.231   2.345  0.2661 -0.7503 -0.0839
 1080SOL    HW1 3818   3.434   8.286   2.405 -1.6219 -1.7065 -0.7577
 1080SOL    HW2 3819   3.493   8.147   2.391 -0.4179 -1.2013 -0.7707
 1081SOL     OW 3820   3.787   5.266   2.109 -0.3464  0.2961  0.5834
 1081SOL    HW1 3821   3.850   5.337   2.121 -1.5037  1.3155  0.9062
 1081SOL    HW2 3822   3.702   5.310   2.105 -0.9080 -0.8505 -1.8743
 1082SOL     OW 3823   3.490   4.066   4.941 -0.0274 -0.2450  0.4872
 1082SOL    HW1 3824   3.544   4.141   4.918  0.3021 -0.6617 -0.1404
 1082SOL    HW2 3825   3.459   4.085   5.029  0.4780  0.3814  0.5403
 1083SOL     OW 3826   6.121   7.219   1.154  0.0520 -0.1341 -0.5738
 1083SOL    HW1 3827   6.089   7.247   1.068  1.7909 -0.9171 -1.5137
 1083SOL    HW2 3828   6.049   7.168   1.190 -0.1556 -1.0539 -2.2168
 1084SOL     OW 3829   1.199   4.394   9.606 -0.0922 -0.4442  0.3890
 1084SOL    HW1 3830   1.154   4.332   9.663 -0.4866  0.9424  1.6543
 1084SOL    HW2 3831   1.132   4.424   9.545 -0.4743  0.3733  1.1988
 1085SOL     OW 3832   3.062   3.946   4.006 -0.2522  0.2809 -0.2026
 1085SOL    HW1 3833   3.101   3.942   3.918 -0.3991  0.7450 -0.2921
 1085SOL    HW2 3834   3.125   3.998   4.057  0.0523 -0.3667  0.0853
 1086SOL     OW 3835   0.613   6.217   2.253 -0.1767  0.1307  0.2747
 1086SOL    HW1 3836   0.536   6.177   2.211 -0.0062 -1.3838  1.2985
 1086SOL    HW2 3837   0.580   6.299   2.289 -1.5207 -0.7580  1.2134
 1087SOL     OW 3838   7.243   8.388   9.123 -0.1837 -0.2433  0.0567
 1087SOL    HW1 3839   7.193   8.308   9.136 -2.8136  0.7510 -2.7507
 1087SOL    HW2 3840   7.194   8.455   9.170  0.0345  0.2952 -0.4660
 1088SOL     OW 3841   8.763   3.884   7.436  0.0261  0.2574 -0.4105
 1088SOL    HW1 3842   8.786   3.870   7.527 -0.3217 -0.3461 -0.4138
 1088SOL    HW2 3843   8.848   3.893   7.391  0.1917  0.7631 -0.0035
 1089SOL     OW 3844   7.287   0.763   2.683 -0.2429 -0.0753  0.1730
 1089SOL    HW1 3845   7.313   0.769   2.591  2.2561  0.5070  0.8350
 1089SOL    HW2 3846   7.242   0.678   2.689  0.4494 -0.6031 -1.3843
 1090SOL     OW 3847   1.936   9.765   2.477  0.5792 -0.6597  0.1273
 1090SOL    HW1 3848   1.961   9.705   2.407  1.4082  1.1585 -1.2036
 1090SOL    HW2 3849   2.005   9.831   2.479 -1.4135  1.5850 -0.0786
 1091SOL     OW 3850   0.618   8.544   2.074 -0.4460 -0.3643 -0.8889
 1091SOL    HW1 3851   0.686   8.579   2.017 -0.4233  0.2188 -0.5185
 1091SOL    HW2 3852   0.554   8.615   2.082  1.5902  1.3301  3.1693
 1092SOL     OW 3853   6.139   7.352   6.610 -0.4641 -0.0547 -0.5411
 1092SOL    HW1 3854   6.180   7.269   6.635  0.4373  0.3769 -0.5647
 1092SOL    HW2 3855   6.157   7.411   6.683  0.3675  0.6012 -1.2545
 1093SOL     OW 3856   2.618   7.907   1.614  0.1178  0.3220 -0.3410
 1093SOL    HW1 3857   2.572   7.964   1.675  1.7637 -0.6885  1.9999
 1093SOL    HW2 3858   2.574   7.822   1.623 -1.5820  0.8086 -2.9444
 1094SOL     OW 3859   7.582   2.740   1.530 -0.3598  0.2249  0.3941
 1094SOL    HW1 3860   7.581   2.654   1.573  0.5898  0.6792  1.3585
 1094SOL    HW2 3861   7.500   2.743   1.481 -0.4635 -1.1817  0.4472
 1095SOL     OW 3862   3.528   0.122   5.831  0.2748  0.2022  0.5711
 1095SOL    HW1 3863   3.441   0.087   5.811  1.8021 -2.5652 -1.9790
 1095SOL    HW2 3864   3.549   0.085   5.917 -0.7936  0.4067  0.9383
 1096SOL     OW 3865   1.271   1.262   0.244  0.2026 -0.0971 -0.1816
 1096SOL    HW1 3866   1.333   1.317   0.195  0.6146  0.5083  0.9785
 1096SOL    HW2 3867   1.311   1.253   0.331  0.0030 -2.0141 -0.2387
 1097SOL     OW 3868   3.320   2.093   1.055  0.1412  0.7040  0.0631
 1097SOL    HW1 3869   3.385   2.084   0.985  0.3643  1.5380  0.1629
 1097SOL    HW2 3870   3.274   2.174   1.035 -1.1685 -0.0824 -0.2454
 1098SOL     OW 3871   6.908   7.231   1.715  0.0448 -0.1371  0.2280
 1098SOL    HW1 3872   6.899   7.286   1.793  0.3470 -0.9141  0.8419
 1098SOL    HW2 3873   6.907   7.141   1.750  1.4081 -0.4758 -0.5165
 1099SOL     OW 3874   0.907   6.495   4.675 -0.5559  0.0774 -0.5238
 1099SOL    HW1 3875   0.971   6.425   4.671 -1.1654 -0.4275 -2.6570
 1099SOL    HW2 3876   0.941   6.555   4.741 -0.4997 -2.6382  2.1291
 1100SOL     OW 3877   4.548   5.933   2.405  0.7187  0.1495 -0.8411
 1100SOL    HW1 3878   4.541   6.021   2.440 -0.6958 -0.2317 -0.0647
 1100SOL    HW2 3879   4.590   5.882   2.475  1.4630  0.1923 -1.2557
 1101SOL     OW 3880   5.142   7.825   0.777 -0.1140 -0.5234  0.5008
 1101SOL    HW1 3881   5.089   7.830   0.857 -0.8507  0.9610 -0.0314
 1101SOL    HW2 3882   5.117   7.903   0.728  1.6406 -0.4667 -0.3666
 1102SOL     OW 3883   7.244   5.211   4.675 -0.0493 -0.7409 -0.2904
 1102SOL    HW1 3884   7.185   5.146   4.637 -1.5559 -0.3670  1.2883
 1102SOL    HW2 3885   7.211   5.225   4.764  0.8321  1.4398 -0.2281
 1103SOL     OW 3886   1.913   2.100   6.390  0.4200  0.5171 -0.0370
 1103SOL    HW1 3887   1.824   2.116   6.422 -0.0697  0.5542 -1.3411
 1103SOL    HW2 3888   1.906   2.107   6.295  1.4572 -1.2756 -0.2932
 1104SOL     OW 3889   5.932   4.270   1.074  0.7128 -0.0568 -0.4345
 1104SOL    HW1 3890   6.002   4.218   1.113  0.8298  0.7390  0.4487
 1104SOL    HW2 3891   5.910   4.335   1.140 -1.4386 -0.7899 -0.3511
 1105SOL     OW 3892   5.469   1.878   6.761 -0.2828  0.6062 -0.0483
 1105SOL    HW1 3893   5.405   1.847   6.698  1.5431 -1.8726 -0.8784
 1105SOL    HW2 3894   5.429   1.863   6.846 -0.8757 -0.8259 -0.5485
 1106SOL     OW 3895   1.488   1.926   3.305 -0.8367  0.2433 -0.2700
 1106SOL    HW1 3896   1.465   1.836   3.330 -0.2634  0.3608  0.7600
 1106SOL    HW2 3897   1.421   1.980   3.347  0.3078  0.4659  1.3783
 1107SOL     OW 3898   7.948   1.076   6.350  0.4764 -0.6443 -0.3552
 1107SOL    HW1 3899   8.018   1.065   6.414 -1.0037 -1.2863  1.2520
 1107SOL    HW2 3900   7.963   1.163   6.312  1.0697  0.0298  1.3264
 1108SOL     OW 3901   3.123   8.765   4.789 -0.3163 -0.0210 -0.3405
 1108SOL    HW1 3902   3.178   8.822   4.736  0.6515 -0.2534  0.3860
 1108SOL    HW2 3903   3.183   8.701   4.825 -1.4433 -1.7678 -1.4462
 1109SOL     OW 3904   9.546   0.081   5.426 -0.2763  0.1042 -0.0908
 1109SOL    HW1 3905   9.459   0.062   5.461 -1.2886  1.9903 -1.4435
 1109SOL    HW2 3906   9.543   0.047   5.336  0.9586 -1.1761  0.3017
 1110SOL     OW 3907   5.975   0.704   6.910 -0.2595  0.0348 -0.4117
 1110SOL    HW1 3908   5.974   0.767   6.837 -2.1683  0.4927 -0.0362
 1110SOL    HW2 3909   6.051   0.730   6.962  0.2814  0.6171 -1.4454
 1111SOL     OW 3910   6.058   9.638   3.051 -0.7124 -0.0677  0.1402
 1111SOL    HW1 3911   6.078   9.732   3.058  1.2810 -0.0985 -3.2463
 1111SOL    HW2 3912   6.122   9.596   3.108  1.0549  0.5024 -1.3503
 1112SOL     OW 3913   1.676   8.226   0.610 -0.1667 -0.1053  0.0522
 1112SOL    HW1 3914   1.688   8.301   0.668 -0.7033  0.6106 -0.7334
 1112SOL    HW2 3915   1.757   8.219   0.561 -0.0030 -0.2324  0.3391
 1113SOL     OW 3916   0.939   5.688   5.526  0.9492 -0.6343  0.3061
 1113SOL    HW1 3917   0.917   5.694   5.619 -0.9162 -0.6028 -0.0890
 1113SOL    HW2 3918   0.860   5.650   5.486  0.9776  1.0995 -1.5207
 1114SOL     OW 3919   4.542   5.289   5.946 -0.6742 -0.8669 -0.0557
 1114SOL    HW1 3920   4.594   5.365   5.922 -1.9973  0.5639  1.3192
 1114SOL    HW2 3921   4.585   5.254   6.024 -1.3946 -0.0435  0.7300
 1115SOL     OW 3922   3.451   6.792   4.586 -0.6295  0.2648 -0.3099
 1115SOL    HW1 3923   3.479   6.853   4.654  0.8688 -0.3094 -0.3584
 1115SOL    HW2 3924   3.531   6.745   4.562 -1.7670 -1.8924 -0.0915
 1116SOL     OW 3925   4.635   7.121   3.610  0.0451 -0.0305  0.1137
 1116SOL    HW1 3926   4.674   7.155   3.691 -2.4095  2.1772  0.4866
 1116SOL    HW2 3927   4.549   7.088   3.636 -0.2659 -0.5224 -1.4069
 1117SOL     OW 3928   6.371   6.959   2.039  0.1021 -0.1919  0.1047
 1117SOL    HW1 3929   6.429   7.023   2.080  2.0469 -1.5961 -0.2891
 1117SOL    HW2 3930   6.406   6.874   2.067 -0.7524 -1.1175 -1.5028
 1118SOL     OW 3931   1.473   7.940   8.465  0.2861  0.4860 -0.0671
 1118SOL    HW1 3932   1.519   7.878   8.408 -0.8334  0.0581 -0.5402
 1118SOL    HW2 3933   1.494   7.910   8.554  1.0628  0.4196 -0.2593
 1119SOL     OW 3934   3.689   3.692   2.032 -0.0477  0.0549  0.0312
 1119SOL    HW1 3935   3.595   3.676   2.019 -0.0743 -0.2047  0.4975
 1119SOL    HW2 3936   3.693   3.776   2.077 -0.0210  0.3616 -0.5374
 1120SOL     OW 3937   1.958   5.909   9.720 -0.5981 -0.1354 -0.0212
 1120SOL    HW1 3938   1.873   5.913   9.677 -2.0001 -0.7117  2.5120
 1120SOL    HW2 3939   1.940   5.871   9.806  2.4826 -1.8871 -0.0106
 1121SOL     OW 3940   2.178   5.514   0.375  0.1895  0.1240  0.2639
 1121SOL    HW1 3941   2.110   5.456   0.342 -0.1279  0.6733 -0.0727
 1121SOL    HW2 3942   2.260   5.470   0.353 -0.0281 -1.4628  2.3272
 1122SOL     OW 3943   3.123   7.321   2.122 -0.6176 -0.3296  0.2802
 1122SOL    HW1 3944   3.216   7.343   2.112 -0.6631 -0.2798 -0.0466
 1122SOL    HW2 3945   3.085   7.338   2.036 -1.1383  0.6189  0.6788
 1123SOL     OW 3946   9.408   6.447   4.096  0.5937 -0.7636 -0.2883
 1123SOL    HW1 3947   9.378   6.394   4.169 -0.6744 -0.6703 -0.7168
 1123SOL    HW2 3948   9.400   6.537   4.126 -0.6369 -0.6926 -0.7718
 1124SOL     OW 3949   2.653   9.742   0.725 -0.3461 -0.0239  0.3475
 1124SOL    HW1 3950   2.602   9.726   0.645  1.3574 -0.5521 -0.6956
 1124SOL    HW2 3951   2.728   9.793   0.696  0.4741 -0.4875  1.5537
 1125SOL     OW 3952   7.574   4.217   5.105  0.2472 -0.2079 -0.9842
 1125SOL    HW1 3953   7.564   4.219   5.200 -0.2740 -2.7892 -0.9356
 1125SOL    HW2 3954   7.617   4.300   5.084  1.5237 -0.1235  1.6279
 1126SOL     OW 3955   4.887   5.926   0.417 -0.2463 -0.3303  0.1558
 1126SOL    HW1 3956   4.940   5.868   0.472 -1.0025 -1.1773  0.0141
 1126SOL    HW2 3957   4.862   5.872   0.342  0.0113  0.5377 -0.5723
 1127SOL     OW 3958   6.435   1.387   5.077 -0.1918 -0.1276  0.0104
 1127SOL    HW1 3959   6.505   1.392   5.012 -0.4942  0.6691 -0.2730
 1127SOL    HW2 3960   6.354   1.389   5.026 -0.4359 -1.1841  0.3276
 1128SOL     OW 3961   2.224   1.399   7.778  0.3708  0.1859 -0.3382
 1128SOL    HW1 3962   2.144   1.443   7.807  1.0311  0.8497  0.5591
 1128SOL    HW2 3963   2.203   1.306   7.781 -0.5587  0.3767 -0.7251
 1129SOL     OW 3964   0.085   1.218   7.971  0.2497  0.3120  0.1837
 1129SOL    HW1 3965  -0.007   1.244   7.959  0.0599 -0.8413 -1.0898
 1129SOL    HW2 3966   0.082   1.152   8.041  0.1876  0.6906  0.5398
 1130SOL     OW 3967   3.342   8.537   9.760  0.0269 -0.1957 -0.0082
 1130SOL    HW1 3968   3.366   8.508   9.848 -0.1683  0.4781  0.2717
 1130SOL    HW2 3969   3.424   8.534   9.711  0.2934  0.1802  0.4087
 1131SOL     OW 3970   5.715   9.550   9.660  0.1979  0.1423  0.1872
 1131SOL    HW1 3971   5.782   9.503   9.711  1.6278  2.0704  0.1881
 1131SOL    HW2 3972   5.763   9.586   9.586 -1.5927 -1.4633 -1.8694
 1132SOL     OW 3973   2.767   5.476   9.804 -0.2153 -0.5575  0.5558
 1132SOL    HW1 3974   2.724   5.392   9.815 -2.3537  0.3593 -0.3400
 1132SOL    HW2 3975   2.742   5.527   9.881  0.2065 -0.3680  0.5734
 1133SOL     OW 3976   4.546   3.313   1.184 -0.0149  0.4732  0.4308
 1133SOL    HW1 3977   4.560   3.407   1.194  3.7434  0.3582 -1.7604
 1133SOL    HW2 3978   4.452   3.303   1.175 -0.4167  4.3404 -1.5623
 1134SOL     OW 3979   9.033   4.919   9.906  0.2688  0.3339 -0.0297
 1134SOL    HW1 3980   9.061   4.841   9.859  3.5961  2.4526 -1.9912
 1134SOL    HW2 3981   9.014   4.888   9.995  0.6369 -2.7834 -0.9372
 1135SOL     OW 3982   1.841   0.735   5.368 -0.5099  0.8003 -0.4453
 1135SOL    HW1 3983   1.915   0.754   5.426 -0.3996  1.6711 -0.8562
 1135SOL    HW2 3984   1.839   0.639   5.363  0.5250  0.7584 -0.3474
 1136SOL     OW 3985   4.538   1.162   9.312  0.2768 -0.1707 -0.3774
 1136SOL    HW1 3986   4.583   1.237   9.351  0.1308 -0.5645  0.5701
 1136SOL    HW2 3987   4.567   1.162   9.220  1.5425  0.0737  0.0014
 1137SOL     OW 3988   0.845   2.160   3.125 -0.2419  0.3172 -0.0761
 1137SOL    HW1 3989   0.789   2.214   3.181  1.4859  1.2891  0.8037
 1137SOL    HW2 3990   0.796   2.079   3.114 -0.4897 -0.2066  3.4342
 1138SOL     OW 3991   7.737   4.081   5.738  0.0652 -0.5259 -0.3411
 1138SOL    HW1 3992   7.742   3.992   5.702 -1.0056 -1.2409  1.1503
 1138SOL    HW2 3993   7.762   4.071   5.829 -0.7384  0.5759  0.0184
 1139SOL     OW 3994   9.545   2.874   6.122 -0.3293  0.3710 -0.0694
 1139SOL    HW1 3995   9.618   2.924   6.085 -0.3983  0.6436  0.1584
 1139SOL    HW2 3996   9.533   2.911   6.209 -0.3684 -0.0632  0.1103
 1140SOL     OW 3997   9.539   5.368   2.231 -0.1558 -0.2239 -0.7307
 1140SOL    HW1 3998   9.522   5.277   2.206 -0.9420 -0.1106 -0.6323
 1140SOL    HW2 3999   9.523   5.418   2.151 -0.7977 -0.0629 -0.5080
 1141SOL     OW 4000   1.460   5.135   7.861 -0.2866 -0.2065 -0.4171
 1141SOL    HW1 4001   1.436   5.159   7.772  1.3787 -0.8224 -1.0684
 1141SOL    HW2 4002   1.394   5.070   7.887 -0.1865 -0.8035 -1.5988
 1142SOL     OW 4003   2.210   1.807   4.975  0.1119 -0.0265  0.1756
 1142SOL    HW1 4004   2.253   1.798   5.060  2.7785  1.9382 -0.8006
 1142SOL    HW2 4005   2.282   1.802   4.912 -1.3404  1.7176 -1.7402
 1143SOL     OW 4006   1.734   0.599   2.533 -0.5998 -0.3550  0.5360
 1143SOL    HW1 4007   1.763   0.651   2.457 -1.6713 -1.9804 -1.0605
 1143SOL    HW2 4008   1.649   0.637   2.556  0.3275  1.0225  1.8601
 1144SOL     OW 4009   2.428   1.289   4.344  0.4322 -1.3297  0.0736
 1144SOL    HW1 4010   2.502   1.236   4.373  1.5341  0.7481  1.2050
 1144SOL    HW2 4011   2.397   1.334   4.422 -0.6495 -0.4939 -0.7891
 1145SOL     OW 4012   8.955   8.556   4.486 -0.5120 -0.3411 -0.5208
 1145SOL    HW1 4013   9.024   8.600   4.536 -0.0718  0.0413 -1.4439
 1145SOL    HW2 4014   8.908   8.504   4.551  0.6589 -0.6274  0.1270
 1146SOL     OW 4015   5.970   4.345   7.639 -0.1623 -0.2200 -0.3171
 1146SOL    HW1 4016   6.036   4.346   7.570 -0.1424  0.1356 -0.2931
 1146SOL    HW2 4017   5.988   4.423   7.691 -0.7198 -0.0172 -0.4184
 1147SOL     OW 4018   8.656   6.662   1.066  0.3630  0.1072 -0.6852
 1147SOL    HW1 4019   8.715   6.587   1.056  2.6915  1.4223  1.9037
 1147SOL    HW2 4020   8.671   6.693   1.155 -3.8516  0.9966 -0.0484
 1148SOL     OW 4021   9.883   0.340   4.921 -0.5138 -0.0540 -0.0163
 1148SOL    HW1 4022   9.804   0.391   4.907 -0.4687 -0.0362 -0.2177
 1148SOL    HW2 4023   9.931   0.388   4.988 -0.0991  0.6081 -0.7637
 1149SOL     OW 4024   5.797   5.086   1.893  0.7548  0.2819  0.3285
 1149SOL    HW1 4025   5.725   5.075   1.955 -0.0867  1.1720 -0.4575
 1149SOL    HW2 4026   5.873   5.107   1.947 -0.0750  1.5583  1.0372
 1150SOL     OW 4027   6.175   5.730   0.838  0.0262  0.0328  0.6442
 1150SOL    HW1 4028   6.218   5.710   0.755  0.7832  1.0993  0.7569
 1150SOL    HW2 4029   6.105   5.666   0.845 -0.2659  0.1385 -0.9901
 1151SOL     OW 4030   0.706   8.540   7.215  0.4900  0.0949 -0.2681
 1151SOL    HW1 4031   0.662   8.455   7.211  2.0405 -0.7206 -1.2353
 1151SOL    HW2 4032   0.660   8.588   7.283 -1.0329 -1.1696 -0.3525
 1152SOL     OW 4033   4.757   2.928   4.731  0.4042 -0.2529  0.2809
 1152SOL    HW1 4034   4.703   2.853   4.754  1.0369 -0.5218  0.8897
 1152SOL    HW2 4035   4.774   2.973   4.814  1.4645 -0.4102  0.1675
 1153SOL     OW 4036   7.400   3.612   0.340 -0.6091 -0.7148  0.3418
 1153SOL    HW1 4037   7.353   3.585   0.419  1.2345 -1.2792  1.3100
 1153SOL    HW2 4038   7.485   3.643   0.372 -0.2996  0.2803 -1.3261
 1154SOL     OW 4039   0.515   3.992   9.667 -0.1651 -0.3141  0.0883
 1154SOL    HW1 4040   0.469   4.001   9.583  0.0518 -0.2530 -0.0230
 1154SOL    HW2 4041   0.541   4.081   9.690 -0.8994 -0.2247  0.6039
 1155SOL     OW 4042   4.187   4.152   4.284  0.1714  0.2425 -0.2918
 1155SOL    HW1 4043   4.247   4.093   4.329  0.5604  0.5941 -0.3387
 1155SOL    HW2 4044   4.212   4.146   4.192 -1.8663 -1.9472 -0.7950
 1156SOL     OW 4045   8.237   8.646   1.807  0.0004  0.1028  0.3426
 1156SOL    HW1 4046   8.209   8.727   1.849  0.1470  0.1530  0.3453
 1156SOL    HW2 4047   8.159   8.613   1.764 -0.4813 -0.5895  1.6801
 1157SOL     OW 4048   2.673   2.700   1.542  0.1393  0.9864  0.0909
 1157SOL    HW1 4049   2.584   2.734   1.555 -0.1351  0.6986 -0.8721
 1157SOL    HW2 4050   2.663   2.637   1.470  1.0235  0.5112  0.3741
 1158SOL     OW 4051   4.150   2.497   2.028 -0.2260  0.5655  0.0858
 1158SOL    HW1 4052   4.108   2.518   1.944 -0.5761  0.7319  0.2984
 1158SOL    HW2 4053   4.115   2.562   2.089 -2.0929 -1.2049  0.9973
 1159SOL     OW 4054   2.349   6.541   2.058  0.1991  0.4195  0.4123
 1159SOL    HW1 4055   2.303   6.593   1.993  1.9167 -0.5713 -1.7126
 1159SOL    HW2 4056   2.293   6.543   2.135 -1.7544  1.9287 -0.9759
 1160SOL     OW 4057   5.678   7.019   2.562  0.1667  0.7006  0.2172
 1160SOL    HW1 4058   5.616   6.970   2.507 -1.9931  1.6224  1.6731
 1160SOL    HW2 4059   5.695   7.099   2.512  0.2834  0.3889 -0.2534
 1161SOL     OW 4060   9.448   3.934   2.785  0.8816 -0.1608  0.5232
 1161SOL    HW1 4061   9.469   3.849   2.822  0.5259 -0.5982 -0.2403
 1161SOL    HW2 4062   9.473   3.927   2.693 -0.1756  0.1802  0.1988
 1162SOL     OW 4063   7.254   8.895   8.343 -0.2051  0.5613 -1.1712
 1162SOL    HW1 4064   7.196   8.956   8.296  0.2981  1.7864 -0.2531
 1162SOL    HW2 4065   7.284   8.944   8.419  0.8871 -0.5596 -0.8430
 1163SOL     OW 4066   7.522   6.165   8.236 -0.6168 -0.7727  0.2090
 1163SOL    HW1 4067   7.598   6.221   8.257 -1.0433 -0.3393  0.6194
 1163SOL    HW2 4068   7.561   6.088   8.195 -0.0830  0.2281 -1.2336
 1164SOL     OW 4069   1.753   5.103   8.410 -0.0215 -0.2693 -0.5619
 1164SOL    HW1 4070   1.829   5.138   8.364  1.3399  1.5496  2.7695
 1164SOL    HW2 4071   1.789   5.035   8.467 -1.0897 -0.2271  0.1848
 1165SOL     OW 4072   2.546   2.140   3.201 -0.2010  0.1685 -0.1518
 1165SOL    HW1 4073   2.543   2.225   3.243  0.6077 -0.5533  1.4713
 1165SOL    HW2 4074   2.580   2.157   3.113 -0.4151  1.5516  0.0236
 1166SOL     OW 4075   1.789   2.956   1.220  0.0759 -0.0424 -0.4898
 1166SOL    HW1 4076   1.881   2.931   1.233  0.3712  0.3970 -1.6129
 1166SOL    HW2 4077   1.742   2.915   1.293  1.1427 -0.3847  0.0218
 1167SOL     OW 4078   3.579   0.146   3.113 -0.6124 -0.1567  0.0572
 1167SOL    HW1 4079   3.665   0.185   3.125 -1.1922  0.7151  1.6407
 1167SOL    HW2 4080   3.562   0.153   3.019  1.0945 -0.5134 -0.3095
 1168SOL     OW 4081   3.476   3.827   9.078  0.6925 -0.2979 -0.0304
 1168SOL    HW1 4082   3.404   3.852   9.020  0.2498  0.2593  0.7459
 1168SOL    HW2 4083   3.463   3.879   9.157  1.3063 -1.0206  0.5638
 1169SOL     OW 4084   0.056   6.679   4.534 -0.0008 -0.0314 -0.3130
 1169SOL    HW1 4085   0.076   6.646   4.622  1.7087  0.5908 -0.4401
 1169SOL    HW2 4086   0.023   6.602   4.487 -0.6452 -0.4448  0.7646
 1170SOL     OW 4087   1.003   4.524   5.634  0.0139  0.5825 -0.1377
 1170SOL    HW1 4088   1.034   4.465   5.703  2.4274  0.4745 -1.2134
 1170SOL    HW2 4089   0.961   4.466   5.570 -0.0127  0.3582  0.0807
 1171SOL     OW 4090   2.533   5.701   4.126  0.5502 -0.2237 -0.4204
 1171SOL    HW1 4091   2.456   5.675   4.177  1.6590 -1.4781  0.7134
 1171SOL    HW2 4092   2.594   5.737   4.192  1.4705 -0.5651 -1.0658
 1172SOL     OW 4093   2.632   9.214   4.995  0.3293  0.2077 -0.5677
 1172SOL    HW1 4094   2.706   9.218   4.934  0.1998  0.8505 -0.6814
 1172SOL    HW2 4095   2.670   9.182   5.077  0.6548  0.1391 -0.7450
 1173SOL     OW 4096   2.504   1.268   8.259  0.4773  0.3889  0.0971
 1173SOL    HW1 4097   2.456   1.350   8.241  1.2566  0.9329  0.4423
 1173SOL    HW2 4098   2.469   1.206   8.195 -0.1797  0.9711 -0.1284
 1174SOL     OW 4099   9.266   5.725   9.866 -0.0156 -0.1000 -0.9254
 1174SOL    HW1 4100   9.221   5.779   9.801 -1.2878  0.4957  0.3929
 1174SOL    HW2 4101   9.216   5.644   9.869 -1.3374  0.7114  0.8244
 1175SOL     OW 4102   4.432   8.120   7.377  0.2700 -0.9911  0.0665
 1175SOL    HW1 4103   4.451   8.066   7.300 -0.2099 -0.8357 -0.1627
 1175SOL    HW2 4104   4.475   8.203   7.358 -1.9094 -0.0769 -1.1810
 1176SOL     OW 4105   0.521   4.956   4.446  0.4034  0.7966  0.2885
 1176SOL    HW1 4106   0.445   5.014   4.452 -0.3146 -0.0787 -0.0415
 1176SOL    HW2 4107   0.552   4.968   4.356 -1.6935 -1.6177 -0.8797
 1177SOL     OW 4108   9.441   5.471   2.009  0.3772  0.4052 -0.4368
 1177SOL    HW1 4109   9.508   5.460   1.941  0.8407 -2.2428  0.3434
 1177SOL    HW2 4110   9.358   5.469   1.961  0.7425  0.7144 -1.1061
 1178SOL     OW 4111   2.489   7.002   1.351 -0.2153 -0.0401 -0.0839
 1178SOL    HW1 4112   2.459   7.067   1.288  0.4090  1.9676  1.5560
 1178SOL    HW2 4113   2.580   7.026   1.368 -0.6722  0.2416  2.3782
 1179SOL     OW 4114   0.226   4.773   1.310 -0.2807  1.3096  0.0155
 1179SOL    HW1 4115   0.280   4.841   1.352  0.9359 -0.5164  1.5826
 1179SOL    HW2 4116   0.136   4.796   1.334 -0.0332  3.0607 -0.5896
 1180SOL     OW 4117   2.300   2.577   5.421  0.3495  0.1732 -0.0491
 1180SOL    HW1 4118   2.296   2.661   5.466  1.0568 -0.8273  2.0269
 1180SOL    HW2 4119   2.238   2.521   5.468  0.4270 -0.6856 -0.9208
 1181SOL     OW 4120   3.416   5.293   5.355  0.0063 -0.3688 -0.5244
 1181SOL    HW1 4121   3.380   5.369   5.308  0.3926 -0.0513 -0.3153
 1181SOL    HW2 4122   3.511   5.308   5.353  0.0194 -0.2823  0.4748
 1182SOL     OW 4123   1.423   2.680   0.160  0.8201 -0.2511  0.0146
 1182SOL    HW1 4124   1.448   2.588   0.154 -0.5010 -0.6395  0.3348
 1182SOL    HW2 4125   1.418   2.709   0.068  2.8928  0.0126 -0.0857
 1183SOL     OW 4126   5.882   0.068   5.524 -0.3071 -0.1568  0.3394
 1183SOL    HW1 4127   5.928   0.072   5.608 -2.0833 -0.0567  1.3389
 1183SOL    HW2 4128   5.859  -0.025   5.514 -2.7290  0.2658  1.4739
 1184SOL     OW 4129   1.681   3.965   2.111  0.3950  0.0832 -0.0091
 1184SOL    HW1 4130   1.638   3.879   2.113  0.0363  0.2692  0.2195
 1184SOL    HW2 4131   1.730   3.969   2.193 -0.8235  0.7304  0.7051
 1185SOL     OW 4132   6.291   3.054   0.373 -0.1514 -0.8800 -0.1700
 1185SOL    HW1 4133   6.346   2.992   0.325 -1.6317 -1.4940 -1.1623
 1185SOL    HW2 4134   6.239   3.097   0.304  0.7799  1.4404  0.4904
 1186SOL     OW 4135   9.406   2.017   4.394  0.3525 -0.2911  0.0902
 1186SOL    HW1 4136   9.487   1.978   4.361  0.2822 -0.5792  0.2551
 1186SOL    HW2 4137   9.432   2.058   4.477  0.6093  0.7485 -0.4803
 1187SOL     OW 4138   7.097   7.451   1.482 -0.3885  0.2724 -0.1940
 1187SOL    HW1 4139   7.030   7.384   1.496 -1.6368  1.5950  0.3922
 1187SOL    HW2 4140   7.068   7.499   1.405 -0.8768  1.7079  0.8447
 1188SOL     OW 4141   6.019   1.530   0.758  0.1643  0.3828 -0.5592
 1188SOL    HW1 4142   6.096   1.478   0.735  0.2338  0.7520 -1.1716
 1188SOL    HW2 4143   5.948   1.465   0.763 -0.1284  0.3885 -3.0977
 1189SOL     OW 4144   1.932   6.480   9.761 -0.0802 -0.0958 -0.1731
 1189SOL    HW1 4145   1.990   6.450   9.691  0.2440 -0.1314  0.1061
 1189SOL    HW2 4146   1.924   6.574   9.746 -1.2145 -0.3294 -1.1326
 1190SOL     OW 4147   5.833   9.336   5.333 -0.2998 -0.1113  0.3679
 1190SOL    HW1 4148   5.913   9.289   5.356 -0.7834 -0.4192  1.5360
 1190SOL    HW2 4149   5.832   9.338   5.238  0.9317 -0.3778  0.3320
 1191SOL     OW 4150   7.944   6.446   0.932 -0.8576 -0.5131  0.0744
 1191SOL    HW1 4151   7.879   6.401   0.878  0.2462  0.8418 -2.5934
 1191SOL    HW2 4152   7.928   6.415   1.021 -3.7078 -1.8347 -0.7995
 1192SOL     OW 4153   1.877   6.769   2.724  0.2778  0.3502  0.1965
 1192SOL    HW1 4154   1.940   6.703   2.695 -0.3828 -1.1244  1.9306
 1192SOL    HW2 4155   1.923   6.819   2.791  0.8208  1.8005 -1.2071
 1193SOL     OW 4156   9.622   2.541   3.928  0.1703 -0.1169 -0.0812
 1193SOL    HW1 4157   9.661   2.524   3.843  0.0942  1.0362 -0.3731
 1193SOL    HW2 4158   9.543   2.591   3.908 -0.3042 -0.5813  0.6175
 1194SOL     OW 4159   3.980   6.067   9.887 -0.1315  0.4464 -0.3767
 1194SOL    HW1 4160   3.888   6.068   9.861 -0.2527  1.1445  0.0352
 1194SOL    HW2 4161   4.014   5.983   9.856 -1.1228 -0.1833  0.1989
 1195SOL     OW 4162   8.170   7.996   5.712  0.8808 -0.3664 -0.7817
 1195SOL    HW1 4163   8.108   7.939   5.756  0.5345 -0.8364 -1.8641
 1195SOL    HW2 4164   8.178   7.961   5.624 -0.9089  2.3917 -2.1755
 1196SOL     OW 4165   0.788   5.167   4.449  0.4245  0.0881 -0.0241
 1196SOL    HW1 4166   0.833   5.178   4.533 -1.6222  1.2923  0.9882
 1196SOL    HW2 4167   0.703   5.130   4.471 -0.1338  0.3415 -1.5897
 1197SOL     OW 4168   4.768   0.438   8.632 -0.6619  0.3327  0.2614
 1197SOL    HW1 4169   4.707   0.367   8.614 -0.1761 -0.7480  2.5014
 1197SOL    HW2 4170   4.788   0.476   8.546 -1.5386 -1.7327 -0.9066
 1198SOL     OW 4171   1.308   9.347   6.890  0.2019 -0.4195 -0.1206
 1198SOL    HW1 4172   1.365   9.337   6.966 -1.0243 -0.5547  0.8119
 1198SOL    HW2 4173   1.240   9.409   6.918 -0.3590 -0.5908 -1.0406
 1199SOL     OW 4174   5.714   8.801   9.775 -0.1332 -0.2432  0.2660
 1199SOL    HW1 4175   5.683   8.727   9.827 -4.5242  0.8847 -0.3342
 1199SOL    HW2 4176   5.692   8.878   9.827 -1.3100  0.7794 -1.6460
 1200SOL     OW 4177   8.166   3.847   2.599  0.2450  0.0651  0.2429
 1200SOL    HW1 4178   8.086   3.894   2.623  0.3778 -0.4276  1.7846
 1200SOL    HW2 4179   8.164   3.767   2.652  2.4373  0.7089  1.4762
 1201SOL     OW 4180   8.982   4.835   8.890 -0.3905 -0.0445 -0.4275
 1201SOL    HW1 4181   8.985   4.864   8.799  1.3354  2.5035  0.3415
 1201SOL    HW2 4182   8.889   4.818   8.907 -0.9365  0.9310 -2.2253
 1202SOL     OW 4183   3.347   5.142   8.860 -0.3008 -0.0193  0.2195
 1202SOL    HW1 4184   3.315   5.216   8.809  1.4576 -0.4173 -1.6083
 1202SOL    HW2 4185   3.335   5.066   8.803  1.6574 -0.5014  0.3520
 1203SOL     OW 4186   8.692   5.678   8.151 -0.1865  0.0201 -0.0313
 1203SOL    HW1 4187   8.728   5.698   8.238  0.0609 -1.6490  0.2852
 1203SOL    HW2 4188   8.634   5.604   8.166 -1.0856  0.4820 -1.1169
 1204SOL     OW 4189   7.133   0.413   1.898  0.1746  0.4612 -0.4409
 1204SOL    HW1 4190   7.070   0.344   1.879  1.3758 -0.3059 -1.8342
 1204SOL    HW2 4191   7.087   0.494   1.875 -0.6854  0.0203 -0.3299
 1205SOL     OW 4192   3.640   4.341   9.735  0.1145 -0.6991  0.3775
 1205SOL    HW1 4193   3.607   4.364   9.648  0.4765  0.0921  0.4408
 1205SOL    HW2 4194   3.702   4.270   9.720  0.4992 -0.2735 -0.0656
 1206SOL     OW 4195   2.596   3.849   3.420 -0.4997  0.0720 -0.1468
 1206SOL    HW1 4196   2.621   3.866   3.511 -0.3707  0.8523 -0.3185
 1206SOL    HW2 4197   2.630   3.924   3.371 -0.9581 -0.1127 -0.7717
 1207SOL     OW 4198   3.474   3.269   9.204 -0.1160 -0.9640 -0.1133
 1207SOL    HW1 4199   3.400   3.218   9.173 -1.2952  0.1551  0.7412
 1207SOL    HW2 4200   3.482   3.341   9.141  0.5278 -1.3247 -0.4465
 1208SOL     OW 4201   3.231   4.195   4.997  0.1505 -0.0554  0.0728
 1208SOL    HW1 4202   3.252   4.286   5.017  0.7515 -0.3846  1.0145
 1208SOL    HW2 4203   3.227   4.192   4.901 -0.3613  1.0496  0.0382
 1209SOL     OW 4204   7.433   2.235   9.522  0.6014  0.4496 -0.1089
 1209SOL    HW1 4205   7.416   2.153   9.476  0.9833  0.2641  0.0800
 1209SOL    HW2 4206   7.346   2.264   9.551  0.3827  0.4518 -0.7425
 1210SOL     OW 4207   4.831   3.571   5.045  0.3108 -0.0119 -0.2687
 1210SOL    HW1 4208   4.799   3.608   5.127  0.0710 -0.4786 -0.1481
 1210SOL    HW2 4209   4.789   3.624   4.977 -0.1666 -0.1691 -0.1014
 1211SOL     OW 4210   7.044   4.363   5.701  0.7616  0.0595  0.0473
 1211SOL    HW1 4211   7.036   4.286   5.646 -0.1991  0.6040 -0.5960
 1211SOL    HW2 4212   6.954   4.385   5.726  1.0653  0.6385  0.6875
 1212SOL     OW 4213   4.835   0.757   1.519 -0.6400 -0.3764  0.5754
 1212SOL    HW1 4214   4.767   0.713   1.570 -0.1252 -2.5385 -0.4928
 1212SOL    HW2 4215   4.906   0.772   1.581 -1.5016  0.6232  1.3675
 1213SOL     OW 4216   7.300   0.455   6.264  0.1696  0.2186  0.3996
 1213SOL    HW1 4217   7.330   0.455   6.355 -0.2063  0.0350  0.5241
 1213SOL    HW2 4218   7.319   0.366   6.233 -1.2094 -0.2433  0.8050
 1214SOL     OW 4219   0.891   5.864   7.639 -0.0564  0.0421 -0.7812
 1214SOL    HW1 4220   0.913   5.840   7.549  2.4362  0.4331 -0.3382
 1214SOL    HW2 4221   0.935   5.799   7.693  0.1239  0.9522  0.1982
 1215SOL     OW 4222   0.221   7.848   6.569 -0.4098 -0.1819 -0.4424
 1215SOL    HW1 4223   0.134   7.885   6.582 -0.5876 -1.1006  1.3459
 1215SOL    HW2 4224   0.280   7.923   6.571 -0.8857  0.1979  1.7414
 1216SOL     OW 4225   4.262   3.616   1.276  0.2715  0.1510  0.4634
 1216SOL    HW1 4226   4.237   3.667   1.200 -0.6843 -0.9230  0.0256
 1216SOL    HW2 4227   4.215   3.656   1.349  0.0462  0.2901  0.2424
 1217SOL     OW 4228   5.295   0.734   0.250  0.7049  0.6838  0.0041
 1217SOL    HW1 4229   5.381   0.762   0.219  0.7007 -0.6857 -1.3507
 1217SOL    HW2 4230   5.239   0.738   0.173  0.2600 -1.0951  0.1797
 1218SOL     OW 4231   7.310   4.398   0.777 -0.0107 -0.2125 -0.0259
 1218SOL    HW1 4232   7.319   4.355   0.692  0.7877  2.1021 -1.2040
 1218SOL    HW2 4233   7.399   4.402   0.812 -0.3072 -0.9783  0.8871
 1219SOL     OW 4234   1.856   0.695   2.271 -0.5645  0.4616 -0.2377
 1219SOL    HW1 4235   1.800   0.764   2.234 -0.9824 -0.0262 -0.5370
 1219SOL    HW2 4236   1.914   0.670   2.200  0.5763  1.4825  0.2853
 1220SOL     OW 4237   2.757   0.898   6.984  0.0399  0.2007 -0.7268
 1220SOL    HW1 4238   2.828   0.858   7.034  0.8574  0.3739 -1.7084
 1220SOL    HW2 4239   2.681   0.893   7.042  0.8517  0.0362  0.3634
 1221SOL     OW 4240   4.051   8.120   4.761  0.2339 -0.2269 -0.5742
 1221SOL    HW1 4241   3.983   8.053   4.766  1.4890 -1.7219 -2.0574
 1221SOL    HW2 4242   4.026   8.175   4.687  0.0404 -0.0455 -0.3752
 1222SOL     OW 4243   5.723   4.657   8.347  0.2073  0.5506 -0.4825
 1222SOL    HW1 4244   5.815   4.632   8.350  0.8216  2.6069  2.5720
 1222SOL    HW2 4245   5.676   4.582   8.385  0.8679  0.3050 -0.1414
 1223SOL     OW 4246   8.671   2.167   6.425 -0.2669 -0.4794 -0.6721
 1223SOL    HW1 4247   8.632   2.160   6.338 -0.6193  2.0787 -0.7722
 1223SOL    HW2 4248   8.599   2.194   6.482  0.9353  2.9451 -0.5983
 1224SOL     OW 4249   8.967   2.939   9.175 -0.0433 -0.7063 -0.3598
 1224SOL    HW1 4250   8.955   2.854   9.131  0.6861 -0.2054 -1.5802
 1224SOL    HW2 4251   8.988   3.000   9.104 -0.8624  0.5758  0.4654
 1225SOL     OW 4252   6.952   5.318   3.663  0.2598 -0.4623  0.2629
 1225SOL    HW1 4253   6.900   5.335   3.585  0.3898 -0.7722  0.1056
 1225SOL    HW2 4254   6.894   5.339   3.736  0.6911  1.5234  0.0901
 1226SOL     OW 4255   8.574   5.507   9.610  0.1770 -0.3196 -0.9168
 1226SOL    HW1 4256   8.551   5.480   9.699  1.4317 -1.1934 -0.8235
 1226SOL    HW2 4257   8.635   5.580   9.622 -1.5498  1.2444 -1.1407
 1227SOL     OW 4258   3.443   2.131   7.478 -0.3525  0.3778 -0.3981
 1227SOL    HW1 4259   3.512   2.075   7.443 -0.2147  0.7049 -0.6591
 1227SOL    HW2 4260   3.432   2.102   7.568 -1.6798 -1.4335 -1.0796
 1228SOL     OW 4261   7.617   7.708   8.521  0.0494  0.6380 -0.1444
 1228SOL    HW1 4262   7.622   7.719   8.426  2.7960 -0.4090 -0.1954
 1228SOL    HW2 4263   7.694   7.753   8.555  1.3051 -2.3069  1.2031
 1229SOL     OW 4264   3.992   1.301   3.163 -0.2871 -0.0687  0.2836
 1229SOL    HW1 4265   3.955   1.387   3.141 -0.3524  0.6029  2.7287
 1229SOL    HW2 4266   3.915   1.246   3.181 -0.2203  0.1779  1.4027
 1230SOL     OW 4267   2.538   8.019   1.850 -0.1161  0.0893  0.3451
 1230SOL    HW1 4268   2.476   8.090   1.868  0.9315  1.2341 -0.3816
 1230SOL    HW2 4269   2.527   7.958   1.923 -1.4598  0.7043  0.6752
 1231SOL     OW 4270   2.195   8.739   2.496  0.2056 -0.4130 -0.2695
 1231SOL    HW1 4271   2.183   8.674   2.428 -1.1147 -1.8464  1.2375
 1231SOL    HW2 4272   2.288   8.739   2.515  0.2128 -1.9400 -0.2419
 1232SOL     OW 4273   9.808   0.081   6.381 -0.0735 -0.3039 -0.8240
 1232SOL    HW1 4274   9.731   0.042   6.423  0.1046 -0.1632 -0.3541
 1232SOL    HW2 4275   9.858   0.117   6.454 -0.4985  1.2809 -1.2680
 1233SOL     OW 4276   4.098   4.322   1.155 -0.5305  0.1560  0.2232
 1233SOL    HW1 4277   4.157   4.395   1.138 -1.0129  0.7054  0.8371
 1233SOL    HW2 4278   4.034   4.325   1.084 -0.8373  0.6401  0.5156
 1234SOL     OW 4279   2.677   1.496   5.832  0.8192  0.0233 -0.2844
 1234SOL    HW1 4280   2.591   1.461   5.856  1.0716 -2.3254 -2.3630
 1234SOL    HW2 4281   2.730   1.485   5.910 -0.3383  0.0007  0.5241
 1235SOL     OW 4282   1.073   7.520   8.979 -0.1969 -1.0057 -0.3077
 1235SOL    HW1 4283   1.058   7.443   8.924 -0.2473 -1.0206 -0.2749
 1235SOL    HW2 4284   0.987   7.562   8.984 -0.2637 -1.1797  0.0199
 1236SOL     OW 4285   4.411   3.283   3.162 -0.3622  0.0613 -0.8474
 1236SOL    HW1 4286   4.326   3.307   3.199  0.9632  0.5100  2.2733
 1236SOL    HW2 4287   4.472   3.346   3.200  1.7542 -1.9292 -0.7062
 1237SOL     OW 4288   8.527   3.241   6.547  0.3933  0.6393 -0.0006
 1237SOL    HW1 4289   8.608   3.273   6.587  0.6213  1.7889 -1.2924
 1237SOL    HW2 4290   8.517   3.294   6.468 -1.5770  0.4460  0.0727
 1238SOL     OW 4291   5.774   3.214   4.364 -0.0386  0.3309 -0.0198
 1238SOL    HW1 4292   5.773   3.167   4.448 -1.0455  0.6883  0.1824
 1238SOL    HW2 4293   5.687   3.200   4.328  0.7420 -0.7547 -1.5635
 1239SOL     OW 4294   4.174   4.011   0.451 -0.0942 -0.8914 -0.5970
 1239SOL    HW1 4295   4.231   3.984   0.379 -1.8961 -2.3942 -1.5690
 1239SOL    HW2 4296   4.086   3.987   0.421 -1.1250  0.3636  1.2642
 1240SOL     OW 4297   0.913   0.967   1.123  0.0438  0.1322  0.8215
 1240SOL    HW1 4298   0.924   0.881   1.082  1.7602  0.0875  1.2752
 1240SOL    HW2 4299   0.973   0.965   1.198 -0.7400  1.3244  1.5128
 1241SOL     OW 4300   3.094   7.978   6.078 -0.1857 -0.1255 -0.2817
 1241SOL    HW1 4301   3.108   7.910   6.144  1.0354  1.0764  0.7529
 1241SOL    HW2 4302   3.036   7.937   6.014  0.7936 -2.2703  0.0990
 1242SOL     OW 4303   9.682   4.955   3.712 -0.2513 -0.0011 -0.2475
 1242SOL    HW1 4304   9.614   4.894   3.684 -0.8320  1.2687 -1.7287
 1242SOL    HW2 4305   9.651   5.041   3.685  1.2504  0.8004  0.4114
 1243SOL     OW 4306   5.193   6.986   5.154 -0.2550 -0.8131  0.0272
 1243SOL    HW1 4307   5.136   6.909   5.143 -0.7259 -0.4490 -0.0822
 1243SOL    HW2 4308   5.149   7.056   5.107  0.5642 -0.6564 -0.5177
 1244SOL     OW 4309   8.352   7.117   9.280  0.2307  0.1951 -0.0376
 1244SOL    HW1 4310   8.378   7.154   9.195  0.3975  0.1198 -0.0176
 1244SOL    HW2 4311   8.317   7.192   9.328  1.9412  0.6445  0.5759
 1245SOL     OW 4312   1.581   2.212   8.049 -0.3702  0.2010 -0.2956
 1245SOL    HW1 4313   1.533   2.217   8.132  0.2938  0.0583  0.1041
 1245SOL    HW2 4314   1.514   2.224   7.982 -0.7031  1.9795  0.2920
 1246SOL     OW 4315   4.500   8.529   9.495 -0.1115  0.0525 -0.2490
 1246SOL    HW1 4316   4.474   8.610   9.540 -1.2111  0.2675 -1.2334
 1246SOL    HW2 4317   4.418   8.495   9.457 -0.2220 -2.8516  2.1597
 1247SOL     OW 4318   4.522   3.383   6.744  0.2275  0.1782  0.0174
 1247SOL    HW1 4319   4.540   3.474   6.767  1.6354  0.1905 -1.0049
 1247SOL    HW2 4320   4.462   3.389   6.669 -2.8425  0.1572  2.2951
 1248SOL     OW 4321   6.527   5.880   0.376 -0.5386 -0.3781  0.0071
 1248SOL    HW1 4322   6.459   5.854   0.438 -0.6280 -1.1620 -0.3968
 1248SOL    HW2 4323   6.565   5.960   0.412 -0.7069 -0.7258  0.9746
 1249SOL     OW 4324   6.445   0.283   7.069 -0.5609 -0.7283 -0.4140
 1249SOL    HW1 4325   6.357   0.252   7.046  0.4219 -3.2720 -1.0216
 1249SOL    HW2 4326   6.499   0.263   6.993  0.8601 -0.7145  0.5464
 1250SOL     OW 4327   0.405   8.716   5.068  0.5580 -0.2159 -0.1867
 1250SOL    HW1 4328   0.467   8.654   5.030  0.0710 -0.2363 -0.9820
 1250SOL    HW2 4329   0.328   8.663   5.089 -0.3021  0.2635 -1.9237
 1251SOL     OW 4330   7.308   3.259   3.909  0.4536  0.3649 -0.1432
 1251SOL    HW1 4331   7.228   3.312   3.908  0.5069  0.4459 -0.0840
 1251SOL    HW2 4332   7.376   3.318   3.876  0.6222  0.5044  0.4504
 1252SOL     OW 4333   2.888   0.562   9.115 -0.0002  0.0196  0.1218
 1252SOL    HW1 4334   2.925   0.519   9.038 -0.5668  2.5387 -1.6946
 1252SOL    HW2 4335   2.818   0.617   9.080 -1.2640  0.1654  2.6689
 1253SOL     OW 4336   4.846   4.491   3.557 -0.5867 -0.7847  0.6592
 1253SOL    HW1 4337   4.865   4.456   3.470  0.8641  1.4875 -0.0200
 1253SOL    HW2 4338   4.753   4.512   3.554 -0.5015 -0.5074 -0.4394
 1254SOL     OW 4339   5.612   8.012   2.299  0.1140 -0.4089  0.1578
 1254SOL    HW1 4340   5.692   8.057   2.326  0.8967 -0.3446 -2.0992
 1254SOL    HW2 4341   5.599   7.945   2.366  1.8900 -0.2206  0.7429
 1255SOL     OW 4342   3.654   6.021   4.532 -0.0564  0.3706  0.5497
 1255SOL    HW1 4343   3.647   6.059   4.619 -0.2578  0.0558  0.6756
 1255SOL    HW2 4344   3.579   6.057   4.484 -0.2865  0.0906  0.6899
 1256SOL     OW 4345   7.241   2.680   4.711  0.3464 -0.4824  0.0539
 1256SOL    HW1 4346   7.318   2.633   4.744  0.2630 -0.9150 -0.3639
 1256SOL    HW2 4347   7.203   2.621   4.646  0.8173  0.5954 -1.2206
 1257SOL     OW 4348   7.361   3.109   9.024 -0.1817 -0.3345  0.1277
 1257SOL    HW1 4349   7.304   3.173   9.066  1.4894  2.3094 -1.3693
 1257SOL    HW2 4350   7.401   3.061   9.097 -1.8138 -0.0211  1.2818
 1258SOL     OW 4351   2.286   9.617   5.679  0.7986  0.1819 -0.8709
 1258SOL    HW1 4352   2.371   9.583   5.708  1.2256  1.0440 -1.0708
 1258SOL    HW2 4353   2.231   9.614   5.757  1.3757  0.7477 -0.4384
 1259SOL     OW 4354   5.739   4.210   9.088  0.1026 -0.6124  0.9198
 1259SOL    HW1 4355   5.774   4.121   9.081  1.5280 -0.1003  1.1429
 1259SOL    HW2 4356   5.816   4.267   9.076 -0.7844  0.5930  0.7407
 1260SOL     OW 4357   0.568   0.953   6.369 -0.3826 -0.3554  0.3101
 1260SOL    HW1 4358   0.595   1.019   6.304  0.6961  0.3310  1.4190
 1260SOL    HW2 4359   0.483   0.923   6.338 -0.1806  0.4050 -1.0889
 1261SOL     OW 4360   7.120   2.884   3.483 -0.5397  0.2456 -0.7750
 1261SOL    HW1 4361   7.205   2.868   3.523 -1.1960 -0.9060  0.2376
 1261SOL    HW2 4362   7.120   2.830   3.404  0.5211  2.0448 -2.0756
 1262SOL     OW 4363   3.861   9.446   8.084 -0.6660 -0.2211 -0.6864
 1262SOL    HW1 4364   3.855   9.534   8.047  0.4577  0.3571  0.4275
 1262SOL    HW2 4365   3.825   9.389   8.016  0.6946  0.8531 -2.3920
 1263SOL     OW 4366   5.371   9.714   5.776 -0.2948 -0.3658  0.1171
 1263SOL    HW1 4367   5.297   9.769   5.800 -0.6714 -0.9455  0.2800
 1263SOL    HW2 4368   5.444   9.748   5.829 -0.7878 -0.7407  1.0573
 1264SOL     OW 4369   0.617   1.997   7.838  0.3147  0.2665 -0.0078
 1264SOL    HW1 4370   0.629   1.925   7.900  0.8290 -0.8764 -1.3867
 1264SOL    HW2 4371   0.524   2.018   7.844  0.0142 -0.9838 -0.0675
 1265SOL     OW 4372   9.283   9.295   8.022 -0.1204 -0.2081 -0.5113
 1265SOL    HW1 4373   9.237   9.345   8.090 -0.2107 -1.1255  0.1166
 1265SOL    HW2 4374   9.371   9.285   8.056 -0.3001 -1.0994 -0.2946
 1266SOL     OW 4375   2.776   4.568   3.097  0.0199  0.0344  0.3685
 1266SOL    HW1 4376   2.690   4.529   3.084 -0.0114  0.4149 -0.6293
 1266SOL    HW2 4377   2.823   4.551   3.016  0.3186  1.2634  0.2547
 1267SOL     OW 4378   2.823   1.455   2.316 -0.0638  0.0657 -1.1247
 1267SOL    HW1 4379   2.819   1.539   2.272  1.3664 -0.2301 -1.8570
 1267SOL    HW2 4380   2.805   1.390   2.248 -0.6174 -0.2703 -0.6783
 1268SOL     OW 4381   9.774   3.584   1.650 -0.0583  0.7449 -0.4839
 1268SOL    HW1 4382   9.764   3.679   1.650 -0.1683  0.7423 -1.3054
 1268SOL    HW2 4383   9.684   3.551   1.658 -0.2430  0.7250 -2.2233
 1269SOL     OW 4384   7.678   1.452   1.605 -0.0912 -0.2629 -0.1528
 1269SOL    HW1 4385   7.638   1.461   1.518 -0.0424  0.5486 -0.1013
 1269SOL    HW2 4386   7.769   1.426   1.586  0.3563  1.3838 -0.4335
 1270SOL     OW 4387   9.850   4.528   7.000 -0.9559 -0.0056  0.1555
 1270SOL    HW1 4388   9.917   4.577   6.953 -0.1020 -1.1161  0.1885
 1270SOL    HW2 4389   9.849   4.442   6.958 -1.5793 -0.3629  0.8772
 1271SOL     OW 4390   2.944   3.508   9.836  0.2901  0.4479 -0.1181
 1271SOL    HW1 4391   2.851   3.503   9.814  0.2884 -0.8205  0.1116
 1271SOL    HW2 4392   2.989   3.511   9.752  0.1193 -0.9286 -0.2806
 1272SOL     OW 4393   5.792   3.078   6.849 -0.4030 -0.5527  0.2971
 1272SOL    HW1 4394   5.767   3.115   6.764  0.2906 -1.1106 -0.1583
 1272SOL    HW2 4395   5.887   3.086   6.851 -0.4725  0.2779  1.4218
 1273SOL     OW 4396   0.935   5.795   6.243  0.3715 -0.0139  0.1183
 1273SOL    HW1 4397   1.004   5.789   6.177 -1.2243 -0.4635 -1.5898
 1273SOL    HW2 4398   0.957   5.726   6.307  0.8925 -0.9023 -0.9849
 1274SOL     OW 4399   0.786   5.100   8.397 -0.1745 -0.0204  0.6318
 1274SOL    HW1 4400   0.846   5.106   8.322 -0.7459  0.2454  0.1823
 1274SOL    HW2 4401   0.843   5.090   8.473  0.5620  2.2014  0.4604
 1275SOL     OW 4402   4.269   4.065   4.002 -0.1954 -0.2742  0.2628
 1275SOL    HW1 4403   4.360   4.093   3.994 -0.3122  0.1197  0.2974
 1275SOL    HW2 4404   4.270   3.972   3.979 -0.0174  0.0730 -1.2026
 1276SOL     OW 4405   2.543   9.769   5.362 -0.5823 -0.3692 -0.1072
 1276SOL    HW1 4406   2.625   9.789   5.406 -1.0863  0.3625  0.5438
 1276SOL    HW2 4407   2.539   9.674   5.358  0.2177 -0.4110 -0.0088
 1277SOL     OW 4408   1.310   6.644   0.470 -0.0259 -0.3281  0.1166
 1277SOL    HW1 4409   1.307   6.708   0.399  0.3100  0.4542  0.7979
 1277SOL    HW2 4410   1.371   6.577   0.439  1.0548  0.6137  0.1508
 1278SOL     OW 4411   5.005   3.962   0.180  0.6354 -0.1021  0.2785
 1278SOL    HW1 4412   4.929   4.007   0.216  0.6113  1.8598 -1.9898
 1278SOL    HW2 4413   5.077   3.985   0.239 -0.0434  0.1171  1.0358
 1279SOL     OW 4414   3.191   5.900   7.381  0.0095 -0.1972 -0.0662
 1279SOL    HW1 4415   3.256   5.859   7.439  0.4988 -0.2938 -0.6777
 1279SOL    HW2 4416   3.136   5.827   7.352 -1.3994  0.0898  1.7065
 1280SOL     OW 4417   3.974   9.635   1.033  0.4028  0.2828 -0.0016
 1280SOL    HW1 4418   4.026   9.560   1.003  1.5057 -0.2295  2.9103
 1280SOL    HW2 4419   3.938   9.607   1.117 -1.0660  2.2394  0.0939
 1281SOL     OW 4420   5.974   9.599   0.478 -0.3153 -0.3848  0.5566
 1281SOL    HW1 4421   6.066   9.606   0.453 -0.3974 -1.3698 -0.0937
 1281SOL    HW2 4422   5.926   9.622   0.399 -0.5793 -3.6033 -0.3845
 1282SOL     OW 4423   8.654   2.169   5.510  0.0802 -0.2019  0.2784
 1282SOL    HW1 4424   8.739   2.195   5.545  0.6275  0.2401 -1.2943
 1282SOL    HW2 4425   8.674   2.101   5.446 -0.4211  1.6111 -1.9481
 1283SOL     OW 4426   8.759   6.304   4.707  0.5522  0.1021 -0.3085
 1283SOL    HW1 4427   8.820   6.376   4.720 -0.0623  0.4280  0.8881
 1283SOL    HW2 4428   8.699   6.335   4.639  0.3087  0.7034  0.1783
 1284SOL     OW 4429   0.893   3.457   1.413  0.3562 -0.0657  0.6159
 1284SOL    HW1 4430   0.839   3.408   1.476  1.2126 -2.3360 -0.3239
 1284SOL    HW2 4431   0.833   3.522   1.376 -1.0742 -0.9313  1.3319
 1285SOL     OW 4432   5.182   4.341   2.736  0.1237  0.3082 -0.0361
 1285SOL    HW1 4433   5.087   4.339   2.740  0.0653  1.5326 -0.2790
 1285SOL    HW2 4434   5.203   4.316   2.647 -0.0878  1.7580 -0.5260
 1286SOL     OW 4435   8.814   3.954   2.468  0.1218 -0.6114 -0.0113
 1286SOL    HW1 4436   8.721   3.969   2.450 -1.0534 -1.7727  3.9449
 1286SOL    HW2 4437   8.819   3.863   2.497  2.5674 -0.6295 -0.2736
 1287SOL     OW 4438   4.795   3.579   6.871 -0.0268 -0.2610  0.4844
 1287SOL    HW1 4439   4.789   3.669   6.838 -0.6026  0.1982  1.7944
 1287SOL    HW2 4440   4.859   3.537   6.813  1.4709  1.4307  0.8308
 1288SOL     OW 4441   4.403   2.700   0.807  0.4725 -0.3528  0.7113
 1288SOL    HW1 4442   4.452   2.726   0.885  2.1810 -0.3550 -0.3112
 1288SOL    HW2 4443   4.314   2.729   0.824  1.4949  2.8457  1.2204
 1289SOL     OW 4444   7.331   4.589   2.916 -0.4185 -0.0033  0.0931
 1289SOL    HW1 4445   7.248   4.559   2.880 -1.0947 -0.2607  1.7654
 1289SOL    HW2 4446   7.315   4.598   3.010  0.4118  3.3934  0.0482
 1290SOL     OW 4447   3.295   6.140   0.599  0.0702  0.0218 -0.1771
 1290SOL    HW1 4448   3.220   6.093   0.562 -0.0947  0.8462 -0.8937
 1290SOL    HW2 4449   3.358   6.145   0.528  1.8745 -2.7499  1.0371
 1291SOL     OW 4450   6.300   4.176   2.017 -0.0610 -0.0506  0.2726
 1291SOL    HW1 4451   6.314   4.168   1.923 -1.6102  0.1143  0.0088
 1291SOL    HW2 4452   6.388   4.173   2.055  0.5283 -0.9536 -1.1063
 1292SOL     OW 4453   0.116   7.305   9.285  0.5170 -0.2743  0.3313
 1292SOL    HW1 4454   0.035   7.354   9.302  0.4031 -0.0608 -0.7144
 1292SOL    HW2 4455   0.086   7.220   9.254  0.7172 -0.9479  1.9087
 1293SOL     OW 4456   4.426   7.454   3.637 -0.4888 -0.2889  0.0200
 1293SOL    HW1 4457   4.473   7.432   3.717 -0.7750  0.6780  0.4593
 1293SOL    HW2 4458   4.495   7.472   3.573 -0.1856  1.9954  0.8934
 1294SOL     OW 4459   3.818   2.207   2.391 -0.5399 -0.7219 -0.2671
 1294SOL    HW1 4460   3.727   2.229   2.411 -0.9891 -2.1356 -0.7017
 1294SOL    HW2 4461   3.836   2.253   2.309  0.0320  1.7508  1.1259
 1295SOL     OW 4462   5.202   2.132   8.133 -0.5712  0.2296 -0.6872
 1295SOL    HW1 4463   5.284   2.084   8.142 -0.9904 -0.4795 -0.6087
 1295SOL    HW2 4464   5.224   2.222   8.158  0.5273  0.3766 -2.0697
 1296SOL     OW 4465   5.333   9.261   9.946  0.2122  0.0780  0.2942
 1296SOL    HW1 4466   5.418   9.240   9.907 -0.4974 -0.5075 -1.0209
 1296SOL    HW2 4467   5.276   9.190   9.917 -0.3725 -0.4306  2.5139
 1297SOL     OW 4468   0.116   7.121   1.994 -0.3415  0.6493  0.1394
 1297SOL    HW1 4469   0.180   7.192   2.005  1.8609 -1.2925  0.8632
 1297SOL    HW2 4470   0.150   7.070   1.921 -0.6035 -0.8455  1.0150
 1298SOL     OW 4471   6.284   4.782   6.360  0.3089 -0.0456  0.1584
 1298SOL    HW1 4472   6.351   4.741   6.306  0.6564  2.5612 -1.5804
 1298SOL    HW2 4473   6.211   4.720   6.359  1.1576 -1.0867 -1.3921
 1299SOL     OW 4474   2.453   5.470   0.319 -0.3097  0.0351 -0.2731
 1299SOL    HW1 4475   2.535   5.494   0.362  1.1435 -0.5194 -2.5304
 1299SOL    HW2 4476   2.463   5.377   0.299 -1.9010 -0.2652  0.2002
 1300SOL     OW 4477   6.929   1.143   7.406 -0.0741  0.0451 -0.1648
 1300SOL    HW1 4478   6.866   1.152   7.335 -0.2617 -1.3429 -0.2003
 1300SOL    HW2 4479   6.886   1.085   7.469  0.5048  0.4288  0.6021
 1301SOL     OW 4480   6.412   2.339   2.540 -0.0844 -0.2724  0.5426
 1301SOL    HW1 4481   6.452   2.364   2.458 -1.5731 -0.2057 -0.1984
 1301SOL    HW2 4482   6.328   2.299   2.515 -0.4484 -0.4963  2.0023
 1302SOL     OW 4483   5.367   1.177   7.284 -0.1827  0.3072  0.1325
 1302SOL    HW1 4484   5.412   1.109   7.233 -0.1150 -0.4114  1.1127
 1302SOL    HW2 4485   5.316   1.226   7.220 -0.4101 -0.8190 -0.5753
 1303SOL     OW 4486   9.234   3.269   8.717  0.2029 -0.6478 -0.3654
 1303SOL    HW1 4487   9.252   3.351   8.763 -1.5513 -1.2387  1.4946
 1303SOL    HW2 4488   9.171   3.293   8.649  0.3965 -0.3243 -0.4363
 1304SOL     OW 4489   1.444   4.354   9.511 -0.2267 -0.0497 -0.5856
 1304SOL    HW1 4490   1.354   4.338   9.541  0.2153 -2.6508 -0.4220
 1304SOL    HW2 4491   1.484   4.267   9.508  2.6012  1.1265  0.2539
 1305SOL     OW 4492   5.598   8.624   3.484 -0.1449 -0.1005 -0.3414
 1305SOL    HW1 4493   5.663   8.601   3.418  0.4196  0.9398 -0.1646
 1305SOL    HW2 4494   5.514   8.598   3.445  0.3934 -1.8781 -0.3686
 1306SOL     OW 4495   2.866   1.424   1.101  0.0874  0.0342  0.1343
 1306SOL    HW1 4496   2.848   1.444   1.009 -3.3732  0.8386  0.8388
 1306SOL    HW2 4497   2.933   1.488   1.127  0.6320  0.2404 -1.6123
 1307SOL     OW 4498   7.236   4.863   5.746  0.1248  0.3425  0.2957
 1307SOL    HW1 4499   7.289   4.786   5.725  2.3066  1.4253  1.4907
 1307SOL    HW2 4500   7.264   4.887   5.834  1.4027  3.9093 -0.9135
 1308SOL     OW 4501   4.492   7.877   5.742 -0.2353  0.1220 -0.4594
 1308SOL    HW1 4502   4.508   7.827   5.823 -2.6082  0.4096  0.2826
 1308SOL    HW2 4503   4.574   7.922   5.725  0.2132  0.4750  2.1338
 1309SOL     OW 4504   5.294   2.382   3.758 -0.2859 -0.0440  0.0731
 1309SOL    HW1 4505   5.298   2.286   3.760 -0.2624 -0.1567 -2.4398
 1309SOL    HW2 4506   5.366   2.408   3.701 -1.0982  1.3791 -0.3402
 1310SOL     OW 4507   8.241   1.820   8.888 -0.7226 -0.7261  0.0508
 1310SOL    HW1 4508   8.215   1.797   8.977 -0.5632 -1.5149 -0.1015
 1310SOL    HW2 4509   8.160   1.849   8.846 -1.0191 -1.4103  0.1295
 1311SOL     OW 4510   0.624   5.793   1.927  0.1014 -0.1786  0.5327
 1311SOL    HW1 4511   0.561   5.810   1.858  0.8719  0.7870  0.0446
 1311SOL    HW2 4512   0.698   5.751   1.883  0.3513 -0.1067  0.8800
 1312SOL     OW 4513   9.826   0.556   9.433  0.0747  0.9755  0.5600
 1312SOL    HW1 4514   9.899   0.585   9.488  1.4352  1.6208 -1.4699
 1312SOL    HW2 4515   9.848   0.587   9.345 -3.0685  1.9538 -0.0255
 1313SOL     OW 4516   0.885   9.220   2.023 -0.4198 -0.4871 -0.3018
 1313SOL    HW1 4517   0.841   9.256   2.100 -0.1941 -0.1468 -0.3318
 1313SOL    HW2 4518   0.886   9.291   1.960 -2.0250 -1.2380 -1.2297
 1314SOL     OW 4519   1.165   9.392   1.844  0.2682  0.2550 -0.3346
 1314SOL    HW1 4520   1.083   9.432   1.875  0.9696  1.9846 -0.6278
 1314SOL    HW2 4521   1.160   9.398   1.749  0.2821 -0.6084 -0.3945
 1315SOL     OW 4522   3.625   7.520   3.567 -0.2260  0.3154  0.3907
 1315SOL    HW1 4523   3.598   7.440   3.522 -0.5796  1.0268 -0.6903
 1315SOL    HW2 4524   3.694   7.557   3.512 -0.1789  0.8474  0.7936
 1316SOL     OW 4525   1.760   2.631   7.682  0.4086  0.0395 -0.3803
 1316SOL    HW1 4526   1.729   2.695   7.618 -0.9256  1.1227  1.2508
 1316SOL    HW2 4527   1.698   2.559   7.675  0.3377  0.1015 -0.3932
 1317SOL     OW 4528   6.831   3.088   8.947 -0.2176  0.0530  0.0228
 1317SOL    HW1 4529   6.771   3.028   8.901  1.1163 -0.5681 -0.9808
 1317SOL    HW2 4530   6.821   3.065   9.039  0.1273 -1.6371 -0.3201
 1318SOL     OW 4531   6.240   3.158   3.013 -0.0063  0.2904  0.5365
 1318SOL    HW1 4532   6.258   3.079   3.065  0.7259 -0.2919 -0.5610
 1318SOL    HW2 4533   6.252   3.130   2.922 -0.6509  1.4427  0.0725
 1319SOL     OW 4534   3.651   0.316   2.852 -0.1546  0.8070 -0.1299
 1319SOL    HW1 4535   3.679   0.407   2.849 -0.1970  0.8283  0.1176
 1319SOL    HW2 4536   3.685   0.278   2.770 -0.5215  1.1525 -0.4477
 1320SOL     OW 4537   1.091   2.702   3.267 -0.1940 -0.3510 -0.2596
 1320SOL    HW1 4538   1.116   2.699   3.175 -0.4180 -1.6279 -0.3031
 1320SOL    HW2 4539   1.093   2.795   3.290 -0.0132 -0.0292 -1.5115
 1321SOL     OW 4540   3.905   7.284   7.529  0.1239  0.0969  0.1013
 1321SOL    HW1 4541   3.972   7.231   7.572 -0.9786 -0.9143  0.6443
 1321SOL    HW2 4542   3.861   7.330   7.600 -1.9544 -1.8678  0.2202
 1322SOL     OW 4543   1.950   3.827   9.250  0.3354 -0.3931 -0.0510
 1322SOL    HW1 4544   1.870   3.798   9.207  0.3306 -0.6220  0.1123
 1322SOL    HW2 4545   2.017   3.822   9.181  0.1388  0.1453 -0.2826
 1323SOL     OW 4546   6.092   3.555   4.741 -0.4761  0.3662 -0.4851
 1323SOL    HW1 4547   6.037   3.627   4.774 -0.3043  0.4048 -0.2798
 1323SOL    HW2 4548   6.167   3.554   4.800 -1.2517 -1.0430  0.5291
 1324SOL     OW 4549   8.623   9.032   6.749 -0.0681 -0.3977 -0.0118
 1324SOL    HW1 4550   8.619   8.954   6.804  0.2881 -0.1979  0.3031
 1324SOL    HW2 4551   8.701   9.020   6.695 -0.5191 -0.6795 -0.6125
 1325SOL     OW 4552   8.770   1.464   9.531 -0.2487  0.4177  0.2700
 1325SOL    HW1 4553   8.738   1.376   9.512 -0.5914  0.1528  1.9441
 1325SOL    HW2 4554   8.838   1.479   9.465 -1.1493 -0.5201 -0.9400
 1326SOL     OW 4555   2.340   9.921   7.903  0.0550 -0.0918  0.4116
 1326SOL    HW1 4556   2.245   9.934   7.910 -0.1172 -1.9514  2.6015
 1326SOL    HW2 4557   2.374   9.949   7.988  1.5079  0.5498 -0.3434
 1327SOL     OW 4558   6.142   9.653   1.517  0.1680  0.2195  0.6551
 1327SOL    HW1 4559   6.170   9.682   1.430  0.7388 -0.5875  0.5492
 1327SOL    HW2 4560   6.144   9.732   1.571  1.3006  0.4618  0.2936
 1328SOL     OW 4561   6.109   0.938   3.768 -0.0741 -0.0912  0.0097
 1328SOL    HW1 4562   6.021   0.977   3.768 -0.1290 -0.0911 -1.8468
 1328SOL    HW2 4563   6.167   1.010   3.742  0.0852 -0.6926 -1.4172
 1329SOL     OW 4564   7.288   0.509   7.014  0.4640 -0.0842  0.1020
 1329SOL    HW1 4565   7.326   0.521   7.101 -0.5972 -2.2461  0.9241
 1329SOL    HW2 4566   7.358   0.468   6.962  0.5098 -0.4665  0.4666
 1330SOL     OW 4567   9.840   1.142   9.408  0.2597  0.1332 -0.1782
 1330SOL    HW1 4568   9.829   1.047   9.405 -0.6655  0.2271 -0.1713
 1330SOL    HW2 4569   9.835   1.165   9.500 -2.3458  0.4509 -0.3140
 1331SOL     OW 4570   0.151   6.355   8.202  0.3303  0.0889  0.0815
 1331SOL    HW1 4571   0.240   6.389   8.200  0.9003 -1.2243  1.4863
 1331SOL    HW2 4572   0.100   6.419   8.152  1.7439  1.7765  0.6989
 1332SOL     OW 4573   5.939   0.700   7.685 -0.3875 -0.0542  0.3038
 1332SOL    HW1 4574   5.865   0.752   7.655 -0.5094 -0.5912 -0.3464
 1332SOL    HW2 4575   5.901   0.614   7.705 -0.2812  0.2205  1.8286
 1333SOL     OW 4576   6.236   9.615   0.975  0.0032 -0.0951 -0.0264
 1333SOL    HW1 4577   6.309   9.674   0.959  1.3779 -1.1904  1.8494
 1333SOL    HW2 4578   6.158   9.668   0.960  1.1796  1.7555  0.1962
 1334SOL     OW 4579   2.095   8.846   6.950  1.0921  0.3572  0.4523
 1334SOL    HW1 4580   2.096   8.757   6.987  2.4831  0.5908  1.0223
 1334SOL    HW2 4581   2.009   8.881   6.976 -0.7515 -1.7374 -2.1649
 1335SOL     OW 4582   0.400   8.641   2.520 -0.2651 -0.3162  0.4958
 1335SOL    HW1 4583   0.473   8.580   2.530 -0.1416 -0.0376  1.3821
 1335SOL    HW2 4584   0.324   8.593   2.553 -0.3029 -0.2631  0.4861
 1336SOL     OW 4585   2.222   2.265   6.186 -0.0594  0.2350  0.1390
 1336SOL    HW1 4586   2.266   2.318   6.119  0.0706  0.0300  0.0609
 1336SOL    HW2 4587   2.141   2.311   6.204 -0.3031  0.0571 -0.4843
 1337SOL     OW 4588   9.343   9.065   4.437  0.3704 -0.2054  0.1633
 1337SOL    HW1 4589   9.338   9.147   4.388  0.0227  0.8323  1.8578
 1337SOL    HW2 4590   9.392   9.006   4.380  0.5035  1.1294 -1.1590
 1338SOL     OW 4591   1.050   3.183   5.257 -0.0468  0.2430 -0.5511
 1338SOL    HW1 4592   1.032   3.268   5.299  0.8636  0.8768 -1.3881
 1338SOL    HW2 4593   1.081   3.128   5.329 -2.4086  0.0038  0.3660
 1339SOL     OW 4594   8.083   6.597   8.694  0.0931 -0.2269  0.1967
 1339SOL    HW1 4595   8.174   6.587   8.722 -0.4162 -1.6593  1.4675
 1339SOL    HW2 4596   8.087   6.599   8.598  1.4516 -0.2967  0.2394
 1340SOL     OW 4597   2.061   0.250   2.561 -0.1216  0.5567 -0.5744
 1340SOL    HW1 4598   2.032   0.316   2.498 -2.6718 -0.0365 -0.1259
 1340SOL    HW2 4599   2.029   0.281   2.645  0.4476 -0.2295 -0.0511
 1341SOL     OW 4600   3.290   5.628   6.697  0.2800 -0.4409 -0.1264
 1341SOL    HW1 4601   3.297   5.694   6.766 -1.7730 -0.3917  0.1028
 1341SOL    HW2 4602   3.378   5.620   6.661  0.7082  1.9017  0.3008
 1342SOL     OW 4603   7.326   2.986   5.390  0.2874  0.3489 -0.0725
 1342SOL    HW1 4604   7.361   2.982   5.479  1.4535 -1.1491 -0.5395
 1342SOL    HW2 4605   7.255   2.922   5.389 -1.1558  1.8858  0.3110
 1343SOL     OW 4606   5.371   7.511   9.456  0.2583  0.0872  0.2931
 1343SOL    HW1 4607   5.323   7.429   9.471  0.4229  0.0159  0.4330
 1343SOL    HW2 4608   5.329   7.549   9.379 -1.4771  1.1181  1.6688
 1344SOL     OW 4609   1.322   1.132   6.515  0.4520 -0.0889 -0.7278
 1344SOL    HW1 4610   1.331   1.164   6.425 -2.6491 -0.3565 -1.2529
 1344SOL    HW2 4611   1.235   1.090   6.517  1.0088 -1.3521  2.0375
 1345SOL     OW 4612   7.533   9.627   5.975  0.0928 -0.3404 -0.3714
 1345SOL    HW1 4613   7.469   9.560   5.998  1.0460 -1.1937 -0.1376
 1345SOL    HW2 4614   7.610   9.605   6.027  0.8848  0.1329 -1.3239
 1346SOL     OW 4615   2.253   6.133   7.720  0.3959  0.2517 -0.4117
 1346SOL    HW1 4616   2.172   6.122   7.670  0.6550  0.1678 -0.8160
 1346SOL    HW2 4617   2.238   6.083   7.800 -0.2437  0.8489 -0.1391
 1347SOL     OW 4618   2.812   1.196   5.250 -0.5348  0.4102 -0.3668
 1347SOL    HW1 4619   2.820   1.111   5.207 -3.1097  0.2027 -0.5843
 1347SOL    HW2 4620   2.725   1.195   5.291  0.4023  1.9493  1.9033
 1348SOL     OW 4621   7.974   7.084   0.024  0.1359  0.4522 -0.1350
 1348SOL    HW1 4622   7.990   7.171   0.059 -0.7684  1.8127 -2.8657
 1348SOL    HW2 4623   8.022   7.081  -0.059  0.9864 -2.0652  0.3318
 1349SOL     OW 4624   8.004   3.836   0.608  0.2926  0.1710 -0.0139
 1349SOL    HW1 4625   8.055   3.755   0.613  0.2422  0.1560  0.3296
 1349SOL    HW2 4626   7.955   3.837   0.691  0.8494  0.9250  0.3119
 1350SOL     OW 4627   2.142   4.745   6.792 -0.1528  0.2385 -0.1061
 1350SOL    HW1 4628   2.194   4.719   6.867 -1.6058 -0.3571  0.7340
 1350SOL    HW2 4629   2.061   4.694   6.800 -0.8396  1.0729 -1.3994
 1351SOL     OW 4630   2.342   1.419   1.562  0.6754 -0.3953  0.1724
 1351SOL    HW1 4631   2.256   1.445   1.594  1.2006  0.2650  1.0939
 1351SOL    HW2 4632   2.324   1.350   1.498 -0.5404 -0.1529  0.2325
 1352SOL     OW 4633   5.940   8.712   1.353 -0.6468  0.0591  0.1129
 1352SOL    HW1 4634   5.930   8.776   1.282  0.0170  0.0264 -0.0134
 1352SOL    HW2 4635   5.850   8.696   1.382 -0.7278  2.3864  1.3700
 1353SOL     OW 4636   9.238   9.461   1.716  0.4668 -0.2078  0.4869
 1353SOL    HW1 4637   9.293   9.459   1.795  0.2211 -0.5252  0.6543
 1353SOL    HW2 4638   9.209   9.552   1.709  1.2434  0.0244  0.2357
 1354SOL     OW 4639   1.359   6.621   1.171 -0.4172  0.1867  0.3736
 1354SOL    HW1 4640   1.343   6.693   1.110 -0.3190  0.7263  0.9821
 1354SOL    HW2 4641   1.390   6.550   1.116 -0.9832  0.4479 -0.2992
 1355SOL     OW 4642   1.044   3.553   2.821  0.4652 -0.1745 -0.5921
 1355SOL    HW1 4643   0.951   3.545   2.844  0.9651 -0.1879  1.6739
 1355SOL    HW2 4644   1.047   3.627   2.760 -0.8669  1.1643  0.8414
 1356SOL     OW 4645   4.955   2.802   7.428  0.2046  0.4465  0.5240
 1356SOL    HW1 4646   5.047   2.821   7.443  0.2053 -0.8519  2.6485
 1356SOL    HW2 4647   4.909   2.880   7.458  0.6060  1.6131 -1.7288
 1357SOL     OW 4648   4.764   6.958   7.182  0.5896 -0.5852  0.0080
 1357SOL    HW1 4649   4.710   6.956   7.103  0.2108 -0.3846  0.2624
 1357SOL    HW2 4650   4.825   6.885   7.170  0.4859 -0.6068 -0.4331
 1358SOL     OW 4651   0.698   4.924   0.786 -0.1279 -0.1237 -0.2305
 1358SOL    HW1 4652   0.708   4.943   0.879 -2.5071 -2.0552  0.5242
 1358SOL    HW2 4653   0.745   4.842   0.773  0.8811  0.5482 -0.9534
 1359SOL     OW 4654   6.195   9.554   9.890 -0.1006  0.5010 -0.1769
 1359SOL    HW1 4655   6.166   9.528   9.978  0.9988 -1.1326 -0.2645
 1359SOL    HW2 4656   6.278   9.600   9.905  1.2428 -1.7110 -0.4654
 1360SOL     OW 4657   4.574   6.006   3.119 -0.3713 -0.6488 -0.2004
 1360SOL    HW1 4658   4.618   6.001   3.034 -0.4818 -0.7878 -0.2495
 1360SOL    HW2 4659   4.645   6.018   3.182 -0.3446  0.2081 -0.3828
 1361SOL     OW 4660   7.873   2.531   3.086 -0.2519  0.3884 -0.6216
 1361SOL    HW1 4661   7.790   2.518   3.130  0.9979 -1.3178  1.4226
 1361SOL    HW2 4662   7.927   2.579   3.149  0.9231 -0.2653 -1.0896
 1362SOL     OW 4663   3.710   4.612   9.607 -0.4049 -0.1940  0.4038
 1362SOL    HW1 4664   3.666   4.683   9.560 -1.3807 -0.5941  0.6699
 1362SOL    HW2 4665   3.652   4.536   9.595  0.5689 -0.9198  0.2057
 1363SOL     OW 4666   9.247   9.286   5.148  0.1527  0.2378 -0.2164
 1363SOL    HW1 4667   9.205   9.370   5.164 -0.0804  0.4937 -1.9381
 1363SOL    HW2 4668   9.311   9.304   5.078 -0.1152 -1.0612 -0.8363
 1364SOL     OW 4669   2.082   9.013   6.723 -0.2507 -0.2110 -0.3899
 1364SOL    HW1 4670   2.106   8.939   6.779 -0.1859  0.8270  1.0322
 1364SOL    HW2 4671   2.000   8.986   6.682  1.1632 -2.1638 -2.1203
 1365SOL     OW 4672   6.473   4.675   1.668 -0.1896 -0.7350  0.0573
 1365SOL    HW1 4673   6.486   4.672   1.763 -1.0590 -0.8267  0.1756
 1365SOL    HW2 4674   6.390   4.629   1.653  0.6015 -1.9476 -0.8803
 1366SOL     OW 4675   3.465   7.424   4.797  0.3706 -0.0173  0.1223
 1366SOL    HW1 4676   3.399   7.393   4.735  0.1254  1.4601 -0.3920
 1366SOL    HW2 4677   3.466   7.358   4.866 -1.3790 -0.2413 -0.0361
 1367SOL     OW 4678   8.021   7.663   2.758  0.0174  0.0998 -0.3437
 1367SOL    HW1 4679   8.063   7.599   2.814  0.5539 -0.5140 -1.4108
 1367SOL    HW2 4680   7.935   7.677   2.796  0.2708 -0.5102  0.4604
 1368SOL     OW 4681   8.510   3.523   4.147 -0.5191 -0.0251 -0.7878
 1368SOL    HW1 4682   8.453   3.599   4.154  1.5350  1.6131 -1.1621
 1368SOL    HW2 4683   8.540   3.524   4.056  0.1764 -0.8137 -0.5803
 1369SOL     OW 4684   5.881   5.639   7.620 -0.3880 -0.1595  0.3074
 1369SOL    HW1 4685   5.848   5.616   7.707 -2.1755 -0.8589 -0.5290
 1369SOL    HW2 4686   5.811   5.690   7.580  0.9649  1.3539 -0.2506
 1370SOL     OW 4687   5.595   1.686   8.454 -0.4100  0.3007  0.0161
 1370SOL    HW1 4688   5.650   1.640   8.391 -0.3509  1.4506 -0.8156
 1370SOL    HW2 4689   5.637   1.772   8.463 -0.0677 -0.0443  2.1131
 1371SOL     OW 4690   4.501   7.402   4.578  0.5496  0.0851  0.5929
 1371SOL    HW1 4691   4.409   7.409   4.601  0.4414  0.7840  0.0002
 1371SOL    HW2 4692   4.524   7.489   4.545  1.1036 -0.4073 -0.3813
 1372SOL     OW 4693   0.176   3.300   9.385  0.3600 -0.4086  0.5219
 1372SOL    HW1 4694   0.094   3.271   9.346  1.8473 -1.7930 -1.7834
 1372SOL    HW2 4695   0.173   3.266   9.475 -1.4431 -0.6440  0.4070
 1373SOL     OW 4696   5.853   8.234   6.081  0.6863 -0.5147  0.0095
 1373SOL    HW1 4697   5.899   8.317   6.093  0.5765 -0.5306  0.5258
 1373SOL    HW2 4698   5.771   8.244   6.129 -1.0225  0.4301 -2.8192
 1374SOL     OW 4699   5.753   4.278   9.880 -0.1826 -0.1160  0.5332
 1374SOL    HW1 4700   5.791   4.251   9.797  1.0294  1.5804  0.4832
 1374SOL    HW2 4701   5.718   4.197   9.918  0.7617 -1.2069 -0.8336
 1375SOL     OW 4702   5.885   1.931   0.800  0.0706 -0.5935 -0.2264
 1375SOL    HW1 4703   5.851   1.977   0.723  0.1567 -0.4803 -0.1974
 1375SOL    HW2 4704   5.973   1.905   0.776 -0.1210 -1.0990 -0.3877
 1376SOL     OW 4705   3.709   1.007   7.371  0.7100 -0.5503  0.2276
 1376SOL    HW1 4706   3.690   1.086   7.320  2.3902 -0.5505 -0.4450
 1376SOL    HW2 4707   3.801   1.014   7.394  0.8002 -2.1340  0.4844
 1377SOL     OW 4708   5.839   6.390   3.200 -0.5019 -0.3189  0.5292
 1377SOL    HW1 4709   5.754   6.363   3.234 -1.2595 -1.0552 -1.7691
 1377SOL    HW2 4710   5.903   6.343   3.253 -1.4424  0.7665  2.7498
 1378SOL     OW 4711   6.146   9.019   6.171 -0.2115  0.3048  0.1629
 1378SOL    HW1 4712   6.219   9.072   6.141  1.0904 -0.9592  0.9676
 1378SOL    HW2 4713   6.085   9.082   6.210  0.7961  1.3095  0.1632
 1379SOL     OW 4714   1.156   4.749   6.446 -0.3861 -0.7227 -0.5165
 1379SOL    HW1 4715   1.191   4.673   6.493  2.6750  0.7633 -0.1111
 1379SOL    HW2 4716   1.098   4.792   6.508  0.8998 -0.6865  0.7142
 1380SOL     OW 4717   8.789   9.760   8.630  0.0956  0.4560  0.2899
 1380SOL    HW1 4718   8.782   9.782   8.724  1.5585  0.0903  0.5020
 1380SOL    HW2 4719   8.724   9.817   8.588 -0.4258  0.7914  1.4988
 1381SOL     OW 4720   5.976   4.976   3.342  0.0796 -0.5141  0.2004
 1381SOL    HW1 4721   6.059   5.022   3.330 -0.6092  1.0949  1.3456
 1381SOL    HW2 4722   5.933   4.982   3.256  0.2600  0.4713  0.1689
 1382SOL     OW 4723   6.410   2.299   5.454 -0.3018  0.2022 -0.0466
 1382SOL    HW1 4724   6.355   2.377   5.447 -0.2449  0.2279 -0.1989
 1382SOL    HW2 4725   6.367   2.234   5.399  0.9396  0.8584 -1.8994
 1383SOL     OW 4726   5.542   3.329   8.870  0.1721 -0.2209 -0.0131
 1383SOL    HW1 4727   5.618   3.344   8.813  1.9293  0.2890  2.3207
 1383SOL    HW2 4728   5.579   3.321   8.958 -2.6421  2.1872  1.5540
 1384SOL     OW 4729   4.971   2.639   2.370  0.1952  0.5015  0.6045
 1384SOL    HW1 4730   4.952   2.712   2.430  0.1566  0.6372  0.4281
 1384SOL    HW2 4731   4.924   2.565   2.407  0.9033  0.3625  1.2454
 1385SOL     OW 4732   4.646   4.480   2.937  0.7001 -0.4824  0.5594
 1385SOL    HW1 4733   4.715   4.541   2.913  1.3298 -1.3516  0.1106
 1385SOL    HW2 4734   4.595   4.470   2.856 -0.7529  1.1335  1.2127
 1386SOL     OW 4735   8.226   0.612   3.712  1.2048  0.2720  0.6051
 1386SOL    HW1 4736   8.159   0.577   3.771  0.1562  0.5944 -0.3619
 1386SOL    HW2 4737   8.177   0.664   3.649  2.2054 -0.6266 -0.9710
 1387SOL     OW 4738   9.168   1.971   0.844 -0.1767 -0.4187 -0.3862
 1387SOL    HW1 4739   9.089   1.984   0.791 -0.1264  0.8668 -0.1719
 1387SOL    HW2 4740   9.240   1.978   0.781 -0.2121 -1.2757 -0.5295
 1388SOL     OW 4741   6.224   7.419   1.464  0.5981 -0.1552 -0.4997
 1388SOL    HW1 4742   6.282   7.416   1.387 -0.2573 -0.7843 -1.1333
 1388SOL    HW2 4743   6.168   7.342   1.454 -1.1709  1.0901 -0.5468
 1389SOL     OW 4744   2.276   4.146   4.450  0.1344 -0.2129 -0.2641
 1389SOL    HW1 4745   2.185   4.117   4.441  0.1865 -0.6753  0.7019
 1389SOL    HW2 4746   2.318   4.079   4.503  1.3021 -0.5125 -1.5213
 1390SOL     OW 4747   4.442   9.117   5.223 -0.3920 -0.2760  0.0995
 1390SOL    HW1 4748   4.457   9.094   5.314 -1.2190  2.0203  0.9031
 1390SOL    HW2 4749   4.480   9.046   5.173  1.7155 -0.7272  2.1971
 1391SOL     OW 4750   2.417   9.912   6.767 -0.1275  0.0380  0.2362
 1391SOL    HW1 4751   2.402   9.837   6.824 -1.2490  0.6579  0.7883
 1391SOL    HW2 4752   2.336   9.919   6.716 -0.1275  0.9981  0.3557
 1392SOL     OW 4753   3.442   6.215   1.622  0.3131  0.1263 -0.1531
 1392SOL    HW1 4754   3.356   6.179   1.644  0.5562  0.7871  2.2135
 1392SOL    HW2 4755   3.474   6.159   1.552 -1.8691 -0.3599 -0.8513
 1393SOL     OW 4756   7.232   3.157   8.643 -0.2886  0.1466 -0.4429
 1393SOL    HW1 4757   7.279   3.079   8.613 -1.1809 -0.2568 -0.8382
 1393SOL    HW2 4758   7.184   3.128   8.721 -1.9248 -0.1788 -1.5216
 1394SOL     OW 4759   4.890   1.397   1.669 -0.1442  0.3546  0.3677
 1394SOL    HW1 4760   4.852   1.374   1.584  1.7006 -2.1921  0.1133
 1394SOL    HW2 4761   4.929   1.484   1.655  0.7079 -0.2880 -1.6377
 1395SOL     OW 4762   2.249   9.508   9.473 -0.0370 -0.3138 -0.5184
 1395SOL    HW1 4763   2.154   9.505   9.483  0.1315 -0.7214  1.2268
 1395SOL    HW2 4764   2.269   9.435   9.414 -0.7707 -0.5416 -0.4996
 1396SOL     OW 4765   0.546   0.149   3.475  0.6196  0.2536  0.0499
 1396SOL    HW1 4766   0.594   0.107   3.403  1.6110  1.2739  0.0882
 1396SOL    HW2 4767   0.468   0.185   3.434 -0.3661 -1.7388  0.0485
 1397SOL     OW 4768   5.577   1.227   3.925  0.5161  0.5433 -0.5875
 1397SOL    HW1 4769   5.618   1.286   3.862  0.4453  0.0419 -1.1004
 1397SOL    HW2 4770   5.514   1.282   3.971  2.2578  1.5434  0.7553
 1398SOL     OW 4771   7.206   9.308   9.933 -0.3718  0.3052 -0.5190
 1398SOL    HW1 4772   7.196   9.379   9.870 -1.0818  0.0597 -0.6853
 1398SOL    HW2 4773   7.287   9.329   9.980 -0.3114  0.9551 -0.9067
 1399SOL     OW 4774   1.861   1.145   4.766  0.2000 -0.1241  0.3034
 1399SOL    HW1 4775   1.811   1.083   4.819  0.1945 -0.0772  0.3535
 1399SOL    HW2 4776   1.952   1.129   4.789  0.2929 -0.9970 -0.6352
 1400SOL     OW 4777   5.700   7.576   3.695  0.0472 -0.1129  0.0228
 1400SOL    HW1 4778   5.677   7.483   3.701 -0.5446 -0.1795 -2.2231
 1400SOL    HW2 4779   5.794   7.579   3.711 -0.3506 -0.6719  3.0061
 1401SOL     OW 4780   9.244   3.773   0.038  0.2075  0.6423  0.6273
 1401SOL    HW1 4781   9.321   3.807   0.085 -0.9575 -0.7517  3.8505
 1401SOL    HW2 4782   9.175   3.836   0.057 -0.0970  0.4742  0.0804
 1402SOL     OW 4783   1.909   7.360   9.035  0.1876 -0.9593  0.0174
 1402SOL    HW1 4784   1.925   7.329   8.946 -0.6272 -0.2280 -0.4117
 1402SOL    HW2 4785   1.919   7.455   9.029 -1.6374 -0.7088  0.2687
 1403SOL     OW 4786   7.952   2.731   3.294 -0.1872  0.3468 -0.3736
 1403SOL    HW1 4787   7.962   2.826   3.291  0.1437  0.5382  3.0250
 1403SOL    HW2 4788   7.886   2.716   3.362  0.5170 -1.8769 -0.0971
 1404SOL     OW 4789   5.617   1.991   6.563  0.1334  0.4494  0.6413
 1404SOL    HW1 4790   5.581   1.960   6.647  1.4565  1.5100  1.6598
 1404SOL    HW2 4791   5.593   2.084   6.560 -1.2078  0.0989 -0.9308
 1405SOL     OW 4792   9.442   4.691   4.156 -0.0426  0.1693 -0.2097
 1405SOL    HW1 4793   9.460   4.727   4.242 -0.4848  3.5489 -1.3891
 1405SOL    HW2 4794   9.526   4.696   4.109  0.1622 -1.5108 -0.0878
 1406SOL     OW 4795   8.768   3.287   6.656  0.6276  0.2041  0.4691
 1406SOL    HW1 4796   8.770   3.194   6.681  0.0561 -0.0955 -0.5302
 1406SOL    HW2 4797   8.831   3.294   6.584  1.4042  0.8113  1.1886
 1407SOL     OW 4798   8.413   7.722   0.416 -0.3106 -0.5256  0.1278
 1407SOL    HW1 4799   8.447   7.807   0.387  2.1437 -1.3096  0.4100
 1407SOL    HW2 4800   8.351   7.696   0.348 -0.6257  1.1908 -0.2820
 1408SOL     OW 4801   4.709   2.646   8.274 -0.0438  0.1826  0.0681
 1408SOL    HW1 4802   4.801   2.671   8.278 -0.6982  2.7253  0.8557
 1408SOL    HW2 4803   4.684   2.635   8.366 -0.7608  0.5277 -0.0829
 1409SOL     OW 4804   8.605   3.820   4.679 -0.5310  0.1586 -0.0662
 1409SOL    HW1 4805   8.619   3.867   4.762 -0.8484 -1.3996  0.9122
 1409SOL    HW2 4806   8.519   3.850   4.649 -0.3734  0.8051  0.1082
 1410SOL     OW 4807   2.936   4.609   5.320 -0.0692 -0.1683 -0.7717
 1410SOL    HW1 4808   2.927   4.668   5.395  1.3244  0.5904 -1.1583
 1410SOL    HW2 4809   2.910   4.524   5.354 -0.3654  0.3305  0.3163
 1411SOL     OW 4810   5.737   2.750   2.637 -0.2455 -0.3552  0.3610
 1411SOL    HW1 4811   5.817   2.792   2.669 -1.0258 -0.4421  2.5987
 1411SOL    HW2 4812   5.672   2.821   2.633  0.0020 -0.1997 -1.8484
 1412SOL     OW 4813   2.799   7.975   3.742  0.0380 -0.5836 -0.4244
 1412SOL    HW1 4814   2.756   7.902   3.785  1.5923 -1.6317 -0.5506
 1412SOL    HW2 4815   2.861   8.008   3.807 -0.1254  0.1341 -0.6301
 1413SOL     OW 4816   8.321   3.504   1.428 -0.2997  0.1789 -0.1444
 1413SOL    HW1 4817   8.230   3.535   1.424 -0.4238  0.0960  1.3533
 1413SOL    HW2 4818   8.338   3.469   1.341 -1.9412 -0.4202 -0.2727
 1414SOL     OW 4819   6.352   0.373   4.316 -0.0305 -0.4482  0.8668
 1414SOL    HW1 4820   6.404   0.447   4.284 -2.3317  0.5810 -0.7682
 1414SOL    HW2 4821   6.414   0.320   4.365  3.6497 -1.4033 -4.0016
 1415SOL     OW 4822   6.197   7.356   0.680 -0.3782 -0.0562  0.2697
 1415SOL    HW1 4823   6.245   7.307   0.747  0.3418  1.0231  0.5747
 1415SOL    HW2 4824   6.245   7.341   0.599  0.7010  1.2553  0.6263
 1416SOL     OW 4825   2.102   2.233   7.345  0.0659  0.4902 -0.4620
 1416SOL    HW1 4826   2.177   2.176   7.361 -1.1463 -0.8762  0.6486
 1416SOL    HW2 4827   2.140   2.320   7.335  1.7393 -0.0429  0.8066
 1417SOL     OW 4828   5.904   8.663   7.409  0.0469  0.2158 -0.3065
 1417SOL    HW1 4829   5.949   8.700   7.485  1.4412  1.8587 -1.8388
 1417SOL    HW2 4830   5.968   8.668   7.338 -1.5879 -0.1689 -1.8914
 1418SOL     OW 4831   0.865   2.378   9.009  0.4174 -0.1006  0.2143
 1418SOL    HW1 4832   0.787   2.428   9.035 -0.0919 -1.0874  0.6489
 1418SOL    HW2 4833   0.854   2.365   8.915  0.7770  0.9521  0.0073
 1419SOL     OW 4834   6.405   9.326   7.377 -0.3894 -0.5809  0.3713
 1419SOL    HW1 4835   6.488   9.293   7.411 -0.2141  0.6688  1.2083
 1419SOL    HW2 4836   6.342   9.257   7.398  0.4616 -1.6643 -0.5173
 1420SOL     OW 4837   1.708   9.422   5.710 -0.4789  0.4891 -0.1657
 1420SOL    HW1 4838   1.736   9.480   5.639  1.2788  0.1292  0.2011
 1420SOL    HW2 4839   1.643   9.474   5.758 -0.4726  1.3584 -1.0512
 1421SOL     OW 4840   8.575   6.874   5.494 -0.5819 -0.3941 -0.3957
 1421SOL    HW1 4841   8.528   6.957   5.495 -0.9464 -0.5119 -2.7001
 1421SOL    HW2 4842   8.570   6.843   5.584 -2.3300  1.0298  0.0643
 1422SOL     OW 4843   6.689   7.583   4.946  0.6886  0.3604  0.7449
 1422SOL    HW1 4844   6.782   7.590   4.965  0.3010  1.2312  2.4838
 1422SOL    HW2 4845   6.683   7.592   4.851  2.4934 -1.3053  0.4136
 1423SOL     OW 4846   2.647   5.189   7.093  0.4067  0.4307 -0.2362
 1423SOL    HW1 4847   2.708   5.262   7.082 -1.0501  1.6127 -0.6222
 1423SOL    HW2 4848   2.639   5.151   7.006  3.1542 -1.9345  0.3662
 1424SOL     OW 4849   2.910   7.281   7.506 -0.3804  0.4923 -0.3947
 1424SOL    HW1 4850   2.977   7.311   7.445  0.0534  1.5704  0.5766
 1424SOL    HW2 4851   2.959   7.232   7.572 -1.0922 -2.9101 -2.1342
 1425SOL     OW 4852   0.903   6.755   6.845  0.1911 -0.1685  0.3639
 1425SOL    HW1 4853   0.953   6.780   6.767 -0.1466  2.1108  0.8157
 1425SOL    HW2 4854   0.966   6.762   6.917  0.4372 -2.0270  0.3831
 1426SOL     OW 4855   0.071   9.340   3.317 -0.3556  0.0618  0.0023
 1426SOL    HW1 4856   0.108   9.271   3.372 -0.5253 -1.7918 -2.0560
 1426SOL    HW2 4857   0.147   9.384   3.279 -0.2335 -0.2749 -0.1497
 1427SOL     OW 4858   7.174   3.509   1.795  1.1499  0.2548  0.3348
 1427SOL    HW1 4859   7.136   3.568   1.730  0.7071  1.6877  1.8196
 1427SOL    HW2 4860   7.128   3.426   1.783  1.0451  0.4964 -1.1080
 1428SOL     OW 4861   0.881   1.519   3.374  0.0227  0.1077 -0.1398
 1428SOL    HW1 4862   0.823   1.443   3.368  0.1431  0.0413 -0.4876
 1428SOL    HW2 4863   0.878   1.558   3.286 -0.1977  0.6236  0.0935
 1429SOL     OW 4864   4.691   0.094   1.058  0.4477  0.0434  0.3169
 1429SOL    HW1 4865   4.641   0.144   1.123  0.4374 -0.4228  0.6780
 1429SOL    HW2 4866   4.627   0.036   1.017  0.4593  0.3211 -0.0994
 1430SOL     OW 4867   6.682   9.421   0.711 -0.0339  0.0871  0.1740
 1430SOL    HW1 4868   6.596   9.461   0.696  0.2420  0.9374  0.7948
 1430SOL    HW2 4869   6.662   9.343   0.764 -0.6627 -1.1349 -1.7733
 1431SOL     OW 4870   7.383   3.146   7.485  0.5948  0.4971  0.2139
 1431SOL    HW1 4871   7.377   3.218   7.548 -0.9673 -0.9346  1.8184
 1431SOL    HW2 4872   7.439   3.081   7.529  0.6850  0.0759 -0.5114
 1432SOL     OW 4873   9.307   4.648   2.910  0.4253  0.5932  0.1088
 1432SOL    HW1 4874   9.301   4.561   2.948  1.0973  0.2897 -0.4659
 1432SOL    HW2 4875   9.342   4.634   2.822 -3.1586  1.0322 -1.5763
 1433SOL     OW 4876   7.475   5.461   5.477  0.1784  0.5886  0.0499
 1433SOL    HW1 4877   7.541   5.415   5.425 -0.0616 -1.0374  1.1200
 1433SOL    HW2 4878   7.410   5.489   5.412  0.7189  0.0692 -0.7372
 1434SOL     OW 4879   4.037   6.955   2.604 -0.0962  0.1542 -0.3583
 1434SOL    HW1 4880   4.128   6.965   2.576 -0.0513  2.8916  0.4717
 1434SOL    HW2 4881   4.036   6.872   2.653  1.7263 -0.3464 -1.0866
 1435SOL     OW 4882   8.230   8.739   0.489 -0.0381  0.5155 -0.5573
 1435SOL    HW1 4883   8.293   8.786   0.543 -0.0213  0.8364 -0.8521
 1435SOL    HW2 4884   8.228   8.651   0.525  1.1196  0.2968 -1.0030
 1436SOL     OW 4885   1.337   4.200   7.346 -0.0333  0.3640  0.3155
 1436SOL    HW1 4886   1.347   4.270   7.411 -1.5655  0.9161 -0.0155
 1436SOL    HW2 4887   1.321   4.246   7.264  2.3455 -0.3051 -0.6049
 1437SOL     OW 4888   7.688   7.853   1.702 -0.2031  0.7275  0.0550
 1437SOL    HW1 4889   7.625   7.807   1.758  0.7399 -1.8466 -0.8363
 1437SOL    HW2 4890   7.664   7.827   1.613  2.4917 -1.0354 -0.2830
 1438SOL     OW 4891   9.103   5.027   7.198 -0.5321 -0.0025  0.1598
 1438SOL    HW1 4892   9.172   5.093   7.209 -0.1419 -0.5370  1.0308
 1438SOL    HW2 4893   9.021   5.077   7.202 -0.2333  0.4608  0.6685
 1439SOL     OW 4894   9.272   5.579   3.386  0.0925  0.4880 -0.4413
 1439SOL    HW1 4895   9.286   5.547   3.297 -0.7541 -1.8558  0.2059
 1439SOL    HW2 4896   9.352   5.555   3.433 -0.0121  0.4946 -0.2576
 1440SOL     OW 4897   2.826   9.289   3.681 -0.1802  0.1724  0.4436
 1440SOL    HW1 4898   2.819   9.294   3.776  0.3600 -0.6310  0.5360
 1440SOL    HW2 4899   2.825   9.380   3.651 -0.2800  0.4274  1.2187
 1441SOL     OW 4900   1.064   6.968   6.198 -0.2287  0.1767 -0.2946
 1441SOL    HW1 4901   1.035   7.056   6.222 -0.4472  0.5611 -1.8288
 1441SOL    HW2 4902   1.029   6.912   6.267 -3.8044  0.7572 -1.4041
 1442SOL     OW 4903   8.548   3.882   4.190  0.0462 -0.2859  0.4538
 1442SOL    HW1 4904   8.498   3.941   4.133  0.1514  1.1645  1.8112
 1442SOL    HW2 4905   8.597   3.827   4.129  1.4414  2.2894 -0.9473
 1443SOL     OW 4906   1.356   6.727   9.945  0.0969  0.0357  0.4076
 1443SOL    HW1 4907   1.423   6.681   9.894 -0.1274  0.4357 -0.2751
 1443SOL    HW2 4908   1.279   6.725   9.889  0.0109  0.9977  0.4743
 1444SOL     OW 4909   1.292   0.933   3.861  0.2804  0.3260 -0.3339
 1444SOL    HW1 4910   1.320   0.878   3.934 -0.9483 -1.6306 -1.2434
 1444SOL    HW2 4911   1.369   0.988   3.841  0.7512  0.6774  2.1419
 1445SOL     OW 4912   2.962   8.566   8.058 -0.0835  0.1645  0.1732
 1445SOL    HW1 4913   2.979   8.483   8.015 -3.2933 -1.0504  0.9814
 1445SOL    HW2 4914   2.919   8.620   7.991  0.7438  0.6801  0.0482
 1446SOL     OW 4915   1.882   9.938   8.165 -0.0529  0.3666  0.3440
 1446SOL    HW1 4916   1.872   9.861   8.221 -1.9451  0.0867 -0.3091
 1446SOL    HW2 4917   1.807   9.993   8.187  0.5703  1.4237 -0.1258
 1447SOL     OW 4918   6.789   5.606   2.865 -0.2098  0.5543  0.7769
 1447SOL    HW1 4919   6.762   5.681   2.918 -1.5281  1.1046 -0.5968
 1447SOL    HW2 4920   6.817   5.645   2.782 -2.2197 -0.5179 -0.4808
 1448SOL     OW 4921   2.787   6.486   1.944  0.1587 -0.0442  0.6086
 1448SOL    HW1 4922   2.767   6.421   2.012  1.1261 -0.6859  0.3036
 1448SOL    HW2 4923   2.701   6.512   1.910 -0.2605 -1.0824  0.8134
 1449SOL     OW 4924   6.537   3.044   6.873 -0.0620 -0.3501 -0.0118
 1449SOL    HW1 4925   6.606   3.099   6.910  0.5994 -0.9871 -0.2812
 1449SOL    HW2 4926   6.512   3.089   6.792  0.3579 -0.3581 -0.1466
 1450SOL     OW 4927   3.624   6.645   1.633  0.1884  0.8278  0.6570
 1450SOL    HW1 4928   3.571   6.725   1.627  0.7328  1.2558  1.4369
 1450SOL    HW2 4929   3.643   6.636   1.726  0.7668  0.1965  0.4816
 1451SOL     OW 4930   4.283   8.688   6.984 -0.0666  0.5932  0.1988
 1451SOL    HW1 4931   4.263   8.669   6.893 -1.1628  1.3966  0.2520
 1451SOL    HW2 4932   4.377   8.677   6.991 -0.0893 -0.3726 -0.8087
 1452SOL     OW 4933   4.926   8.330   4.248 -0.5109  0.0229 -0.1989
 1452SOL    HW1 4934   4.885   8.315   4.333 -0.8960 -0.7657 -0.5098
 1452SOL    HW2 4935   4.973   8.248   4.230 -0.2092  0.2853 -0.6247
 1453SOL     OW 4936   9.084   0.099   5.476  0.2931 -0.0973 -0.1116
 1453SOL    HW1 4937   9.120   0.186   5.492 -0.6218  0.1912  0.4829
 1453SOL    HW2 4938   9.160   0.044   5.461  1.0336  0.3915  1.5417
 1454SOL     OW 4939   0.824   6.592   4.421 -0.6048 -0.5160  0.3813
 1454SOL    HW1 4940   0.840   6.549   4.505  0.5544  0.2203  0.5705
 1454SOL    HW2 4941   0.812   6.684   4.443  1.1816 -0.0613 -0.3406
 1455SOL     OW 4942   5.826   9.661   9.387  0.7237 -0.2764  0.1922
 1455SOL    HW1 4943   5.775   9.658   9.306  0.5855  1.3100  0.1917
 1455SOL    HW2 4944   5.877   9.742   9.381  1.3569 -0.5641  1.3140
 1456SOL     OW 4945   5.428   2.187   6.438 -0.5557  0.2141 -0.3901
 1456SOL    HW1 4946   5.384   2.102   6.448 -0.1764 -0.1333 -1.5379
 1456SOL    HW2 4947   5.362   2.243   6.398 -0.4848  0.1655 -0.5765
 1457SOL     OW 4948   7.306   5.513   5.298  0.1105  0.0247  0.5885
 1457SOL    HW1 4949   7.224   5.476   5.330 -0.9795  1.9773  0.2343
 1457SOL    HW2 4950   7.308   5.492   5.205 -1.4306  2.2618 -0.0355
 1458SOL     OW 4951   6.162   9.845   1.690  0.5378 -0.2160  0.0040
 1458SOL    HW1 4952   6.147   9.875   1.780 -0.4797  0.4880 -0.3856
 1458SOL    HW2 4953   6.224   9.909   1.654  0.5969 -0.2399  0.0624
 1459SOL     OW 4954   7.618   0.971   5.916  0.2244 -0.5686  0.0125
 1459SOL    HW1 4955   7.704   0.949   5.952 -0.2510  1.5745  2.7703
 1459SOL    HW2 4956   7.563   0.897   5.939  0.8477 -0.9890  0.1777
 1460SOL     OW 4957   3.468   5.870   5.472 -0.2079 -0.0338  0.2085
 1460SOL    HW1 4958   3.541   5.865   5.410 -1.7146  0.2692 -1.6961
 1460SOL    HW2 4959   3.447   5.779   5.491  0.3668 -0.1289  0.4109
 1461SOL     OW 4960   2.713   5.674   5.214 -0.1926 -0.5492  0.1070
 1461SOL    HW1 4961   2.800   5.656   5.251  1.3604  1.9214 -1.9493
 1461SOL    HW2 4962   2.684   5.753   5.259 -0.7584 -0.6104 -0.1467
 1462SOL     OW 4963   2.978   0.289   1.392  0.5141  0.0751 -0.2769
 1462SOL    HW1 4964   2.902   0.299   1.450  1.1669 -1.1234  0.8340
 1462SOL    HW2 4965   3.039   0.357   1.420  1.7682 -1.8820  2.0570
 1463SOL     OW 4966   9.578   8.536   7.232  0.3112  0.1834  0.1006
 1463SOL    HW1 4967   9.644   8.518   7.298  1.3966  0.4942 -0.8790
 1463SOL    HW2 4968   9.614   8.501   7.150  0.9753  3.5721 -1.2053
 1464SOL     OW 4969   6.672   4.488   8.380 -0.4947 -0.7447  0.0710
 1464SOL    HW1 4970   6.750   4.520   8.426 -0.9301  1.2828 -0.5301
 1464SOL    HW2 4971   6.613   4.563   8.378 -3.4109 -2.7102  2.3475
 1465SOL     OW 4972   2.021   9.803   1.351 -0.4621  0.0965  0.0263
 1465SOL    HW1 4973   2.010   9.812   1.256 -2.4473  0.7501  0.2628
 1465SOL    HW2 4974   2.113   9.779   1.363 -0.1018  0.2874 -2.0357
 1466SOL     OW 4975   9.103   3.270   3.525 -0.1606 -0.2532 -0.4543
 1466SOL    HW1 4976   9.060   3.347   3.488 -1.2183 -0.0394  1.1345
 1466SOL    HW2 4977   9.150   3.231   3.451 -0.1930  1.4948 -1.4496
 1467SOL     OW 4978   7.153   8.219   3.424  0.2478 -0.4498 -0.1881
 1467SOL    HW1 4979   7.206   8.298   3.419  0.3160 -0.3217  1.8115
 1467SOL    HW2 4980   7.094   8.225   3.349 -0.1024  1.7694  0.1963
 1468SOL     OW 4981   7.069   7.076   1.480  0.1651  0.0305  0.0918
 1468SOL    HW1 4982   7.046   7.149   1.538 -2.0498  1.0804 -1.9774
 1468SOL    HW2 4983   7.027   6.999   1.520  1.1847  0.1314  1.4286
 1469SOL     OW 4984   7.456   9.832   0.480  0.5972  0.8255  0.2646
 1469SOL    HW1 4985   7.393   9.864   0.545 -1.8790  0.6375 -1.8881
 1469SOL    HW2 4986   7.473   9.908   0.424 -0.0340  0.1561 -0.8777
 1470SOL     OW 4987   0.535   8.106   0.842 -0.3972 -0.3680  0.7901
 1470SOL    HW1 4988   0.627   8.120   0.821 -0.5189  0.2098  0.6186
 1470SOL    HW2 4989   0.528   8.012   0.859  0.0215 -0.5921 -0.2218
 1471SOL     OW 4990   1.929   4.659   4.307  0.6884  0.0698 -0.4837
 1471SOL    HW1 4991   2.004   4.600   4.304  1.9366  1.4650  0.9728
 1471SOL    HW2 4992   1.884   4.635   4.388 -0.9593 -1.2705 -1.7216
 1472SOL     OW 4993   7.636   6.538   1.102  0.4496 -0.2708  0.7408
 1472SOL    HW1 4994   7.705   6.482   1.139  1.2736  1.1283  1.4127
 1472SOL    HW2 4995   7.684   6.612   1.065 -0.3782 -1.2050 -2.5606
 1473SOL     OW 4996   0.970   2.337   5.226 -0.8772  0.3550 -0.3466
 1473SOL    HW1 4997   0.925   2.268   5.178 -1.5182  0.6224 -0.1449
 1473SOL    HW2 4998   1.010   2.293   5.300 -0.6019  0.0740 -0.6586
 1474SOL     OW 4999   8.783   4.772   6.223  0.0806  1.0353 -0.4071
 1474SOL    HW1 5000   8.764   4.685   6.190 -0.3015  0.0436  2.1670
 1474SOL    HW2 5001   8.809   4.822   6.146  0.7902 -1.4544 -1.9054
 1475SOL     OW 5002   1.509   6.106   0.226  0.8546  0.1816  0.1252
 1475SOL    HW1 5003   1.462   6.027   0.200  0.8069  0.0581  0.5824
 1475SOL    HW2 5004   1.447   6.153   0.283  1.8034 -0.7317  2.0229
 1476SOL     OW 5005   3.050   0.846   6.073  0.0048  0.6349 -0.1584
 1476SOL    HW1 5006   3.115   0.781   6.045  1.4381  1.1723  1.6808
 1476SOL    HW2 5007   2.979   0.795   6.110  0.5490  0.0642  0.1257
 1477SOL     OW 5008   6.030   3.815   7.969 -0.2142  0.6255  0.0862
 1477SOL    HW1 5009   5.949   3.771   7.943 -2.1319  3.4456  0.8645
 1477SOL    HW2 5010   6.074   3.836   7.887 -1.7565  1.6218 -0.5061
 1478SOL     OW 5011   7.692   1.852   7.154 -0.4853 -0.0617 -0.1925
 1478SOL    HW1 5012   7.602   1.827   7.173 -0.0679 -0.8657  0.7931
 1478SOL    HW2 5013   7.689   1.884   7.063 -2.4582  3.5293  0.9398
 1479SOL     OW 5014   7.404   0.351   8.014 -0.0576  0.0502  0.4658
 1479SOL    HW1 5015   7.386   0.329   7.922  0.7611 -2.0348  0.7392
 1479SOL    HW2 5016   7.468   0.421   8.010 -0.2535  0.1836 -0.5592
 1480SOL     OW 5017   5.453   9.621   3.597  0.5350  0.9076 -0.7775
 1480SOL    HW1 5018   5.426   9.579   3.515 -3.4485 -0.2420  0.8376
 1480SOL    HW2 5019   5.435   9.714   3.584 -1.3828  0.5698 -0.8802
 1481SOL     OW 5020   8.248   9.606   3.187  0.2209 -0.0478  0.2990
 1481SOL    HW1 5021   8.216   9.577   3.102  0.7975  1.3247 -0.4165
 1481SOL    HW2 5022   8.316   9.670   3.167 -0.5824  1.3568  1.7782
 1482SOL     OW 5023   6.797   3.127   4.881  0.1194  0.6066 -0.0861
 1482SOL    HW1 5024   6.805   3.073   4.960  1.1235  0.5391 -0.2153
 1482SOL    HW2 5025   6.777   3.215   4.913 -0.5435  0.3674  0.1775
 1483SOL     OW 5026   2.144   8.592   7.080  0.3932  0.8247  0.0807
 1483SOL    HW1 5027   2.224   8.572   7.129  1.3017  0.8140 -1.3666
 1483SOL    HW2 5028   2.108   8.506   7.059  0.5355  0.8164 -0.1271
 1484SOL     OW 5029   2.767   0.343   8.009 -0.2204  0.4599  0.2215
 1484SOL    HW1 5030   2.726   0.365   8.092  0.0490 -0.2198  0.5390
 1484SOL    HW2 5031   2.857   0.373   8.018  0.3870 -1.4003  0.9709
 1485SOL     OW 5032   2.113   6.538   6.653  0.3011  0.6265  0.3446
 1485SOL    HW1 5033   2.040   6.477   6.646  1.7340 -1.0670 -0.6104
 1485SOL    HW2 5034   2.159   6.512   6.732  1.5827 -0.3644 -0.6796
 1486SOL     OW 5035   8.141   6.445   1.660  0.5916 -0.1066  0.3488
 1486SOL    HW1 5036   8.050   6.419   1.676 -0.1321  0.0079 -2.9578
 1486SOL    HW2 5037   8.165   6.402   1.578  2.8409  1.4973  0.0551
 1487SOL     OW 5038   6.616   8.447   0.957 -0.7390 -0.2796  0.5402
 1487SOL    HW1 5039   6.693   8.398   0.928  0.9549  1.9840  0.9426
 1487SOL    HW2 5040   6.635   8.469   1.049 -2.2262 -0.3249  0.8839
 1488SOL     OW 5041   9.772   6.557   7.526  0.2614  0.1347 -0.0188
 1488SOL    HW1 5042   9.721   6.479   7.505  1.0321 -0.3452 -0.1494
 1488SOL    HW2 5043   9.797   6.546   7.617  0.6983  0.0331 -0.1471
 1489SOL     OW 5044   9.082   2.115   5.951  0.3282  0.0335 -0.4758
 1489SOL    HW1 5045   9.033   2.104   6.032 -1.8443 -1.5768 -1.9034
 1489SOL    HW2 5046   9.149   2.181   5.972 -1.4656  1.2160  1.9985
 1490SOL     OW 5047   1.044   0.250   3.530 -0.3081  0.0228  0.2770
 1490SOL    HW1 5048   0.961   0.283   3.564 -0.1069  0.7037  0.1122
 1490SOL    HW2 5049   1.076   0.320   3.474 -0.7192 -1.1407 -1.4830
 1491SOL     OW 5050   6.206   6.139   8.179  0.4172 -0.2059  0.2311
 1491SOL    HW1 5051   6.235   6.206   8.240  0.6457  0.0656 -0.1705
 1491SOL    HW2 5052   6.166   6.071   8.234  2.8837 -1.1725  0.9558
 1492SOL     OW 5053   3.774   5.865   9.670  0.8154  0.2237  0.2360
 1492SOL    HW1 5054   3.788   5.820   9.586  0.5140 -0.6004  0.6211
 1492SOL    HW2 5055   3.682   5.852   9.689  0.7313  0.9925  0.3722
 1493SOL     OW 5056   9.311   0.679   0.985  0.2452 -0.3175  0.7565
 1493SOL    HW1 5057   9.226   0.651   0.950  0.0113  1.5476 -0.2767
 1493SOL    HW2 5058   9.288   0.735   1.060  0.4858  1.0141 -0.1333
 1494SOL     OW 5059   0.160   7.807   8.006 -0.2374 -0.1908  0.3296
 1494SOL    HW1 5060   0.089   7.763   7.960 -0.1678 -0.3292  0.3558
 1494SOL    HW2 5061   0.138   7.900   8.000  0.2679 -0.1355 -0.8217
 1495SOL     OW 5062   7.380   0.076   0.039 -0.0814 -0.0351 -0.1118
 1495SOL    HW1 5063   7.377   0.033  -0.047  0.2322 -1.3178  0.5016
 1495SOL    HW2 5064   7.288   0.094   0.060 -0.0826  2.1323 -1.5690
 1496SOL     OW 5065   5.035   8.136   6.957  0.5187 -0.0066 -0.1571
 1496SOL    HW1 5066   5.098   8.114   7.026  1.5400 -0.8428 -1.2887
 1496SOL    HW2 5067   4.976   8.200   6.997  0.8544 -0.7241  1.5760
 1497SOL     OW 5068   8.967   7.067   4.024  0.8066 -0.1906  0.0096
 1497SOL    HW1 5069   8.885   7.041   3.984  1.4302 -2.6033  0.1330
 1497SOL    HW2 5070   9.035   7.030   3.967  1.7698 -0.0820  1.0369
 1498SOL     OW 5071   1.285   5.226   1.203 -0.3918 -0.1541  0.4882
 1498SOL    HW1 5072   1.345   5.258   1.136 -1.1863  0.2788 -0.0413
 1498SOL    HW2 5073   1.312   5.271   1.283 -1.4944  1.9714 -0.2449
 1499SOL     OW 5074   0.813   5.477   0.430 -0.2431  0.3497  0.2634
 1499SOL    HW1 5075   0.751   5.405   0.438 -1.0647  0.6688 -2.1898
 1499SOL    HW2 5076   0.883   5.442   0.375  0.9445  0.5120  1.6127
 1500SOL     OW 5077   8.358   7.291   2.070 -0.4117  0.1124 -1.0378
 1500SOL    HW1 5078   8.447   7.308   2.038 -0.6205  0.4398 -1.4482
 1500SOL    HW2 5079   8.324   7.377   2.093 -0.0076 -0.1724  0.7809
 1501SOL     OW 5080   1.301   5.100   7.382 -0.1375 -0.4344 -0.1791
 1501SOL    HW1 5081   1.209   5.096   7.353 -0.0456  0.2322 -0.5970
 1501SOL    HW2 5082   1.315   5.019   7.430 -1.7453  0.5845  2.2302
 1502SOL     OW 5083   7.617   1.588   8.261 -0.1502 -0.0255  0.0185
 1502SOL    HW1 5084   7.559   1.656   8.293  1.3525  1.0374  0.6152
 1502SOL    HW2 5085   7.592   1.575   8.170 -1.6483  0.0185  0.4093
 1503SOL     OW 5086   3.355   6.897   5.076  0.3944  0.6487 -0.0765
 1503SOL    HW1 5087   3.293   6.960   5.112  0.1190 -0.7248  2.0432
 1503SOL    HW2 5088   3.305   6.816   5.065  1.1435  0.2925 -1.0749
 1504SOL     OW 5089   9.622   5.747   3.593 -0.2821  0.3501 -0.2664
 1504SOL    HW1 5090   9.685   5.814   3.567  0.7591 -0.1789  0.7788
 1504SOL    HW2 5091   9.579   5.783   3.671  0.9168 -0.5296  0.8348
 1505SOL     OW 5092   6.474   2.014   1.052  0.7695 -0.3861 -0.0255
 1505SOL    HW1 5093   6.399   2.046   1.002  1.0426 -0.8095 -0.7176
 1505SOL    HW2 5094   6.519   1.953   0.993  2.7256  1.2601 -0.3818
 1506SOL     OW 5095   8.783   8.324   7.281 -0.2544 -0.4894  0.1943
 1506SOL    HW1 5096   8.808   8.245   7.330 -0.6616 -0.9197 -0.2779
 1506SOL    HW2 5097   8.726   8.372   7.340  1.5458  0.4596  1.2567
 1507SOL     OW 5098   1.712   4.602   0.470 -0.7018 -0.1816  0.1143
 1507SOL    HW1 5099   1.729   4.608   0.376 -0.2416  0.4353  0.2251
 1507SOL    HW2 5100   1.724   4.692   0.502  0.9144 -0.6746  1.0405
 1508SOL     OW 5101   2.515   8.268   6.448 -0.0710  0.4841 -0.2795
 1508SOL    HW1 5102   2.584   8.227   6.395  1.4712  0.2401  1.8226
 1508SOL    HW2 5103   2.436   8.220   6.424  0.3208  0.9870 -3.0069
 1509SOL     OW 5104   7.911   5.488   2.631  0.2145  0.4369  0.0302
 1509SOL    HW1 5105   7.856   5.447   2.698 -1.6040 -1.7988 -2.6085
 1509SOL    HW2 5106   7.952   5.562   2.676 -3.3945  1.0783  2.7639
 1510SOL     OW 5107   4.132   9.538   2.590  0.2922  0.3879 -0.6996
 1510SOL    HW1 5108   4.130   9.476   2.517 -1.0218 -0.2456 -0.1375
 1510SOL    HW2 5109   4.088   9.616   2.556  3.8177  2.0012 -2.1725
 1511SOL     OW 5110   8.255   7.820   6.434 -0.0979  0.1748 -0.3524
 1511SOL    HW1 5111   8.331   7.873   6.411  0.9591 -0.9854  0.4002
 1511SOL    HW2 5112   8.291   7.743   6.477 -1.6542 -0.7586 -0.6468
 1512SOL     OW 5113   2.204   7.897   6.341 -0.2750 -0.2590 -0.0956
 1512SOL    HW1 5114   2.189   7.823   6.400  0.4539  0.5998  1.2001
 1512SOL    HW2 5115   2.119   7.913   6.301 -1.0535 -0.2327  1.4848
 1513SOL     OW 5116   1.795   7.552   0.462  0.4477  0.2988 -0.1506
 1513SOL    HW1 5117   1.733   7.604   0.514  2.2000  2.2678  0.0985
 1513SOL    HW2 5118   1.791   7.590   0.374 -0.4220 -1.1504 -0.7589
 1514SOL     OW 5119   3.550   6.473   3.295  0.4303  0.0384 -0.0442
 1514SOL    HW1 5120   3.614   6.453   3.364 -0.0758  0.2433  0.4971
 1514SOL    HW2 5121   3.536   6.568   3.302  1.4569  0.3129 -1.3966
 1515SOL     OW 5122   4.014   1.171   3.850 -0.6301  0.3296  0.1245
 1515SOL    HW1 5123   4.043   1.212   3.768  0.5354  1.0644  0.8718
 1515SOL    HW2 5124   4.057   1.086   3.851 -0.4855  0.4010  0.0594
 1516SOL     OW 5125   2.997   1.746   4.309  0.4863  0.1969 -0.6760
 1516SOL    HW1 5126   2.977   1.674   4.249 -1.7533 -0.3727  0.6438
 1516SOL    HW2 5127   3.023   1.818   4.252 -0.1091 -0.7533 -2.2253
 1517SOL     OW 5128   5.919   1.576   3.970  0.0161  0.3223 -0.0366
 1517SOL    HW1 5129   5.913   1.483   3.990 -0.3776  0.1802 -0.7625
 1517SOL    HW2 5130   5.828   1.605   3.965  0.1233  0.6007 -0.4321
 1518SOL     OW 5131   3.034   2.471   5.751 -0.1186  0.9207  0.5263
 1518SOL    HW1 5132   2.950   2.432   5.731  0.2476  0.0011  0.7556
 1518SOL    HW2 5133   3.031   2.558   5.709 -1.2450  0.9799  0.7166
 1519SOL     OW 5134   3.814   7.483   7.706  0.3348 -0.0471  0.2320
 1519SOL    HW1 5135   3.758   7.538   7.652 -0.8285 -0.9730  0.4746
 1519SOL    HW2 5136   3.879   7.544   7.743 -0.8935  1.1610  0.4647
 1520SOL     OW 5137   6.383   9.750   6.029 -0.2723  0.0842 -0.0946
 1520SOL    HW1 5138   6.448   9.803   5.983  1.2056 -0.8681  0.8550
 1520SOL    HW2 5139   6.365   9.677   5.969 -0.6819  0.4780 -0.4630
 1521SOL     OW 5140   9.117   1.148   8.499 -0.2215  0.1222 -0.0699
 1521SOL    HW1 5141   9.177   1.118   8.568 -0.4653  2.8764  1.4762
 1521SOL    HW2 5142   9.032   1.156   8.543 -0.5683  1.1676 -0.8882
 1522SOL     OW 5143   8.542   5.247   4.870 -0.2587  0.4086 -0.3264
 1522SOL    HW1 5144   8.490   5.230   4.949 -1.4351 -0.2412 -1.1902
 1522SOL    HW2 5145   8.616   5.299   4.900  0.1587 -1.1157  1.4691
 1523SOL     OW 5146   0.873   6.628   7.190 -0.6163  0.3070  0.2070
 1523SOL    HW1 5147   0.793   6.632   7.243 -2.5444 -0.8532 -2.3998
 1523SOL    HW2 5148   0.908   6.717   7.193 -0.8215  0.3829  3.0285
 1524SOL     OW 5149   0.730   1.261   8.863  0.2288 -0.1959  0.1214
 1524SOL    HW1 5150   0.817   1.235   8.833 -0.6168 -1.6188 -1.2328
 1524SOL    HW2 5151   0.738   1.355   8.882  1.9257 -0.2018 -0.4119
 1525SOL     OW 5152   0.739   9.069   4.631  0.0712 -0.3176 -0.3851
 1525SOL    HW1 5153   0.714   9.122   4.556  0.9355 -1.7832 -1.7647
 1525SOL    HW2 5154   0.791   9.128   4.686 -0.4875  0.7475 -0.9622
 1526SOL     OW 5155   5.053   0.269   7.124 -0.6457  0.5280  0.3393
 1526SOL    HW1 5156   5.083   0.314   7.045 -1.3181  0.9780  0.3275
 1526SOL    HW2 5157   5.120   0.203   7.142  0.0658  1.1562  0.0280
 1527SOL     OW 5158   4.518   9.660   7.954 -0.3156 -0.1439 -0.1920
 1527SOL    HW1 5159   4.573   9.608   8.013  0.8119 -0.4023 -1.4301
 1527SOL    HW2 5160   4.514   9.608   7.873  0.7600  1.6277 -1.4377
 1528SOL     OW 5161   5.822   5.074   8.379  0.5371 -0.0792  0.2512
 1528SOL    HW1 5162   5.867   5.045   8.458  1.1578 -0.1405 -0.1092
 1528SOL    HW2 5163   5.745   5.018   8.372  0.6686 -0.3088  0.6204
 1529SOL     OW 5164   6.194   6.127   2.341  0.3961 -0.0189 -0.0031
 1529SOL    HW1 5165   6.109   6.151   2.304  1.0245  1.3693 -0.6107
 1529SOL    HW2 5166   6.182   6.037   2.372 -0.9929 -0.2040 -0.9820
 1530SOL     OW 5167   2.535   7.358   1.958 -0.6066  0.0606 -0.3546
 1530SOL    HW1 5168   2.588   7.320   2.028  0.3854  2.4429  0.2867
 1530SOL    HW2 5169   2.480   7.423   2.002 -1.4857  0.1400 -1.5186
 1531SOL     OW 5170   4.921   1.788   8.287 -0.2639 -0.2837 -0.0381
 1531SOL    HW1 5171   4.955   1.722   8.347  0.1875 -0.0464 -0.0283
 1531SOL    HW2 5172   4.963   1.869   8.314 -0.6573 -0.0292 -0.1806
 1532SOL     OW 5173   6.915   2.017   5.927 -0.2000  0.4514 -0.1642
 1532SOL    HW1 5174   6.913   2.029   5.832 -2.8334  2.3407  0.0042
 1532SOL    HW2 5175   7.004   2.041   5.952  0.8693 -1.0165 -2.1681
 1533SOL     OW 5176   9.632   9.855   5.861  0.1244  0.0697  0.3561
 1533SOL    HW1 5177   9.598   9.766   5.864 -0.0118  0.1266  0.5547
 1533SOL    HW2 5178   9.691   9.861   5.936  0.5317 -0.0121  0.0454
 1534SOL     OW 5179   9.650   7.440   2.040  0.2777 -0.2745  0.8584
 1534SOL    HW1 5180   9.655   7.345   2.028 -1.2040 -0.2296 -0.4693
 1534SOL    HW2 5181   9.690   7.456   2.125  2.7553 -1.7963  0.0641
 1535SOL     OW 5182   2.104   8.086   7.943  0.1904  0.6893  0.2606
 1535SOL    HW1 5183   2.009   8.099   7.944  0.1806  0.8027 -0.8378
 1535SOL    HW2 5184   2.115   7.993   7.960 -0.2272  0.3287 -1.2628
 1536SOL     OW 5185   6.257   5.798   3.457  0.0730  0.0507 -0.5231
 1536SOL    HW1 5186   6.334   5.747   3.433  0.0133 -0.3450  0.0970
 1536SOL    HW2 5187   6.252   5.866   3.390  1.0727  0.2001 -0.4686
 1537SOL     OW 5188   1.470   4.363   5.257  0.0088  0.5093  0.2141
 1537SOL    HW1 5189   1.513   4.308   5.324  2.1023  1.1342 -0.5329
 1537SOL    HW2 5190   1.515   4.447   5.263 -2.4371  1.8858  0.6153
 1538SOL     OW 5191   3.001   9.909   8.821  0.1749 -0.1644  0.1533
 1538SOL    HW1 5192   3.072   9.856   8.855  0.0312  0.6126  1.7444
 1538SOL    HW2 5193   2.967   9.859   8.747  0.6274 -1.8400  1.0391
 1539SOL     OW 5194   7.597   2.631   8.480  0.4370 -0.2756  0.4500
 1539SOL    HW1 5195   7.552   2.548   8.461  0.9235 -0.3076 -0.6473
 1539SOL    HW2 5196   7.531   2.685   8.522  0.0646 -1.1648  1.0455
 1540SOL     OW 5197   5.201   2.164   9.445  0.0421  0.0700 -0.2445
 1540SOL    HW1 5198   5.222   2.231   9.379  0.3394  0.2884  0.0647
 1540SOL    HW2 5199   5.215   2.081   9.400 -1.9144  0.1709 -1.1425
 1541SOL     OW 5200   5.489   1.969   4.221  0.9123 -0.0039 -0.2338
 1541SOL    HW1 5201   5.490   2.003   4.310  3.2238 -0.4430 -0.0413
 1541SOL    HW2 5202   5.446   1.884   4.228 -1.6723  1.1813 -0.1369
 1542SOL     OW 5203   1.493   2.732   9.061 -0.2664  0.3319 -0.1832
 1542SOL    HW1 5204   1.571   2.738   9.116 -0.5473 -0.5494  0.3306
 1542SOL    HW2 5205   1.433   2.797   9.096 -0.4439 -0.2239  0.5748
 1543SOL     OW 5206   0.951   4.127   0.482 -0.2430 -0.2891 -0.7233
 1543SOL    HW1 5207   1.028   4.159   0.435 -0.1165  0.9271  0.2645
 1543SOL    HW2 5208   0.883   4.192   0.463 -0.2276  0.1444  0.6198
 1544SOL     OW 5209   2.220   2.606   8.292  0.3511 -0.0595  0.4936
 1544SOL    HW1 5210   2.179   2.657   8.222  0.5676  1.4104  1.3964
 1544SOL    HW2 5211   2.272   2.670   8.341 -1.0730 -0.6614  2.9861
 1545SOL     OW 5212   2.334   0.297   8.404 -0.1466 -0.1157  0.2743
 1545SOL    HW1 5213   2.339   0.242   8.483 -1.6710 -0.2478  0.3044
 1545SOL    HW2 5214   2.321   0.385   8.438  0.3929  0.0057  0.1783
 1546SOL     OW 5215   8.981   3.247   7.557  0.0596 -0.2039 -0.1524
 1546SOL    HW1 5216   9.052   3.224   7.497 -0.6100  0.7819 -1.3626
 1546SOL    HW2 5217   9.020   3.238   7.645  0.5513 -3.4876 -0.5681
 1547SOL     OW 5218   1.222   9.657   2.349  0.2471 -0.1982 -0.6002
 1547SOL    HW1 5219   1.223   9.563   2.329 -0.0028 -0.4644  0.5290
 1547SOL    HW2 5220   1.163   9.695   2.284 -1.9789 -1.2949  0.6598
 1548SOL     OW 5221   9.379   6.050   5.674 -0.3735 -0.0400 -0.8960
 1548SOL    HW1 5222   9.329   6.132   5.672 -0.7345 -0.2026  0.6208
 1548SOL    HW2 5223   9.333   5.993   5.612 -2.1259 -0.1858  0.4452
 1549SOL     OW 5224   0.272   2.705   1.271  0.5839 -0.4020  0.2802
 1549SOL    HW1 5225   0.288   2.759   1.194 -1.8240 -0.1226 -0.1006
 1549SOL    HW2 5226   0.296   2.616   1.243 -0.4528 -0.3424 -0.8987
 1550SOL     OW 5227   7.825   6.138   0.589  0.1785  0.1226 -0.3736
 1550SOL    HW1 5228   7.807   6.067   0.527 -1.1879  0.5725 -0.5282
 1550SOL    HW2 5229   7.863   6.208   0.535  1.5584 -0.4758 -0.2150
 1551SOL     OW 5230   1.359   0.371   4.863 -0.6308 -0.5419  0.6298
 1551SOL    HW1 5231   1.300   0.393   4.791  1.2196  0.8107 -0.5873
 1551SOL    HW2 5232   1.362   0.276   4.865  0.0013 -0.6179 -1.7706
 1552SOL     OW 5233   0.508   8.013   0.505  0.2193  0.2755 -0.2259
 1552SOL    HW1 5234   0.531   8.104   0.524  2.1591 -0.1776 -0.1725
 1552SOL    HW2 5235   0.558   7.962   0.568 -0.3334 -0.8663 -0.6800
 1553SOL     OW 5236   9.389   2.856   9.849 -0.0617  0.4693 -0.3650
 1553SOL    HW1 5237   9.348   2.866   9.935 -0.1638 -1.3492 -0.1563
 1553SOL    HW2 5238   9.328   2.899   9.789  0.0190  1.7850  0.4472
 1554SOL     OW 5239   7.611   4.567   3.483 -0.0035 -0.8894  0.3536
 1554SOL    HW1 5240   7.659   4.490   3.452 -1.8245 -1.0706 -2.3834
 1554SOL    HW2 5241   7.648   4.640   3.434  0.6977 -0.2145  1.8286
 1555SOL     OW 5242   5.141   4.287   4.425  0.0046 -0.0431  0.1064
 1555SOL    HW1 5243   5.120   4.380   4.425  0.8334  0.1581  0.8759
 1555SOL    HW2 5244   5.236   4.284   4.421  0.0261 -0.8384  0.8347
 1556SOL     OW 5245   3.285   5.446   4.608 -0.1719  0.1150  0.0802
 1556SOL    HW1 5246   3.288   5.478   4.698 -0.6814  0.9846 -0.1941
 1556SOL    HW2 5247   3.191   5.439   4.588 -0.0651 -0.6695 -0.1794
 1557SOL     OW 5248   2.795   9.341   0.408 -0.3441 -0.1090 -0.1969
 1557SOL    HW1 5249   2.756   9.271   0.461 -0.7819  1.2954  1.4677
 1557SOL    HW2 5250   2.730   9.358   0.340  0.3593 -2.1616 -1.4503
 1558SOL     OW 5251   9.002   9.332   1.688 -0.0597 -0.0522  0.4500
 1558SOL    HW1 5252   9.087   9.377   1.690 -0.7214  1.2629  0.3145
 1558SOL    HW2 5253   9.007   9.275   1.611  0.6088  0.2021  0.2989
 1559SOL     OW 5254   2.865   5.101   9.713  0.0872 -0.4072  0.4605
 1559SOL    HW1 5255   2.814   5.148   9.779 -0.2765 -0.3091  0.1116
 1559SOL    HW2 5256   2.847   5.009   9.731  1.4081 -0.4840  1.6414
 1560SOL     OW 5257   7.157   8.865   9.241 -0.0975  0.0219  0.3981
 1560SOL    HW1 5258   7.152   8.948   9.288 -0.3671  0.3639 -0.2158
 1560SOL    HW2 5259   7.071   8.855   9.200  0.3736  0.1107 -0.6366
 1561SOL     OW 5260   2.882   4.418   6.957  0.3424 -0.0177 -0.2773
 1561SOL    HW1 5261   2.927   4.389   7.036 -0.4441 -0.4438  0.0194
 1561SOL    HW2 5262   2.948   4.467   6.908  0.6039  1.0230  1.0611
 1562SOL     OW 5263   6.133   6.039   3.611  0.2833  0.1259  0.1094
 1562SOL    HW1 5264   6.050   5.995   3.591  1.0218 -1.5389  0.5808
 1562SOL    HW2 5265   6.161   6.076   3.527  0.3422 -1.5454 -0.6348
 1563SOL     OW 5266   3.439   2.818   1.519  0.3201  0.1343 -0.5570
 1563SOL    HW1 5267   3.517   2.783   1.561  0.9218  2.1347  0.1102
 1563SOL    HW2 5268   3.443   2.786   1.429  0.4944 -1.9361  0.1493
 1564SOL     OW 5269   0.198   6.513   0.849  0.0950  0.0293 -0.6082
 1564SOL    HW1 5270   0.218   6.597   0.891  2.2274 -1.4220  1.5207
 1564SOL    HW2 5271   0.200   6.533   0.755  2.1430  2.0689 -0.2305
 1565SOL     OW 5272   3.871   1.593   1.592  0.5041  0.0940 -0.0338
 1565SOL    HW1 5273   3.799   1.641   1.550  0.6851 -0.6006 -1.1909
 1565SOL    HW2 5274   3.950   1.637   1.559  0.6336 -0.0135  0.1363
 1566SOL     OW 5275   2.294   3.091   1.038 -0.6407  0.2365  0.5723
 1566SOL    HW1 5276   2.206   3.052   1.034  0.2554 -1.9394  0.6012
 1566SOL    HW2 5277   2.331   3.076   0.951  0.1853 -0.1370  0.9773
 1567SOL     OW 5278   5.401   5.963   9.544  0.0274  0.0113 -0.0239
 1567SOL    HW1 5279   5.367   5.879   9.575  0.2634 -0.2553 -0.4953
 1567SOL    HW2 5280   5.404   5.955   9.449 -0.2987  0.6867 -0.0977
 1568SOL     OW 5281   8.293   5.737   1.974 -0.5564  0.0189 -0.1429
 1568SOL    HW1 5282   8.291   5.759   1.881 -1.7039  1.7552  0.2438
 1568SOL    HW2 5283   8.217   5.781   2.011  0.4364  0.2172  1.7991
 1569SOL     OW 5284   9.686   9.015   4.131 -0.3441 -0.2671  0.0591
 1569SOL    HW1 5285   9.632   9.093   4.119 -1.2052 -0.9217 -0.3846
 1569SOL    HW2 5286   9.758   9.027   4.068  1.2036  1.5557  2.0078
 1570SOL     OW 5287   3.697   9.427   1.257 -0.1679  0.3744  0.3716
 1570SOL    HW1 5288   3.693   9.448   1.164 -0.7475 -1.3164 -0.0366
 1570SOL    HW2 5289   3.648   9.345   1.264  0.0643  0.3583  2.1338
 1571SOL     OW 5290   1.241   4.852   2.138  0.3468 -0.2066 -0.3405
 1571SOL    HW1 5291   1.300   4.828   2.210 -0.6831 -1.2015  0.1880
 1571SOL    HW2 5292   1.208   4.768   2.105 -3.3336  0.2966  1.5327
 1572SOL     OW 5293   6.727   6.136   7.082 -0.1084  0.6914  0.9983
 1572SOL    HW1 5294   6.731   6.215   7.134  0.6585  0.5259  1.1970
 1572SOL    HW2 5295   6.809   6.135   7.033 -1.5944  1.8653 -1.7343
 1573SOL     OW 5296   9.874   5.018   3.954 -0.0617  0.4494  0.1823
 1573SOL    HW1 5297   9.821   4.946   3.918  1.8910 -1.0963  0.2133
 1573SOL    HW2 5298   9.930   5.044   3.881  0.0247  1.1744  0.5063
 1574SOL     OW 5299   6.170   8.567   6.701 -0.5280 -0.2603  0.4746
 1574SOL    HW1 5300   6.236   8.593   6.637 -1.4193  1.8940  0.3626
 1574SOL    HW2 5301   6.220   8.550   6.781  0.4163 -1.3989 -0.3200
 1575SOL     OW 5302   4.778   7.609   2.921  0.3725 -0.0053  0.1844
 1575SOL    HW1 5303   4.763   7.524   2.880 -1.8894  0.7178 -0.6247
 1575SOL    HW2 5304   4.800   7.588   3.012  0.4918 -1.4560 -0.1481
 1576SOL     OW 5305   8.449   1.884   3.764  0.3815  0.2104 -0.3465
 1576SOL    HW1 5306   8.435   1.925   3.678  0.9449  0.8302 -0.1470
 1576SOL    HW2 5307   8.542   1.898   3.782 -0.3200  2.9217  1.7869
 1577SOL     OW 5308   1.559   6.420   3.797  0.0202  0.6133 -0.4920
 1577SOL    HW1 5309   1.598   6.450   3.715  0.3624 -1.8631 -1.3454
 1577SOL    HW2 5310   1.465   6.420   3.780  0.0992 -0.0876 -1.0070
 1578SOL     OW 5311   5.508   5.550   6.713 -0.4049  0.4248  0.3911
 1578SOL    HW1 5312   5.507   5.631   6.764  1.5433  0.9265 -0.2632
 1578SOL    HW2 5313   5.510   5.580   6.622 -3.3563 -0.4422 -0.0621
 1579SOL     OW 5314   6.767   4.199   8.996  0.6579  0.1726  0.0185
 1579SOL    HW1 5315   6.764   4.198   8.901  0.7741  0.7154  0.0064
 1579SOL    HW2 5316   6.681   4.167   9.024  0.1596  1.2344 -0.2732
 1580SOL     OW 5317   5.569   9.386   2.222  0.1929  0.9746  0.1164
 1580SOL    HW1 5318   5.559   9.477   2.194  2.8320  0.4451 -3.2427
 1580SOL    HW2 5319   5.527   9.336   2.152  0.0177 -0.4429  1.2058
 1581SOL     OW 5320   7.434   8.419   9.513  0.0965 -0.3885  0.7112
 1581SOL    HW1 5321   7.390   8.334   9.519  0.0731 -0.2643  3.2397
 1581SOL    HW2 5322   7.381   8.477   9.569  1.5867  0.6141  1.1350
 1582SOL     OW 5323   2.675   5.997   6.683  0.3706  0.0344  0.0514
 1582SOL    HW1 5324   2.642   5.929   6.624  0.8908 -0.4275  0.2826
 1582SOL    HW2 5325   2.638   6.078   6.649 -2.0185 -0.5713  1.0039
 1583SOL     OW 5326   4.205   4.015   6.463  0.2985  0.7959 -0.9609
 1583SOL    HW1 5327   4.232   4.086   6.520  1.1763 -0.0292 -0.3247
 1583SOL    HW2 5328   4.167   3.949   6.522  0.3305  0.3469 -1.4301
 1584SOL     OW 5329   7.824   7.232   5.328 -0.3284 -0.5870 -0.6481
 1584SOL    HW1 5330   7.844   7.309   5.382 -0.4669 -1.0891  0.1375
 1584SOL    HW2 5331   7.890   7.235   5.258 -0.8641  0.7083 -1.1313
 1585SOL     OW 5332   0.404   6.113   0.056  0.4151 -0.1122 -0.4926
 1585SOL    HW1 5333   0.363   6.088  -0.027  0.9408 -1.7317 -0.3086
 1585SOL    HW2 5334   0.394   6.036   0.112  3.7882 -0.7274 -0.4930
 1586SOL     OW 5335   3.882   3.603   9.126  0.5503 -0.2837 -0.4031
 1586SOL    HW1 5336   3.964   3.559   9.149  1.6463  1.2435 -1.2711
 1586SOL    HW2 5337   3.839   3.618   9.211  0.0634 -3.0366 -0.0637
 1587SOL     OW 5338   3.699   1.257   7.485 -0.1956  0.3843  0.2548
 1587SOL    HW1 5339   3.788   1.272   7.453 -0.5238  0.2265 -0.7722
 1587SOL    HW2 5340   3.708   1.256   7.580  0.9344  0.1581  0.1671
 1588SOL     OW 5341   5.777   1.582   0.325  0.1751  0.1553  0.5486
 1588SOL    HW1 5342   5.700   1.600   0.379  0.2434 -2.2259  1.5530
 1588SOL    HW2 5343   5.850   1.614   0.377  0.0758 -0.2680  0.9576
 1589SOL     OW 5344   8.051   4.808   5.568 -0.1469 -1.0461 -0.0647
 1589SOL    HW1 5345   8.069   4.824   5.661 -0.6466 -1.4099  0.0973
 1589SOL    HW2 5346   8.136   4.785   5.531  0.5844  1.5518 -0.2416
 1590SOL     OW 5347   1.104   6.840   9.853 -0.2162  0.3741 -0.2241
 1590SOL    HW1 5348   1.133   6.902   9.920  2.1527 -1.3172  0.4672
 1590SOL    HW2 5349   1.098   6.893   9.773 -1.1230  2.0234  0.8660
 1591SOL     OW 5350   3.038   6.650   0.913 -0.4068  0.3090  0.1302
 1591SOL    HW1 5351   3.000   6.686   0.992  1.9622  0.4405  1.3012
 1591SOL    HW2 5352   3.107   6.590   0.944  0.4520  0.2076 -1.8075
 1592SOL     OW 5353   7.686   9.943   6.523 -0.3695 -0.1248 -0.1456
 1592SOL    HW1 5354   7.707   9.961   6.431 -0.5931 -4.8134 -1.3699
 1592SOL    HW2 5355   7.770   9.922   6.563 -0.5403 -0.4354  0.0539
 1593SOL     OW 5356   8.199   6.602   4.116 -0.0210 -0.2128  0.3506
 1593SOL    HW1 5357   8.237   6.616   4.029 -1.1193  1.3422  0.0652
 1593SOL    HW2 5358   8.238   6.521   4.147  0.5980 -0.6703 -1.4918
 1594SOL     OW 5359   2.283   3.220   3.134 -0.4504 -0.4558 -0.0075
 1594SOL    HW1 5360   2.269   3.229   3.229  3.0525 -0.1306  0.6256
 1594SOL    HW2 5361   2.375   3.194   3.126 -1.0999 -2.3017 -3.3060
 1595SOL     OW 5362   0.654   4.077   6.199  0.5616 -0.6577 -0.5726
 1595SOL    HW1 5363   0.582   4.020   6.226  0.4632  0.4114  1.6780
 1595SOL    HW2 5364   0.611   4.157   6.168  0.7604 -0.7264 -1.0364
 1596SOL     OW 5365   6.736   2.120   3.736  0.0138 -0.5057  0.7232
 1596SOL    HW1 5366   6.648   2.104   3.700  0.1814 -0.5129  0.3191
 1596SOL    HW2 5367   6.749   2.048   3.799 -0.3022 -0.4573  0.8479
 1597SOL     OW 5368   9.680   5.904   0.414 -0.4256  0.4539  0.0590
 1597SOL    HW1 5369   9.727   5.824   0.389  0.0527  0.6012  0.4523
 1597SOL    HW2 5370   9.749   5.970   0.421 -1.1427  1.8777 -3.8267
 1598SOL     OW 5371   9.472   6.373   1.828  0.0665 -0.2818 -0.1132
 1598SOL    HW1 5372   9.512   6.398   1.911  0.8073 -0.6311 -0.3576
 1598SOL    HW2 5373   9.450   6.280   1.838 -1.0314 -0.0100  0.1469
 1599SOL     OW 5374   5.332   3.881   1.767  0.4066 -0.0718  0.3610
 1599SOL    HW1 5375   5.365   3.943   1.702 -0.8867 -0.5054 -0.7363
 1599SOL    HW2 5376   5.367   3.914   1.850 -1.7790  3.3444  0.1612
 1600SOL     OW 5377   9.720   3.479   2.834  0.3503  0.1122 -0.2966
 1600SOL    HW1 5378   9.802   3.434   2.816  0.5743  0.7033 -0.8142
 1600SOL    HW2 5379   9.728   3.563   2.788 -0.0224  0.7163  0.6845
 1601SOL     OW 5380   8.713   3.395   1.285  0.4929 -0.1699 -0.4648
 1601SOL    HW1 5381   8.712   3.309   1.242 -0.3409 -0.2544 -0.3012
 1601SOL    HW2 5382   8.628   3.401   1.328  0.7035  0.5744 -0.1350
 1602SOL     OW 5383   5.252   0.023   2.205  0.4737  0.3650 -0.4039
 1602SOL    HW1 5384   5.254   0.105   2.157 -0.1884  0.4277 -0.3347
 1602SOL    HW2 5385   5.309  -0.036   2.156  0.7203  0.7769 -0.6124
 1603SOL     OW 5386   6.522   3.604   2.109 -0.0090  0.2447 -0.0267
 1603SOL    HW1 5387   6.452   3.666   2.091  0.1266 -0.0510 -1.7027
 1603SOL    HW2 5388   6.529   3.603   2.205 -3.0132 -0.5374  0.2864
 1604SOL     OW 5389   9.708   0.267   4.040 -0.2343  0.3663  0.0093
 1604SOL    HW1 5390   9.716   0.259   3.945 -1.3361 -0.1932 -0.0469
 1604SOL    HW2 5391   9.676   0.357   4.053 -0.8637  0.1720 -0.1975
 1605SOL     OW 5392   0.599   5.923   3.797  0.4596 -0.4281  0.6764
 1605SOL    HW1 5393   0.604   5.840   3.749  3.0540 -0.8814  1.5351
 1605SOL    HW2 5394   0.614   5.990   3.731  1.1701 -0.8591  0.3806
 1606SOL     OW 5395   2.690   6.967   3.196 -0.0817 -0.1093  0.4353
 1606SOL    HW1 5396   2.686   6.989   3.289 -1.3481 -0.9771  0.6202
 1606SOL    HW2 5397   2.694   6.871   3.194  0.6024 -0.0778 -0.4016
 1607SOL     OW 5398   6.380   5.406   3.707  0.5232 -0.3737 -0.0881
 1607SOL    HW1 5399   6.304   5.464   3.712  0.0203 -0.9814 -0.5108
 1607SOL    HW2 5400   6.402   5.386   3.798  1.8663  1.9481  0.1754
 1608SOL     OW 5401   4.434   5.663   2.435  0.7725  0.1205  0.3495
 1608SOL    HW1 5402   4.456   5.596   2.371 -0.7243 -0.2204  0.1569
 1608SOL    HW2 5403   4.448   5.746   2.389 -2.8365 -0.0750 -1.5110
 1609SOL     OW 5404   0.492   1.520   5.766  0.4151 -0.0320 -0.4673
 1609SOL    HW1 5405   0.421   1.497   5.705  0.7504  0.7320 -1.1727
 1609SOL    HW2 5406   0.494   1.615   5.765  1.8818 -0.0456 -0.9768
 1610SOL     OW 5407   5.939   3.560   5.638  0.2096 -0.3943 -0.0479
 1610SOL    HW1 5408   5.871   3.548   5.704 -1.9873  1.0135 -1.9007
 1610SOL    HW2 5409   6.015   3.592   5.687 -1.0599 -0.1643  1.8770
 1611SOL     OW 5410   3.054   9.682   8.404 -0.2971 -0.2647  0.4231
 1611SOL    HW1 5411   2.998   9.665   8.329  1.7359 -1.1080 -1.0030
 1611SOL    HW2 5412   3.125   9.618   8.396  0.0663 -0.3106  3.0213
 1612SOL     OW 5413   1.638   1.277   2.166 -0.1825  0.1256 -0.4577
 1612SOL    HW1 5414   1.632   1.329   2.246 -0.6619  2.0902 -1.6985
 1612SOL    HW2 5415   1.547   1.268   2.137  0.1379  1.4602 -1.9820
 1613SOL     OW 5416   2.302   8.446   9.487  1.0881  0.2476  0.3605
 1613SOL    HW1 5417   2.319   8.534   9.452 -0.1690  0.4735  0.2678
 1613SOL    HW2 5418   2.215   8.424   9.456  1.0658 -0.7115  1.0472
 1614SOL     OW 5419   7.170   7.968   4.485 -0.4137 -0.1627 -0.4211
 1614SOL    HW1 5420   7.084   7.981   4.445  0.7775  0.5828 -2.9739
 1614SOL    HW2 5421   7.199   7.883   4.452  1.0315  0.9338 -2.1640
 1615SOL     OW 5422   4.998   4.163   4.230  0.1330 -0.3315 -0.2873
 1615SOL    HW1 5423   4.924   4.217   4.257  0.2781 -0.7806  1.0882
 1615SOL    HW2 5424   5.063   4.175   4.299  0.5380 -1.5306 -0.4404
 1616SOL     OW 5425   3.863   7.000   2.405 -0.2129  0.2353 -0.3571
 1616SOL    HW1 5426   3.913   6.994   2.486 -1.5963  0.2491  0.5273
 1616SOL    HW2 5427   3.858   6.909   2.373  1.0699  0.3447 -0.9103
 1617SOL     OW 5428   0.502   1.487   1.689  0.4742  0.5471 -0.0005
 1617SOL    HW1 5429   0.444   1.412   1.677 -0.4856  1.0842  1.1163
 1617SOL    HW2 5430   0.484   1.544   1.614  1.1726 -0.2835 -0.8286
 1618SOL     OW 5431   7.494   1.111   1.809 -0.0380  0.1807 -0.3020
 1618SOL    HW1 5432   7.465   1.172   1.877  0.7232  1.1269 -0.7990
 1618SOL    HW2 5433   7.510   1.029   1.855 -1.0595  0.3582  0.3869
 1619SOL     OW 5434   2.152   6.834   7.735  0.5878  0.2393 -0.5511
 1619SOL    HW1 5435   2.195   6.748   7.734  0.1497  0.0076  0.2053
 1619SOL    HW2 5436   2.222   6.895   7.758  0.4517 -0.1910  1.1475
 1620SOL     OW 5437   8.962   3.798   3.543 -0.1028  0.1974 -0.4594
 1620SOL    HW1 5438   8.904   3.722   3.550 -1.1235  0.9867 -0.2277
 1620SOL    HW2 5439   9.024   3.786   3.615 -1.1683  0.3379  0.5143
 1621SOL     OW 5440   5.512   5.660   2.097  0.3957 -0.3010  0.8489
 1621SOL    HW1 5441   5.465   5.732   2.055  1.0223  0.3155  1.1828
 1621SOL    HW2 5442   5.604   5.688   2.096  0.6128 -0.9877  1.2029
 1622SOL     OW 5443   8.628   8.931   5.953 -0.0459 -0.1027  0.4972
 1622SOL    HW1 5444   8.546   8.963   5.914  0.4094 -0.7484 -1.1099
 1622SOL    HW2 5445   8.603   8.851   5.999 -0.2379 -0.6966 -0.5976
 1623SOL     OW 5446   0.947   1.373   8.012 -0.5740  0.2764 -0.6290
 1623SOL    HW1 5447   0.933   1.393   8.104  1.3608  0.1508 -0.2606
 1623SOL    HW2 5448   0.867   1.328   7.984 -0.6339 -0.9388  1.3525
 1624SOL     OW 5449   4.313   2.763   5.964  0.0436  0.6377 -0.2070
 1624SOL    HW1 5450   4.285   2.803   5.882 -0.0445 -0.3895 -0.6925
 1624SOL    HW2 5451   4.324   2.670   5.944  0.4929  0.4430  0.8238
 1625SOL     OW 5452   7.434   7.968   1.081 -0.0849  0.5647  0.0070
 1625SOL    HW1 5453   7.449   7.947   1.173  1.3663  0.2151 -0.2876
 1625SOL    HW2 5454   7.462   7.890   1.034  0.5273  1.2477 -0.8016
 1626SOL     OW 5455   9.935   3.985   2.866  0.3646 -0.3585  0.1560
 1626SOL    HW1 5456   9.873   3.916   2.888  0.0632  0.0980  0.8090
 1626SOL    HW2 5457   9.902   4.022   2.784 -1.1663  0.8994  1.2618
 1627SOL     OW 5458   2.257   2.596   0.847  0.0902  0.1114 -0.2648
 1627SOL    HW1 5459   2.297   2.520   0.806  1.0854  0.5853 -0.1897
 1627SOL    HW2 5460   2.226   2.564   0.932  1.2700 -0.0230  0.1319
 1628SOL     OW 5461   5.130   9.439   5.533 -0.0357  0.4088  0.1286
 1628SOL    HW1 5462   5.213   9.461   5.575  0.2166  1.2995 -0.7989
 1628SOL    HW2 5463   5.146   9.452   5.439 -1.2705  0.7334 -0.0561
 1629SOL     OW 5464   6.296   9.332   4.956  0.1158 -0.3817  0.3382
 1629SOL    HW1 5465   6.379   9.346   5.001  0.9656  2.3891 -1.7872
 1629SOL    HW2 5466   6.231   9.374   5.012  0.9569  1.8450 -0.2547
 1630SOL     OW 5467   9.781   2.058   7.614  0.5612 -0.0301  0.1584
 1630SOL    HW1 5468   9.773   2.153   7.602  1.6292  0.1091  0.4362
 1630SOL    HW2 5469   9.712   2.036   7.677  0.1754  0.5203 -0.0572
 1631SOL     OW 5470   2.392   2.759   6.508  0.2859 -0.0683  0.4595
 1631SOL    HW1 5471   2.307   2.780   6.468  1.0629  0.6381 -0.9336
 1631SOL    HW2 5472   2.403   2.665   6.495  0.0739 -0.0159 -0.1450
 1632SOL     OW 5473   3.476   4.763   2.082  0.2277 -0.1585 -0.0587
 1632SOL    HW1 5474   3.445   4.789   2.168 -1.3264 -0.8205 -0.3977
 1632SOL    HW2 5475   3.540   4.693   2.100 -0.1826 -0.3848  0.5506
 1633SOL     OW 5476   2.236   0.721   9.663 -0.7633 -0.5781 -0.1578
 1633SOL    HW1 5477   2.278   0.684   9.740 -1.4754  1.2315  1.1850
 1633SOL    HW2 5478   2.142   0.718   9.683 -0.9970 -0.5199 -1.1736
 1634SOL     OW 5479   8.360   2.662   4.390 -0.5682 -0.3015 -0.6825
 1634SOL    HW1 5480   8.324   2.582   4.429  1.2280 -0.6469  0.3509
 1634SOL    HW2 5481   8.294   2.688   4.325 -0.6193 -3.3128 -1.9898
 1635SOL     OW 5482   7.023   5.729   7.945 -0.2354 -0.4345  0.8846
 1635SOL    HW1 5483   6.931   5.710   7.962 -0.8935 -0.8067 -2.4511
 1635SOL    HW2 5484   7.022   5.814   7.899  0.8678 -1.1965 -0.6268
 1636SOL     OW 5485   0.716   7.759   6.394 -0.6165 -0.1074 -0.1764
 1636SOL    HW1 5486   0.717   7.731   6.486  0.5247  0.3070 -0.0469
 1636SOL    HW2 5487   0.654   7.700   6.352 -0.6225 -0.7674  0.7163
 1637SOL     OW 5488   2.582   1.673   1.706  0.2195 -0.1515  0.0554
 1637SOL    HW1 5489   2.557   1.764   1.692 -2.2847 -0.9268 -1.1185
 1637SOL    HW2 5490   2.595   1.637   1.618 -1.3725 -1.5257  0.3267
 1638SOL     OW 5491   8.760   9.099   4.394 -0.5630 -0.3554  0.0505
 1638SOL    HW1 5492   8.841   9.147   4.381 -0.3503 -0.6326  0.3269
 1638SOL    HW2 5493   8.699   9.162   4.432 -0.0649 -0.4775  1.0931
 1639SOL     OW 5494   5.170   3.281   6.557  0.2474 -0.1541 -0.5973
 1639SOL    HW1 5495   5.142   3.218   6.622 -1.5553  1.5715  0.4127
 1639SOL    HW2 5496   5.101   3.282   6.491 -0.6232  1.8644  0.2536
 1640SOL     OW 5497   0.058   5.124   3.734 -0.4461  0.5168 -0.9494
 1640SOL    HW1 5498   0.109   5.190   3.781  0.3480 -0.8361  0.1862
 1640SOL    HW2 5499  -0.001   5.174   3.678  0.0107  2.1737 -0.0178
 1641SOL     OW 5500   8.018   1.684   0.692 -0.1344  0.4082 -0.0182
 1641SOL    HW1 5501   7.960   1.619   0.731 -0.0775 -0.6214 -1.5631
 1641SOL    HW2 5502   8.069   1.717   0.766 -0.4220 -1.0396  0.8837
 1642SOL     OW 5503   7.814   5.652   2.891  0.1297 -0.1783 -0.1337
 1642SOL    HW1 5504   7.906   5.678   2.883  0.3406 -0.9323 -0.1548
 1642SOL    HW2 5505   7.816   5.566   2.931 -0.4935 -0.8994 -1.5821
 1643SOL     OW 5506   1.954   3.565   8.734 -0.1812  0.5197 -0.6038
 1643SOL    HW1 5507   1.977   3.477   8.705  0.4106  0.4072  0.1725
 1643SOL    HW2 5508   1.990   3.623   8.667  0.5211  0.2312 -0.4795
 1644SOL     OW 5509   9.427   1.954   3.045 -0.2303  0.2506 -0.6432
 1644SOL    HW1 5510   9.385   1.871   3.068 -1.9978  0.1886 -3.6812
 1644SOL    HW2 5511   9.521   1.933   3.044 -0.4288 -0.9942  1.0514
 1645SOL     OW 5512   8.396   9.174   0.346 -0.0644 -0.0745 -0.0554
 1645SOL    HW1 5513   8.328   9.113   0.315 -0.4551 -0.8536  2.1854
 1645SOL    HW2 5514   8.348   9.243   0.391  0.5714  0.0513  0.4447
 1646SOL     OW 5515   6.062   0.442   2.508  0.3261 -0.1959  0.0747
 1646SOL    HW1 5516   6.017   0.380   2.564 -0.9237 -0.1094 -0.7967
 1646SOL    HW2 5517   6.063   0.524   2.558 -0.6101 -0.1667  0.0580
 1647SOL     OW 5518   6.500   8.337   7.835  0.4184 -0.2968  0.1811
 1647SOL    HW1 5519   6.477   8.248   7.859 -0.6068 -0.1978 -0.3829
 1647SOL    HW2 5520   6.533   8.330   7.745  0.9446 -0.1918  0.3631
 1648SOL     OW 5521   2.245   1.217   2.287  0.0236 -0.2790 -0.2195
 1648SOL    HW1 5522   2.223   1.125   2.304 -1.6230 -0.2353 -1.8444
 1648SOL    HW2 5523   2.261   1.221   2.193  2.2633  0.7269  0.1388
 1649SOL     OW 5524   8.759   5.740   4.692 -0.3610 -0.2842  0.7109
 1649SOL    HW1 5525   8.759   5.675   4.622  1.3411 -0.3483  0.7382
 1649SOL    HW2 5526   8.796   5.819   4.652  1.3389 -0.5486  1.7136
 1650SOL     OW 5527   6.722   6.770   1.854  0.0897  0.0565  0.2948
 1650SOL    HW1 5528   6.683   6.700   1.906  1.2474 -0.8618 -0.0432
 1650SOL    HW2 5529   6.679   6.763   1.769  0.1304 -0.1632  0.2934
 1651SOL     OW 5530   2.891   2.510   9.207 -0.4133  0.6576 -0.1919
 1651SOL    HW1 5531   2.808   2.476   9.173  0.0038  0.6030 -1.1574
 1651SOL    HW2 5532   2.867   2.552   9.290 -1.4168  0.7120 -0.5026
 1652SOL     OW 5533   4.382   9.518   2.409  0.1071 -0.2884  0.1857
 1652SOL    HW1 5534   4.375   9.614   2.414  0.8642 -0.2856  2.4751
 1652SOL    HW2 5535   4.303   9.490   2.363  0.3053  1.4656 -1.3424
 1653SOL     OW 5536   0.738   1.630   7.779 -0.6917  0.1167 -0.5780
 1653SOL    HW1 5537   0.671   1.628   7.848  0.9179  0.8342  1.0803
 1653SOL    HW2 5538   0.781   1.545   7.784  0.3528  0.6659  0.3212
 1654SOL     OW 5539   9.465   0.420   8.464 -0.0321  0.0909 -0.3732
 1654SOL    HW1 5540   9.376   0.387   8.449 -0.1348  0.2763 -0.1734
 1654SOL    HW2 5541   9.521   0.343   8.454 -0.3432 -0.3123  0.8432
 1655SOL     OW 5542   1.750   4.860   3.786  0.3068  0.2283 -0.2017
 1655SOL    HW1 5543   1.659   4.849   3.757 -0.3767 -0.1769  1.9129
 1655SOL    HW2 5544   1.763   4.790   3.850  1.7545  0.9615  0.3394
 1656SOL     OW 5545   1.552   4.199   8.795 -0.0799  0.0925  0.6772
 1656SOL    HW1 5546   1.589   4.232   8.714 -0.0608  2.5476  1.6104
 1656SOL    HW2 5547   1.590   4.111   8.805 -0.0283 -0.2374 -1.8761
 1657SOL     OW 5548   9.401   5.180   9.461 -0.3021 -0.1571  0.0412
 1657SOL    HW1 5549   9.386   5.252   9.523 -1.3344  0.3730 -0.7887
 1657SOL    HW2 5550   9.405   5.223   9.375  1.3757 -0.8465 -0.2631
 1658SOL     OW 5551   6.914   2.843   2.181 -0.3064 -0.4951  0.1559
 1658SOL    HW1 5552   6.968   2.827   2.258  2.1195  0.5227 -1.2302
 1658SOL    HW2 5553   6.865   2.922   2.202  0.6233 -0.0034  0.5382
 1659SOL     OW 5554   2.986   2.828   7.788  0.3786  0.9713 -0.3323
 1659SOL    HW1 5555   2.894   2.805   7.778  0.2440  1.1791  0.4008
 1659SOL    HW2 5556   3.016   2.848   7.699 -0.6371  2.2278 -0.4230
 1660SOL     OW 5557   8.020   6.569   5.814 -0.4713  0.1491 -0.1339
 1660SOL    HW1 5558   8.107   6.530   5.818 -0.7547 -0.3737  2.4681
 1660SOL    HW2 5559   8.002   6.576   5.720  1.1158 -2.5201 -0.7589
 1661SOL     OW 5560   7.033   1.961   5.601 -0.1649  0.5151  0.4033
 1661SOL    HW1 5561   7.019   2.013   5.522 -0.4870 -0.1240  0.0243
 1661SOL    HW2 5562   6.952   1.910   5.611  1.2021 -2.1448 -0.9513
 1662SOL     OW 5563   6.286   6.886   4.035  0.1304 -0.0971  0.6683
 1662SOL    HW1 5564   6.321   6.966   4.075 -2.0684  0.9209  0.7433
 1662SOL    HW2 5565   6.303   6.896   3.942  1.9700 -0.7155  0.8967
 1663SOL     OW 5566   4.098   6.736   7.650 -0.0253 -0.2834 -0.2323
 1663SOL    HW1 5567   4.043   6.796   7.701  0.4769 -0.1687  0.1783
 1663SOL    HW2 5568   4.160   6.701   7.713 -0.5213 -1.4969 -0.3978
 1664SOL     OW 5569   0.793   3.502   9.852  0.0742  0.0853 -0.2624
 1664SOL    HW1 5570   0.741   3.582   9.845  0.4805  0.6070  2.0319
 1664SOL    HW2 5571   0.729   3.431   9.851 -0.4187  0.5261 -0.5586
 1665SOL     OW 5572   1.551   3.499   2.306  0.5693  0.4217  0.1763
 1665SOL    HW1 5573   1.549   3.494   2.401  0.0460  1.7275  0.2501
 1665SOL    HW2 5574   1.636   3.462   2.282  0.1896 -1.0922  1.0442
 1666SOL     OW 5575   3.585   0.685   8.117 -0.2702  0.0609  0.2564
 1666SOL    HW1 5576   3.569   0.668   8.024 -0.0141 -2.9324  0.6551
 1666SOL    HW2 5577   3.678   0.706   8.121 -0.4737  1.1411 -0.2313
 1667SOL     OW 5578   3.347   0.978   3.039 -0.6772  0.2015  0.0340
 1667SOL    HW1 5579   3.406   0.933   3.099 -0.0770 -0.9493 -1.3880
 1667SOL    HW2 5580   3.336   0.919   2.966 -0.5954  1.9832 -1.4954
 1668SOL     OW 5581   7.789   4.816   3.478  0.1908  0.3102  0.4025
 1668SOL    HW1 5582   7.805   4.872   3.403 -1.7764  0.1787 -0.1662
 1668SOL    HW2 5583   7.792   4.874   3.553  0.4780  0.7491  0.0530
 1669SOL     OW 5584   0.463   8.361   5.783 -0.9003  0.4248 -0.1595
 1669SOL    HW1 5585   0.523   8.402   5.845 -0.6265 -0.1217 -0.0584
 1669SOL    HW2 5586   0.507   8.279   5.758 -1.0317  0.6066 -1.0245
 1670SOL     OW 5587   7.060   8.911   5.316 -0.0439 -0.3044 -0.1595
 1670SOL    HW1 5588   7.112   8.888   5.239  3.7065  0.7255  1.7989
 1670SOL    HW2 5589   7.066   8.834   5.373  1.1139  0.5031  0.8769
 1671SOL     OW 5590   6.495   6.395   1.149  0.7038  0.0107  1.0755
 1671SOL    HW1 5591   6.577   6.365   1.110 -0.6808 -1.4796 -1.0000
 1671SOL    HW2 5592   6.463   6.462   1.089 -0.4841 -0.8224  0.7300
 1672SOL     OW 5593   4.323   2.554   4.814  0.3264  0.0752  0.0820
 1672SOL    HW1 5594   4.390   2.524   4.876 -1.1131 -1.5186  0.9605
 1672SOL    HW2 5595   4.301   2.642   4.842 -0.2482 -0.5937  1.8613
 1673SOL     OW 5596   3.486   2.624   8.248 -0.3452 -0.1879  0.1183
 1673SOL    HW1 5597   3.574   2.632   8.211 -1.3430 -2.3529 -3.0172
 1673SOL    HW2 5598   3.497   2.564   8.322  0.9212  0.4217  0.4707
 1674SOL     OW 5599   5.685   9.656   6.957 -0.0815 -0.6475  0.2004
 1674SOL    HW1 5600   5.642   9.596   7.017 -1.4794 -0.7994 -0.8927
 1674SOL    HW2 5601   5.769   9.675   6.998 -0.9065 -0.8545  2.1144
 1675SOL     OW 5602   4.443   5.319   5.268 -0.0641  0.0635 -0.3883
 1675SOL    HW1 5603   4.432   5.224   5.270 -0.9190  0.1244 -1.1909
 1675SOL    HW2 5604   4.481   5.337   5.182 -1.6030  0.5719 -0.9989
 1676SOL     OW 5605   0.555   3.456   1.925 -0.2380  0.2801 -0.8207
 1676SOL    HW1 5606   0.598   3.387   1.874 -0.9125  0.4486 -1.6322
 1676SOL    HW2 5607   0.468   3.464   1.885 -0.4273  1.0810 -0.2504
 1677SOL     OW 5608   7.919   1.529   2.513 -0.3348 -0.5027 -0.0823
 1677SOL    HW1 5609   7.956   1.550   2.428  1.0671 -1.1054  0.3432
 1677SOL    HW2 5610   7.867   1.450   2.498 -0.3417 -0.4272 -0.4540
 1678SOL     OW 5611   1.773   7.477   6.188  0.2471 -1.0692  0.1185
 1678SOL    HW1 5612   1.710   7.457   6.257 -0.6287  1.0008 -0.0296
 1678SOL    HW2 5613   1.834   7.539   6.228  1.2852 -1.8369 -0.2231
 1679SOL     OW 5614   5.719   1.883   2.734 -0.4752 -0.2597 -0.1811
 1679SOL    HW1 5615   5.635   1.876   2.778 -0.0818 -0.6540  0.5197
 1679SOL    HW2 5616   5.784   1.858   2.800  0.3079  1.3106 -0.3059
 1680SOL     OW 5617   1.855   5.801   5.196  0.4781 -0.3357  0.1120
 1680SOL    HW1 5618   1.945   5.810   5.165  0.0031 -0.8654 -1.5168
 1680SOL    HW2 5619   1.863   5.753   5.278  1.7677  0.8538  0.7327
 1681SOL     OW 5620   4.597   4.458   8.673  0.0578 -0.0834  0.0771
 1681SOL    HW1 5621   4.575   4.462   8.580 -1.8208  0.0515  0.4912
 1681SOL    HW2 5622   4.687   4.491   8.678 -0.4914  1.8272 -1.4600
 1682SOL     OW 5623   8.041   4.161   6.711 -0.3659  0.2539 -0.0139
 1682SOL    HW1 5624   8.036   4.116   6.795  1.7446 -1.0166 -0.4844
 1682SOL    HW2 5625   7.994   4.103   6.651  0.4157 -0.2136 -0.1896
 1683SOL     OW 5626   2.198   7.423   9.670  0.0292  0.0556 -0.3910
 1683SOL    HW1 5627   2.291   7.414   9.691  0.3254  0.6116 -1.3845
 1683SOL    HW2 5628   2.190   7.389   9.581 -0.3933  1.4954 -0.9436
 1684SOL     OW 5629   7.318   4.084   6.925  0.2847 -0.4399  0.5899
 1684SOL    HW1 5630   7.326   4.003   6.975 -1.7000 -1.1206 -0.1143
 1684SOL    HW2 5631   7.267   4.060   6.847  0.7998  1.2060 -0.3150
 1685SOL     OW 5632   2.672   1.023   2.313  0.1244 -0.1266 -0.2506
 1685SOL    HW1 5633   2.731   1.068   2.252  0.7162 -0.5571  0.0052
 1685SOL    HW2 5634   2.590   1.073   2.307  0.3653  0.2038 -0.9422
 1686SOL     OW 5635   3.136   1.729   2.166  0.1184 -0.2099 -0.6322
 1686SOL    HW1 5636   3.058   1.773   2.134  0.3311  0.4539 -0.2513
 1686SOL    HW2 5637   3.157   1.774   2.248  0.2990 -1.0630 -0.2008
 1687SOL     OW 5638   7.755   3.511   0.682 -0.8179  0.6960 -0.5653
 1687SOL    HW1 5639   7.671   3.508   0.728 -0.4737  0.3179  0.0483
 1687SOL    HW2 5640   7.812   3.561   0.740 -0.2866 -0.0768 -0.4052
 1688SOL     OW 5641   5.644   0.922   4.686  0.3925  0.4679 -0.5743
 1688SOL    HW1 5642   5.675   0.935   4.596  0.7728  1.4412 -0.3166
 1688SOL    HW2 5643   5.703   0.856   4.723  0.6217  0.5152 -0.8529
 1689SOL     OW 5644   3.097   7.626   0.589 -0.1206 -0.2655  0.1884
 1689SOL    HW1 5645   3.068   7.563   0.656 -2.8414 -0.4325 -1.0130
 1689SOL    HW2 5646   3.043   7.703   0.604 -0.3467 -0.0797 -1.4141
 1690SOL     OW 5647   7.886   6.607   6.988  0.1627 -0.0388  0.0760
 1690SOL    HW1 5648   7.829   6.542   7.029 -0.3880  0.3067 -0.1282
 1690SOL    HW2 5649   7.870   6.597   6.894  0.6338 -0.1127  0.0005
 1691SOL     OW 5650   2.802   4.145   2.584 -0.0324  0.5528  0.2835
 1691SOL    HW1 5651   2.864   4.123   2.653 -0.3246 -0.6363  0.1900
 1691SOL    HW2 5652   2.736   4.198   2.628 -1.4692 -2.0550  1.5445
 1692SOL     OW 5653   6.310   9.410   6.720 -0.1048  0.0117 -0.0143
 1692SOL    HW1 5654   6.297   9.504   6.728 -0.1676 -0.0264  0.3431
 1692SOL    HW2 5655   6.325   9.396   6.627  0.1336  0.4026 -0.0366
 1693SOL     OW 5656   7.173   3.090   6.181  0.7673  0.5292 -0.2343
 1693SOL    HW1 5657   7.082   3.061   6.182  0.9917 -0.1963 -0.2994
 1693SOL    HW2 5658   7.171   3.173   6.134  0.2713  0.0488 -1.0934
 1694SOL     OW 5659   7.379   9.924   5.310  0.4813  0.1394  0.0285
 1694SOL    HW1 5660   7.359   9.830   5.312 -0.4410  0.2979 -0.7310
 1694SOL    HW2 5661   7.451   9.935   5.372  0.7943 -1.1145 -0.0786
 1695SOL     OW 5662   8.309   4.159   8.533 -0.1828 -0.7607  0.4743
 1695SOL    HW1 5663   8.376   4.201   8.479  0.6020 -0.7076  1.4564
 1695SOL    HW2 5664   8.236   4.221   8.534  0.3512 -0.1200  0.6297
 1696SOL     OW 5665   4.296   9.565   4.152 -0.1795  0.5845 -0.3643
 1696SOL    HW1 5666   4.223   9.586   4.211 -1.0321 -3.7860  0.5143
 1696SOL    HW2 5667   4.263   9.585   4.065 -2.4898 -1.0215  0.0387
 1697SOL     OW 5668   2.069   2.289   9.099 -0.3821  0.2590  0.1746
 1697SOL    HW1 5669   2.108   2.203   9.113 -1.3452 -0.2250 -0.0388
 1697SOL    HW2 5670   2.002   2.275   9.033  0.0362  1.3585 -0.5157
 1698SOL     OW 5671   6.001   5.215   2.283  0.0083 -0.1146 -0.4781
 1698SOL    HW1 5672   5.933   5.260   2.334  0.5451 -1.3963  1.4496
 1698SOL    HW2 5673   6.083   5.253   2.314  0.3374 -0.7466 -0.5688
 1699SOL     OW 5674   9.593   9.417   1.445 -0.0939  0.1482  0.5343
 1699SOL    HW1 5675   9.597   9.352   1.375 -1.3619  0.4491  0.1537
 1699SOL    HW2 5676   9.650   9.488   1.416 -0.8556  0.4111 -0.3611
 1700SOL     OW 5677   1.840   9.715   6.695  0.0667 -0.6012  0.2429
 1700SOL    HW1 5678   1.869   9.778   6.761 -0.4921  1.4337 -1.3483
 1700SOL    HW2 5679   1.891   9.736   6.618 -1.4487 -0.8548 -0.8740
 1701SOL     OW 5680   3.296   1.058   1.174  0.2524 -0.0505  0.5698
 1701SOL    HW1 5681   3.204   1.075   1.191  0.1178  0.9857 -0.9733
 1701SOL    HW2 5682   3.297   1.015   1.089  1.0967 -1.8906  1.4399
 1702SOL     OW 5683   5.719   7.632   6.810 -0.0178  0.1518 -0.0165
 1702SOL    HW1 5684   5.764   7.644   6.893 -0.3661 -0.5672  0.2883
 1702SOL    HW2 5685   5.626   7.641   6.832 -0.1019  0.1591 -0.3647
 1703SOL     OW 5686   8.852   4.038   3.113 -0.6402  0.0310 -0.3353
 1703SOL    HW1 5687   8.766   4.037   3.155 -0.2995 -2.1471  0.4187
 1703SOL    HW2 5688   8.908   3.986   3.171  1.2010  1.3385 -0.8302
 1704SOL     OW 5689   8.088   0.729   5.202 -0.0424  0.6462 -0.2100
 1704SOL    HW1 5690   8.104   0.645   5.159  0.9539  1.0225 -0.6056
 1704SOL    HW2 5691   8.003   0.758   5.168  0.1001  0.2923 -0.8910
 1705SOL     OW 5692   2.356   6.899   2.677  0.2106  0.3661  0.2753
 1705SOL    HW1 5693   2.431   6.839   2.678  1.3164  1.6885  0.0103
 1705SOL    HW2 5694   2.289   6.853   2.626  0.6484 -1.0550  0.9441
 1706SOL     OW 5695   4.739   9.439   5.356  0.1534 -0.0557  0.7673
 1706SOL    HW1 5696   4.678   9.403   5.420  0.1285 -1.7968 -0.1555
 1706SOL    HW2 5697   4.686   9.497   5.301 -0.5562 -1.0146  0.3991
 1707SOL     OW 5698   9.189   6.963   5.226  0.0960  0.1056  0.0225
 1707SOL    HW1 5699   9.257   7.030   5.218 -0.6667  0.7508 -1.5438
 1707SOL    HW2 5700   9.237   6.880   5.226  0.8674  0.4763 -2.3993
 1708SOL     OW 5701   1.209   7.791   7.613 -0.4098 -0.1982  0.1906
 1708SOL    HW1 5702   1.212   7.875   7.567 -0.6654 -0.6893 -0.7512
 1708SOL    HW2 5703   1.266   7.803   7.689  1.0009  0.2692 -0.8993
 1709SOL     OW 5704   9.467   9.708   8.512  0.6380  0.1040  0.3830
 1709SOL    HW1 5705   9.454   9.777   8.577 -0.1955  2.6188 -2.2636
 1709SOL    HW2 5706   9.439   9.747   8.429  0.8557 -3.1954 -1.4115
 1710SOL     OW 5707   3.842   2.837   5.195  0.1301  0.1658  0.1044
 1710SOL    HW1 5708   3.832   2.747   5.164 -1.0098  0.0599  0.7280
 1710SOL    HW2 5709   3.783   2.889   5.141  1.7560  0.7855 -1.1478
 1711SOL     OW 5710   4.013   0.650   6.963 -0.5285 -0.0958 -0.4758
 1711SOL    HW1 5711   4.011   0.717   6.894 -1.3208  0.2518 -0.1251
 1711SOL    HW2 5712   4.068   0.581   6.927  0.3030  0.7372 -0.8430
 1712SOL     OW 5713   2.362   3.088   0.772 -0.2260 -0.2361  0.1523
 1712SOL    HW1 5714   2.417   3.134   0.708 -1.7983  1.1114 -0.3234
 1712SOL    HW2 5715   2.280   3.073   0.725 -0.5583 -1.4450  1.0938
 1713SOL     OW 5716   9.120   2.286   7.790  0.1968  0.0852 -0.3091
 1713SOL    HW1 5717   9.033   2.294   7.752 -0.0513  2.3292  0.5381
 1713SOL    HW2 5718   9.160   2.212   7.745 -1.5393  0.0499 -1.9047
 1714SOL     OW 5719   9.835   1.292   1.893 -0.0298 -0.1521 -0.7731
 1714SOL    HW1 5720   9.745   1.324   1.893  0.2531  0.6613 -1.3524
 1714SOL    HW2 5721   9.876   1.336   1.967  0.7938  2.1753 -2.4852
 1715SOL     OW 5722   0.025   6.180   1.435  0.4117 -0.5632 -0.2739
 1715SOL    HW1 5723   0.115   6.156   1.458  0.8215  0.0994 -1.1379
 1715SOL    HW2 5724  -0.003   6.237   1.506  0.5983 -0.9238  0.1000
 1716SOL     OW 5725   6.754   5.632   7.156 -0.4457 -0.5624 -0.7561
 1716SOL    HW1 5726   6.659   5.619   7.166 -0.6258  1.1289  0.0648
 1716SOL    HW2 5727   6.775   5.704   7.215  1.7955 -2.3538  0.8358
 1717SOL     OW 5728   0.980   2.839   0.954  0.3050  0.2177  0.2449
 1717SOL    HW1 5729   1.007   2.928   0.929 -0.8545  0.4330 -0.3471
 1717SOL    HW2 5730   0.966   2.795   0.870  0.4266 -0.3808  0.5391
 1718SOL     OW 5731   7.595   2.023   8.523  0.0614  0.0197  0.4698
 1718SOL    HW1 5732   7.566   2.103   8.566 -1.2680 -0.2427  0.1056
 1718SOL    HW2 5733   7.519   1.966   8.525  1.2511 -1.6297  1.5972
 1719SOL     OW 5734   3.552   9.424   6.466 -0.1089 -0.0767  0.5254
 1719SOL    HW1 5735   3.521   9.350   6.414  0.3580 -0.4031  0.7034
 1719SOL    HW2 5736   3.621   9.463   6.413  0.3054 -0.3555  0.8469
 1720SOL     OW 5737   8.194   4.920   1.185 -0.0410 -0.1327  0.0129
 1720SOL    HW1 5738   8.206   4.831   1.219 -0.9298 -0.2844 -0.0244
 1720SOL    HW2 5739   8.216   4.912   1.092  1.0025 -0.0451  0.2498
 1721SOL     OW 5740   2.975   9.528   7.925 -0.7058 -0.1245  0.1887
 1721SOL    HW1 5741   3.060   9.484   7.919 -1.0668 -0.6834 -1.1972
 1721SOL    HW2 5742   2.995   9.621   7.914 -0.2798 -0.2611 -0.2262
 1722SOL     OW 5743   1.027   4.602   7.217 -0.8420 -0.5127  0.1273
 1722SOL    HW1 5744   0.952   4.652   7.184 -0.5387 -1.3772 -2.0341
 1722SOL    HW2 5745   0.990   4.542   7.281 -2.1634 -1.3552 -1.3450
 1723SOL     OW 5746   9.905   4.254   2.068  0.2640 -0.5401 -0.0859
 1723SOL    HW1 5747   9.966   4.186   2.099  0.5281  0.2655  1.2646
 1723SOL    HW2 5748   9.961   4.326   2.040  0.0015 -1.0400 -2.0412
 1724SOL     OW 5749   3.139   3.574   6.424 -0.6933 -0.4139 -0.5178
 1724SOL    HW1 5750   3.225   3.613   6.409 -1.1733  0.2727 -1.6537
 1724SOL    HW2 5751   3.085   3.645   6.457 -0.7375 -0.9374  0.5783
 1725SOL     OW 5752   8.061   3.551   1.525  0.5589 -0.6495 -0.5397
 1725SOL    HW1 5753   8.036   3.620   1.587  3.5292  0.3664 -0.3207
 1725SOL    HW2 5754   7.990   3.551   1.460  0.2492  2.3610 -0.3402
 1726SOL     OW 5755   9.827   0.216   3.416 -0.2960  0.4599  0.5028
 1726SOL    HW1 5756   9.759   0.209   3.348 -1.1688 -0.0734  1.3998
 1726SOL    HW2 5757   9.783   0.261   3.488  0.4897  0.6269  0.8815
 1727SOL     OW 5758   0.847   9.663   3.477 -0.0752 -0.5196 -0.3457
 1727SOL    HW1 5759   0.885   9.742   3.514  0.9109 -0.7764 -0.7715
 1727SOL    HW2 5760   0.891   9.591   3.523  0.3778 -0.8274 -1.2266
 1728SOL     OW 5761   6.007   8.930   9.646 -0.0406  0.0793 -0.3316
 1728SOL    HW1 5762   5.981   8.844   9.614 -1.8967  0.8761 -1.1660
 1728SOL    HW2 5763   5.987   8.928   9.739 -0.4084 -0.2988 -0.4142
 1729SOL     OW 5764   7.519   3.123   4.419 -0.3382  0.6695  0.5272
 1729SOL    HW1 5765   7.606   3.083   4.420 -1.1064 -1.0811  1.2805
 1729SOL    HW2 5766   7.471   3.075   4.351 -1.6149 -0.5204  2.1932
 1730SOL     OW 5767   2.395   8.374   1.257  0.5454 -0.2935 -0.4199
 1730SOL    HW1 5768   2.460   8.305   1.246  0.1037 -1.1831  1.9956
 1730SOL    HW2 5769   2.348   8.375   1.174  1.3924 -2.0316 -0.9765
 1731SOL     OW 5770   0.450   6.414   0.617  0.1255  0.8940 -0.6560
 1731SOL    HW1 5771   0.360   6.380   0.616  0.7967 -1.1823  1.3149
 1731SOL    HW2 5772   0.439   6.509   0.623 -1.9898  0.6389  0.5184
 1732SOL     OW 5773   9.150   9.317   2.130 -0.0111 -0.0865 -0.5021
 1732SOL    HW1 5774   9.127   9.278   2.214  0.3116  1.5272  0.3890
 1732SOL    HW2 5775   9.222   9.377   2.151 -0.5616  1.0557 -1.7539
 1733SOL     OW 5776   3.598   9.766   5.273 -0.0408  0.3936  0.3193
 1733SOL    HW1 5777   3.680   9.726   5.302  0.8692  1.7811 -0.2236
 1733SOL    HW2 5778   3.618   9.802   5.187 -0.9292  1.6134  0.5950
 1734SOL     OW 5779   5.268   3.688   5.700  0.3009 -0.3402  0.2206
 1734SOL    HW1 5780   5.315   3.704   5.618 -0.1929 -0.0539 -0.0066
 1734SOL    HW2 5781   5.296   3.758   5.759  2.0131 -1.5207  0.9021
 1735SOL     OW 5782   9.700   7.177   8.896  0.4853 -0.5597 -0.9120
 1735SOL    HW1 5783   9.701   7.271   8.916 -0.5869 -0.9077  1.0228
 1735SOL    HW2 5784   9.745   7.136   8.969  2.3622 -1.5049 -2.4917
 1736SOL     OW 5785   5.706   3.428   8.245  0.5263 -0.3174 -0.2870
 1736SOL    HW1 5786   5.653   3.483   8.187 -0.5474 -0.8585  0.1465
 1736SOL    HW2 5787   5.716   3.481   8.324  0.0796 -0.4625 -0.1296
 1737SOL     OW 5788   9.705   9.154   7.579 -0.3793 -0.5172  0.2369
 1737SOL    HW1 5789   9.681   9.187   7.493  0.3108 -0.7698 -0.0570
 1737SOL    HW2 5790   9.651   9.205   7.640  0.2464  0.7662 -0.2446
 1738SOL     OW 5791   9.159   2.331   8.349  0.2897 -0.4879 -0.0468
 1738SOL    HW1 5792   9.224   2.400   8.359  0.0770 -0.2681 -0.1769
 1738SOL    HW2 5793   9.205   2.251   8.375  0.1595 -0.1264  1.3591
 1739SOL     OW 5794   0.438   4.448   5.943 -0.4353  0.3488  0.1061
 1739SOL    HW1 5795   0.435   4.544   5.944 -2.3310  0.3156  0.7961
 1739SOL    HW2 5796   0.528   4.427   5.965  0.8848  1.9789 -3.0513
 1740SOL     OW 5797   1.567   3.203   9.376 -0.3980  0.0959  0.4984
 1740SOL    HW1 5798   1.563   3.270   9.307 -1.0598 -1.0705 -0.6319
 1740SOL    HW2 5799   1.657   3.173   9.375 -0.2923  0.4061  0.4724
 1741SOL     OW 5800   4.288   4.349   5.647 -0.4301 -0.4411 -0.3993
 1741SOL    HW1 5801   4.369   4.366   5.598  0.2218 -1.6640  0.2082
 1741SOL    HW2 5802   4.313   4.285   5.714 -1.4499  0.6207  1.0776
 1742SOL     OW 5803   6.191   6.896   8.471  0.5962  0.0426 -0.2106
 1742SOL    HW1 5804   6.208   6.957   8.400  1.7153  0.6649  0.5753
 1742SOL    HW2 5805   6.203   6.947   8.550 -1.6020 -0.3747  0.4607
 1743SOL     OW 5806   5.626   8.086   7.026  0.5676  0.2211 -0.3018
 1743SOL    HW1 5807   5.600   8.010   7.078  0.0467  1.3076  1.0816
 1743SOL    HW2 5808   5.614   8.058   6.935  0.5885 -1.4095  0.1640
 1744SOL     OW 5809   2.838   9.542   3.604 -0.1759  0.1488  0.1265
 1744SOL    HW1 5810   2.820   9.617   3.661 -1.6008  0.0994 -0.2422
 1744SOL    HW2 5811   2.826   9.576   3.515  0.5464 -0.1658 -0.0982
 1745SOL     OW 5812   4.782   8.581   4.590 -0.0184 -0.2734 -0.1483
 1745SOL    HW1 5813   4.855   8.523   4.566  1.9612  0.7657  2.7838
 1745SOL    HW2 5814   4.809   8.667   4.559 -0.0427  0.0898  0.8184
 1746SOL     OW 5815   1.867   0.439   0.322  0.0318  0.0930  0.7352
 1746SOL    HW1 5816   1.932   0.492   0.367  1.8626 -2.7566  1.7060
 1746SOL    HW2 5817   1.790   0.441   0.379  0.7876  0.0925  1.7737
 1747SOL     OW 5818   1.238   8.949   7.947 -0.5982  0.0841 -0.7344
 1747SOL    HW1 5819   1.280   9.016   7.892 -1.7693  0.7421 -0.8605
 1747SOL    HW2 5820   1.222   8.876   7.886  0.5305 -0.2648 -0.6347
 1748SOL     OW 5821   2.104   2.904   0.187 -0.0400 -0.1713  0.0884
 1748SOL    HW1 5822   2.101   2.983   0.133  0.6835  1.6829  2.5687
 1748SOL    HW2 5823   2.136   2.934   0.272 -0.0663 -3.1065  1.2631
 1749SOL     OW 5824   0.124   1.228   8.798 -0.1119  0.2625 -0.0050
 1749SOL    HW1 5825   0.080   1.143   8.805  0.1389  0.0773 -0.6145
 1749SOL    HW2 5826   0.084   1.269   8.721  0.7538  0.0997 -0.5550
 1750SOL     OW 5827   2.725   7.940   7.891 -0.0478 -0.5889 -0.0846
 1750SOL    HW1 5828   2.673   7.921   7.969 -1.5679  2.9007 -0.0356
 1750SOL    HW2 5829   2.666   7.927   7.818 -0.5567  1.6001 -0.1534
 1751SOL     OW 5830   4.515   6.573   9.804  0.0434  0.3081  0.1968
 1751SOL    HW1 5831   4.511   6.491   9.854 -0.1156  0.0985 -0.1559
 1751SOL    HW2 5832   4.529   6.640   9.871  1.1955 -0.1070  0.3852
 1752SOL     OW 5833   3.523   5.938   2.157  0.1113  0.7584  0.0051
 1752SOL    HW1 5834   3.560   5.850   2.146 -0.3691  0.4193  1.0002
 1752SOL    HW2 5835   3.570   5.992   2.094  0.0175 -0.3338 -1.0371
 1753SOL     OW 5836   3.054   7.226   1.104  0.1234  0.2217 -0.1428
 1753SOL    HW1 5837   3.131   7.278   1.082  0.3337  0.1475  0.3942
 1753SOL    HW2 5838   3.040   7.170   1.028 -0.0648  1.0046 -0.7035
 1754SOL     OW 5839   8.273   4.988   6.865 -0.0117 -0.6539  0.0880
 1754SOL    HW1 5840   8.309   5.047   6.798 -0.7229 -1.7055 -1.2665
 1754SOL    HW2 5841   8.289   4.900   6.831 -1.3460 -1.1976  0.7937
 1755SOL     OW 5842   5.643   7.054   4.559 -0.0178  0.7798 -0.4643
 1755SOL    HW1 5843   5.594   6.979   4.525 -0.9502  0.8518  0.6482
 1755SOL    HW2 5844   5.632   7.122   4.492 -1.0433  0.6271 -0.4751
 1756SOL     OW 5845   9.341   8.763   5.156 -0.0791 -0.0194  0.1463
 1756SOL    HW1 5846   9.319   8.671   5.142  0.9103 -0.0658 -1.3173
 1756SOL    HW2 5847   9.257   8.805   5.175 -1.0133 -0.7265 -2.0715
 1757SOL     OW 5848   4.377   6.900   6.147 -0.0181  0.7725  0.2012
 1757SOL    HW1 5849   4.402   6.888   6.239 -0.6390 -0.3653  0.2362
 1757SOL    HW2 5850   4.362   6.811   6.114  0.2712  1.1506 -1.0326
 1758SOL     OW 5851   2.717   3.659   9.309  0.1312 -0.6248 -0.8116
 1758SOL    HW1 5852   2.708   3.736   9.252 -1.6511 -0.6991 -0.7072
 1758SOL    HW2 5853   2.809   3.658   9.335 -0.1267  2.4688  0.5737
 1759SOL     OW 5854   9.530   5.723   0.772 -0.1212 -0.4012  0.1790
 1759SOL    HW1 5855   9.494   5.666   0.704 -0.6971 -0.0302  0.1641
 1759SOL    HW2 5856   9.624   5.717   0.761 -0.2102  0.6116 -1.4804
 1760SOL     OW 5857   0.828   9.207   8.801  0.2228 -0.3939  0.2455
 1760SOL    HW1 5858   0.843   9.296   8.771  0.8312 -0.3751  0.5960
 1760SOL    HW2 5859   0.857   9.207   8.892 -1.8746 -0.3705  0.9559
 1761SOL     OW 5860   4.983   7.899   8.737  0.0742  0.1597  0.6702
 1761SOL    HW1 5861   4.928   7.907   8.815 -2.1506 -0.6039 -0.7268
 1761SOL    HW2 5862   4.973   7.982   8.692  1.3265  0.5829  1.1316
 1762SOL     OW 5863   9.254   5.717   2.426  0.1578 -0.1606  0.5944
 1762SOL    HW1 5864   9.267   5.715   2.331  0.1994  0.3403  0.5885
 1762SOL    HW2 5865   9.189   5.649   2.442  0.5277 -0.6042  0.2708
 1763SOL     OW 5866   5.176   7.771   4.365 -0.4103  0.5233 -0.7908
 1763SOL    HW1 5867   5.202   7.687   4.326 -0.3332  0.3600 -0.3854
 1763SOL    HW2 5868   5.258   7.818   4.377 -0.1728 -0.3152  1.2519
 1764SOL     OW 5869   7.201   3.942   9.673 -0.1962 -0.4437 -0.1070
 1764SOL    HW1 5870   7.229   3.851   9.666  1.8252  0.2535 -2.1919
 1764SOL    HW2 5871   7.106   3.937   9.686 -0.2029 -2.8279 -0.6797
 1765SOL     OW 5872   2.740   2.313   7.682 -0.0202  0.4645  0.3186
 1765SOL    HW1 5873   2.736   2.304   7.778  1.7296  1.1234  0.5048
 1765SOL    HW2 5874   2.767   2.404   7.668 -2.0036  0.9108 -0.8948
 1766SOL     OW 5875   4.426   4.252   2.185  0.1204  0.3992 -0.3604
 1766SOL    HW1 5876   4.509   4.207   2.204  0.0242  0.2150 -0.3683
 1766SOL    HW2 5877   4.449   4.319   2.120  0.4540  1.0533  0.4250
 1767SOL     OW 5878   3.291   2.037   1.963 -0.4122  0.3878 -0.4584
 1767SOL    HW1 5879   3.351   2.109   1.979  0.1963  0.0171 -1.0554
 1767SOL    HW2 5880   3.216   2.056   2.021 -0.0241  1.1934 -0.1977
 1768SOL     OW 5881   6.491   1.222   2.917  0.1081  0.7733  0.7317
 1768SOL    HW1 5882   6.537   1.304   2.935 -0.2067  0.5752  2.7179
 1768SOL    HW2 5883   6.510   1.167   2.993 -0.1940 -0.7758 -0.2685
 1769SOL     OW 5884   1.219   5.282   9.222 -0.5548 -0.4226 -0.1800
 1769SOL    HW1 5885   1.222   5.370   9.185  1.0044 -0.5153 -0.3478
 1769SOL    HW2 5886   1.132   5.249   9.200 -1.9004  1.7362  1.4816
 1770SOL     OW 5887   3.256   7.087   8.870 -0.0605  0.2285  0.2108
 1770SOL    HW1 5888   3.335   7.068   8.920  0.3930 -0.4062 -0.7135
 1770SOL    HW2 5889   3.250   7.182   8.868  1.0056  0.2977 -0.1933
 1771SOL     OW 5890   7.379   0.388   4.051  0.5394 -0.1689  0.0382
 1771SOL    HW1 5891   7.371   0.321   3.983  3.6833  0.9437 -1.6157
 1771SOL    HW2 5892   7.302   0.443   4.038  0.6210 -0.4467 -2.1771
 1772SOL     OW 5893   5.845   7.511   1.412  0.6424  0.0048 -0.3692
 1772SOL    HW1 5894   5.833   7.599   1.448  0.5276 -0.6936  1.4363
 1772SOL    HW2 5895   5.832   7.520   1.318 -3.9991  1.1526  0.1464
 1773SOL     OW 5896   7.635   9.363   0.460 -0.1839  0.0844 -0.9448
 1773SOL    HW1 5897   7.647   9.370   0.555 -0.6097 -1.1704 -0.7840
 1773SOL    HW2 5898   7.610   9.451   0.433 -0.6309  0.3252  0.1845
 1774SOL     OW 5899   6.360   3.897   5.534  0.9385  0.3703 -0.2479
 1774SOL    HW1 5900   6.333   3.833   5.600  1.9725 -0.2007 -0.3477
 1774SOL    HW2 5901   6.284   3.906   5.476 -0.6937  2.2542  1.9806
 1775SOL     OW 5902   8.421   4.291   0.397 -0.3393  0.2523 -0.1122
 1775SOL    HW1 5903   8.510   4.302   0.431 -0.5859  0.0564  0.6190
 1775SOL    HW2 5904   8.375   4.243   0.466 -1.2867  1.2176 -0.0512
 1776SOL     OW 5905   4.632   1.715   6.784  0.3765  0.2536  0.1259
 1776SOL    HW1 5906   4.708   1.772   6.795  0.2512  0.7710 -1.4220
 1776SOL    HW2 5907   4.639   1.683   6.694  0.6522 -2.5308  1.0309
 1777SOL     OW 5908   8.593   5.588   7.433 -0.2301  0.0979  0.5142
 1777SOL    HW1 5909   8.638   5.595   7.517 -1.8381  1.1179  1.3279
 1777SOL    HW2 5910   8.591   5.678   7.400 -0.2985 -0.1801 -0.2609
 1778SOL     OW 5911   5.704   0.071   9.922 -0.4590  0.0876 -0.3309
 1778SOL    HW1 5912   5.698   0.164   9.944 -0.1387 -0.0017  0.1628
 1778SOL    HW2 5913   5.627   0.032   9.963  1.3542 -0.4902  2.9588
 1779SOL     OW 5914   3.648   6.302   1.357 -0.2036 -0.7224 -0.6151
 1779SOL    HW1 5915   3.595   6.227   1.384 -0.1760  0.0664  1.9063
 1779SOL    HW2 5916   3.584   6.373   1.342 -0.0376 -0.4031  0.1470
 1780SOL     OW 5917   3.434   8.635   4.840  0.8539 -0.2985 -0.6299
 1780SOL    HW1 5918   3.452   8.543   4.855  0.4381 -0.3111 -0.1845
 1780SOL    HW2 5919   3.391   8.637   4.754 -0.2076 -0.6620 -0.1281
 1781SOL     OW 5920   3.160   5.949   4.401  0.3837 -0.3155  0.2089
 1781SOL    HW1 5921   3.138   5.903   4.481  0.6888 -0.0273  0.4604
 1781SOL    HW2 5922   3.103   5.910   4.334  0.5850 -1.0047  0.4304
 1782SOL     OW 5923   6.020   9.874   1.034  0.3006 -0.0850 -0.1108
 1782SOL    HW1 5924   5.981   9.828   0.959  0.3487  0.9346 -0.7832
 1782SOL    HW2 5925   5.948   9.886   1.095  0.2507 -0.8917 -0.0051
 1783SOL     OW 5926   7.457   2.040   2.858 -0.5351  0.7092 -0.1663
 1783SOL    HW1 5927   7.440   1.986   2.782  1.0074  0.1090 -0.1176
 1783SOL    HW2 5928   7.535   2.090   2.836  0.7090 -0.4133  1.4636
 1784SOL     OW 5929   8.731   2.038   9.136  0.4007 -0.3963 -0.0580
 1784SOL    HW1 5930   8.690   2.120   9.163  1.5168 -0.1703  0.9889
 1784SOL    HW2 5931   8.751   1.992   9.218  3.1043 -0.0705 -0.4445
 1785SOL     OW 5932   7.887   7.306   1.519  0.4905 -0.0298 -0.7281
 1785SOL    HW1 5933   7.947   7.306   1.444  0.7462  0.1926 -0.5286
 1785SOL    HW2 5934   7.943   7.325   1.594  0.1666  0.1878 -0.5380
 1786SOL     OW 5935   4.057   3.955   2.450 -0.3077 -0.0363  0.3138
 1786SOL    HW1 5936   3.967   3.970   2.422 -0.5380 -1.0215  0.4879
 1786SOL    HW2 5937   4.052   3.880   2.509  0.3604  1.0471  1.8286
 1787SOL     OW 5938   2.818   6.353   4.492  0.0285  0.1631 -0.2244
 1787SOL    HW1 5939   2.872   6.289   4.537  0.6625  0.8957  0.0686
 1787SOL    HW2 5940   2.799   6.313   4.407  0.5472 -0.3475 -0.1020
 1788SOL     OW 5941   9.834   0.904   4.082 -0.0393 -0.0438 -0.0162
 1788SOL    HW1 5942   9.902   0.901   4.015 -1.6681 -0.8037 -1.7149
 1788SOL    HW2 5943   9.878   0.875   4.162  2.2587  2.0303 -0.3911
 1789SOL     OW 5944   9.359   8.260   2.304  0.3215  0.1686  0.1100
 1789SOL    HW1 5945   9.266   8.240   2.316  1.1400 -3.8800  1.1362
 1789SOL    HW2 5946   9.387   8.297   2.388  0.0408 -0.4653  0.4827
 1790SOL     OW 5947   5.322   7.385   7.774  0.4809  0.9387 -0.7563
 1790SOL    HW1 5948   5.395   7.362   7.716 -0.0802  1.0309 -1.5129
 1790SOL    HW2 5949   5.292   7.301   7.809  0.4490  0.8267 -1.0539
 1791SOL     OW 5950   7.760   1.985   3.526  0.0309  0.1000  0.0377
 1791SOL    HW1 5951   7.792   2.054   3.468  0.5460 -0.1250  0.0486
 1791SOL    HW2 5952   7.839   1.939   3.554 -0.3439 -0.8668 -0.4418
 1792SOL     OW 5953   6.658   8.521   3.979  0.2277  0.0424 -0.0746
 1792SOL    HW1 5954   6.721   8.491   3.913  0.6371  1.0604 -0.1711
 1792SOL    HW2 5955   6.575   8.482   3.953  0.2856  0.7922 -1.4627
 1793SOL     OW 5956   6.797   0.273   1.856  0.1298 -0.4523  0.1383
 1793SOL    HW1 5957   6.808   0.184   1.889  1.5438 -0.2462  0.3014
 1793SOL    HW2 5958   6.845   0.273   1.773 -0.5025 -0.0422 -0.2317
 1794SOL     OW 5959   0.834   0.077   5.034 -0.3358  0.5325 -0.2349
 1794SOL    HW1 5960   0.834   0.172   5.021 -0.1010  0.6875  0.8216
 1794SOL    HW2 5961   0.897   0.044   4.969  0.5841  1.2384  0.2757
 1795SOL     OW 5962   5.650   8.132   1.845  0.1272 -0.3197 -0.6247
 1795SOL    HW1 5963   5.710   8.099   1.778  2.2610  1.9160  0.0358
 1795SOL    HW2 5964   5.625   8.219   1.814 -0.3943 -0.0348  0.5464
 1796SOL     OW 5965   6.315   7.050   9.127 -0.2023  0.1896  0.6970
 1796SOL    HW1 5966   6.402   7.032   9.162 -0.0424 -0.4178  0.0086
 1796SOL    HW2 5967   6.258   6.985   9.169 -0.1067 -0.1889  0.2447
 1797SOL     OW 5968   0.383   9.324   0.158  0.3744 -0.0497  0.2887
 1797SOL    HW1 5969   0.304   9.307   0.209  0.8566  1.9151  1.8294
 1797SOL    HW2 5970   0.361   9.296   0.070 -1.3147 -1.4356  1.0812
 1798SOL     OW 5971   7.726   6.650   0.498 -0.4776  0.0718  0.6612
 1798SOL    HW1 5972   7.687   6.666   0.584  0.3308  1.3852  0.8082
 1798SOL    HW2 5973   7.752   6.736   0.466 -0.4719 -0.4278 -0.7741
 1799SOL     OW 5974   3.886   7.284   2.974 -0.1675  0.1003 -0.5232
 1799SOL    HW1 5975   3.874   7.243   2.888  0.3868 -0.2409 -0.4500
 1799SOL    HW2 5976   3.823   7.356   2.976 -2.8375 -2.1007  0.2342
 1800SOL     OW 5977   1.760   3.636   0.294 -0.0637 -0.3374 -0.1319
 1800SOL    HW1 5978   1.828   3.704   0.293 -0.4820  0.1343  1.2181
 1800SOL    HW2 5979   1.764   3.597   0.207  0.3780  1.2372 -0.8561
 1801SOL     OW 5980   4.594   4.728   8.767  0.0710  0.1782 -0.2582
 1801SOL    HW1 5981   4.629   4.774   8.690  1.2496  1.7644  1.1350
 1801SOL    HW2 5982   4.568   4.642   8.734  1.0101  0.6170 -2.3268
 1802SOL     OW 5983   1.904   9.890   9.129 -0.4224 -0.0924 -0.2252
 1802SOL    HW1 5984   1.874   9.965   9.077 -0.6904 -0.3852 -0.4964
 1802SOL    HW2 5985   1.891   9.814   9.071 -1.5576 -0.5388  0.5842
 1803SOL     OW 5986   6.008   6.270   4.017  0.7659 -0.6094  0.0830
 1803SOL    HW1 5987   6.084   6.303   3.969 -0.1535 -0.8623 -1.6309
 1803SOL    HW2 5988   5.994   6.182   3.982 -1.2594  0.0250 -0.8404
 1804SOL     OW 5989   0.480   4.227   3.731 -0.2981 -0.3971 -0.1158
 1804SOL    HW1 5990   0.524   4.143   3.717 -1.5439 -0.6683 -2.8693
 1804SOL    HW2 5991   0.486   4.272   3.647  1.0583  2.7297  1.4714
 1805SOL     OW 5992   5.895   0.847   2.067  0.4871  0.3651 -0.0633
 1805SOL    HW1 5993   5.942   0.765   2.049 -2.2963 -1.1667 -0.9710
 1805SOL    HW2 5994   5.881   0.845   2.162  0.7931 -0.0107 -0.0204
 1806SOL     OW 5995   3.519   9.950   6.597  0.7651 -0.0414  0.2293
 1806SOL    HW1 5996   3.592   9.953   6.535 -0.4040  2.4543 -1.1708
 1806SOL    HW2 5997   3.450   9.903   6.552  0.3665  0.6000  0.1607
 1807SOL     OW 5998   1.540   6.657   3.354  0.2294  0.5532  0.4241
 1807SOL    HW1 5999   1.573   6.727   3.297 -0.4762  0.8125  0.3268
 1807SOL    HW2 6000   1.515   6.587   3.294 -1.0007  1.0254  0.3544
 1808SOL     OW 6001   2.888   7.101   6.550 -0.1512  0.3645  0.1902
 1808SOL    HW1 6002   2.823   7.048   6.503 -0.7957  0.3389  1.0837
 1808SOL    HW2 6003   2.948   7.037   6.588 -0.3177  0.3225  0.3859
 1809SOL     OW 6004   2.787   4.785   6.038  0.0058  0.1161 -0.2303
 1809SOL    HW1 6005   2.740   4.710   6.002  0.5808 -0.4537  0.1803
 1809SOL    HW2 6006   2.795   4.847   5.964 -0.4890 -0.2163 -0.5621
 1810SOL     OW 6007   6.548   5.842   4.732  0.2980  0.2655  0.0153
 1810SOL    HW1 6008   6.504   5.822   4.650  0.3294 -1.2044  0.3257
 1810SOL    HW2 6009   6.620   5.901   4.707 -0.0278  0.2790 -0.9213
 1811SOL     OW 6010   3.008   8.650   7.460 -0.1847 -0.1375  0.1748
 1811SOL    HW1 6011   3.023   8.728   7.406  0.6242  1.6097  2.7601
 1811SOL    HW2 6012   2.913   8.648   7.473 -0.0561  1.9301  2.0352
 1812SOL     OW 6013   2.662   9.397   2.715 -0.7339 -0.5643 -0.3049
 1812SOL    HW1 6014   2.711   9.324   2.677  0.5529  0.8182 -1.4361
 1812SOL    HW2 6015   2.680   9.391   2.809  0.8281 -0.6646 -0.5852
 1813SOL     OW 6016   8.536   6.532   6.083 -0.4673 -0.3523 -0.3629
 1813SOL    HW1 6017   8.553   6.439   6.069 -1.1902 -0.4504 -0.6309
 1813SOL    HW2 6018   8.620   6.568   6.110 -0.1027 -1.0180 -0.5930
 1814SOL     OW 6019   3.188   0.142   5.070 -0.3983  0.2446  0.2317
 1814SOL    HW1 6020   3.106   0.170   5.110  0.5366  0.1327  2.3546
 1814SOL    HW2 6021   3.254   0.158   5.137  1.3492  0.3925 -1.4398
 1815SOL     OW 6022   0.258   4.970   2.342  0.3119  0.1631  0.2744
 1815SOL    HW1 6023   0.271   4.882   2.305 -4.4558 -0.8016  0.2386
 1815SOL    HW2 6024   0.273   5.029   2.269 -2.2080 -1.2254 -1.5411
 1816SOL     OW 6025   7.316   3.820   7.011 -0.2195 -0.0636 -0.7088
 1816SOL    HW1 6026   7.330   3.767   7.090 -1.0260 -2.1877 -1.9069
 1816SOL    HW2 6027   7.221   3.833   7.009  0.0281  2.7650  0.2853
 1817SOL     OW 6028   1.395   9.561   9.520 -0.3474  0.2916  0.1526
 1817SOL    HW1 6029   1.455   9.576   9.593 -0.0753 -0.3066  0.0599
 1817SOL    HW2 6030   1.323   9.623   9.534 -0.2067  0.3077  0.8181
 1818SOL     OW 6031   9.357   6.082   3.001  0.3742 -0.4418  0.4050
 1818SOL    HW1 6032   9.391   6.169   3.022  0.2651  0.2291 -1.8596
 1818SOL    HW2 6033   9.275   6.075   3.050  1.2080  0.0269  1.9102
 1819SOL     OW 6034   3.210   4.656   6.206 -0.4192 -0.5700  0.7233
 1819SOL    HW1 6035   3.165   4.740   6.197 -0.2958 -0.4762  0.9773
 1819SOL    HW2 6036   3.188   4.609   6.125  0.6333  0.2311 -0.0646
 1820SOL     OW 6037   8.293   6.066   9.236  0.2790  0.4577  0.6384
 1820SOL    HW1 6038   8.301   5.997   9.302  0.7464  0.8475  1.0011
 1820SOL    HW2 6039   8.374   6.117   9.245  0.8096 -0.0636 -0.9305
 1821SOL     OW 6040   8.170   6.247   0.323  0.5096 -0.1421 -0.2979
 1821SOL    HW1 6041   8.255   6.227   0.285  1.1326  2.1226 -0.2440
 1821SOL    HW2 6042   8.189   6.269   0.415 -0.3205 -0.7962  0.0511
 1822SOL     OW 6043   3.610   2.153   0.539  0.3741  0.3120 -0.3296
 1822SOL    HW1 6044   3.678   2.124   0.478 -0.4140  2.4354 -2.3840
 1822SOL    HW2 6045   3.657   2.172   0.621  2.2591  1.4866 -1.6024
 1823SOL     OW 6046   7.644   6.901   6.801 -0.4789 -0.1255  0.6465
 1823SOL    HW1 6047   7.734   6.918   6.830 -0.8226  0.4666  1.3803
 1823SOL    HW2 6048   7.653   6.828   6.739  0.6655  0.7974 -0.3344
 1824SOL     OW 6049   4.244   4.651   9.082  0.0659 -0.0293  0.0079
 1824SOL    HW1 6050   4.331   4.612   9.068 -0.2352 -0.7936  0.2421
 1824SOL    HW2 6051   4.184   4.577   9.080 -0.2966  0.1038  2.6244
 1825SOL     OW 6052   3.805   4.622   0.579 -0.5230  0.0205 -0.0972
 1825SOL    HW1 6053   3.843   4.537   0.600  0.2981  0.2642 -0.5469
 1825SOL    HW2 6054   3.833   4.679   0.651  3.1508  1.1089 -2.1504
 1826SOL     OW 6055   8.816   6.136   2.749 -0.2637 -0.1589  0.2114
 1826SOL    HW1 6056   8.818   6.041   2.758  0.4871 -0.2672 -0.8740
 1826SOL    HW2 6057   8.790   6.151   2.658  2.2608  0.5843 -0.4700
 1827SOL     OW 6058   6.562   6.387   8.210 -0.1199  0.2822 -0.1843
 1827SOL    HW1 6059   6.578   6.359   8.300 -0.1817 -0.0039 -0.2623
 1827SOL    HW2 6060   6.559   6.306   8.160 -2.5268  0.2533 -0.0788
 1828SOL     OW 6061   8.502   5.617   8.564 -0.3088  0.4660  0.1379
 1828SOL    HW1 6062   8.573   5.664   8.519 -0.9444  0.6508 -0.6949
 1828SOL    HW2 6063   8.509   5.646   8.655 -0.2661  1.6794 -0.2338
 1829SOL     OW 6064   8.015   8.336   6.491  0.4420 -0.1180 -0.2291
 1829SOL    HW1 6065   7.994   8.426   6.518  2.5092 -0.2586  2.2020
 1829SOL    HW2 6066   8.003   8.284   6.570  0.1444 -1.8491 -1.3756
 1830SOL     OW 6067   4.401   5.990   6.273 -0.2249 -0.3565  0.0208
 1830SOL    HW1 6068   4.444   6.053   6.331 -1.3828 -0.4684  1.0327
 1830SOL    HW2 6069   4.320   6.033   6.245  0.4412 -0.1804 -1.7955
 1831SOL     OW 6070   1.797   8.806   0.873  0.2387  0.1438 -0.6214
 1831SOL    HW1 6071   1.725   8.745   0.892  1.3748 -1.2677 -0.6615
 1831SOL    HW2 6072   1.835   8.825   0.958 -1.3037  2.4086 -0.3689
 1832SOL     OW 6073   8.566   2.553   4.189  0.2439 -0.7852  0.1871
 1832SOL    HW1 6074   8.491   2.599   4.151  1.1087 -0.2468 -0.9473
 1832SOL    HW2 6075   8.527   2.492   4.252 -1.0597  0.2298  0.4204
 1833SOL     OW 6076   8.129   2.161   1.420 -0.4527 -0.1500  0.5057
 1833SOL    HW1 6077   8.119   2.126   1.509 -0.5031 -0.5164  0.3568
 1833SOL    HW2 6078   8.066   2.233   1.416 -0.5324 -0.2038  0.7289
 1834SOL     OW 6079   3.557   3.481   5.357 -0.2883 -0.0604  0.0749
 1834SOL    HW1 6080   3.648   3.464   5.331 -1.6668 -3.1169 -3.7781
 1834SOL    HW2 6081   3.526   3.546   5.294 -1.2360 -0.5293  0.0373
 1835SOL     OW 6082   1.505   9.826   0.423  0.3922 -0.0475  0.5067
 1835SOL    HW1 6083   1.559   9.761   0.468  2.3089  1.3262  0.3384
 1835SOL    HW2 6084   1.522   9.811   0.330  0.5264  0.4081  0.4541
 1836SOL     OW 6085   4.806   6.583   9.702  0.1531  0.3149  0.2058
 1836SOL    HW1 6086   4.722   6.575   9.747  0.1279  0.3789  0.1697
 1836SOL    HW2 6087   4.845   6.662   9.739  1.3626 -1.1061  2.1590
 1837SOL     OW 6088   0.895   1.998   9.595  0.7450  0.6208 -0.6246
 1837SOL    HW1 6089   0.929   2.061   9.659 -1.9419  0.3157  1.3036
 1837SOL    HW2 6090   0.822   2.043   9.553  1.0475  0.0035 -1.8622
 1838SOL     OW 6091   9.628   5.903   4.953 -0.7046  0.1681  0.6552
 1838SOL    HW1 6092   9.543   5.882   4.991 -2.1244  1.5111 -1.5399
 1838SOL    HW2 6093   9.666   5.818   4.932 -1.6681 -0.4512  1.3095
 1839SOL     OW 6094   2.069   4.792   3.507  0.1216  0.3747  0.2016
 1839SOL    HW1 6095   2.151   4.842   3.508  0.0386  0.5382 -0.6497
 1839SOL    HW2 6096   2.009   4.846   3.456 -0.3845  0.0375  0.4329
 1840SOL     OW 6097   1.710   6.921   8.515 -0.1577 -0.3989 -0.4952
 1840SOL    HW1 6098   1.757   6.995   8.477 -2.6774  1.4556 -0.2960
 1840SOL    HW2 6099   1.747   6.844   8.472  1.5302  1.0971 -1.8690
 1841SOL     OW 6100   4.040   4.055   0.903 -0.2256 -0.8375 -0.2723
 1841SOL    HW1 6101   3.951   4.033   0.877 -1.1359 -0.1754  2.0519
 1841SOL    HW2 6102   4.082   3.970   0.917 -1.0399 -1.1651  0.2806
 1842SOL     OW 6103   8.821   2.622   4.366  0.0001 -0.2679 -0.0824
 1842SOL    HW1 6104   8.777   2.565   4.303  1.0821 -0.9035 -0.2782
 1842SOL    HW2 6105   8.812   2.576   4.450  2.1530 -1.5266 -0.4744
 1843SOL     OW 6106   8.931   4.481   7.921  0.4334  0.0041 -0.0576
 1843SOL    HW1 6107   9.016   4.518   7.898  0.9922 -1.0179  0.2701
 1843SOL    HW2 6108   8.892   4.457   7.837  1.1523 -0.9346 -0.1450
 1844SOL     OW 6109   4.044   7.115   2.208  0.1445  0.2161  0.1209
 1844SOL    HW1 6110   3.983   7.064   2.261 -0.1263 -0.2943 -0.6551
 1844SOL    HW2 6111   4.121   7.059   2.199  0.0211  0.1171 -0.3649
 1845SOL     OW 6112   3.290   0.636   1.002 -0.1038  0.2584  0.5600
 1845SOL    HW1 6113   3.203   0.639   1.042 -0.3778 -1.1410  0.1222
 1845SOL    HW2 6114   3.292   0.552   0.956  0.5600  1.3582 -1.5334
 1846SOL     OW 6115   7.298   8.357   1.548 -0.1359 -0.3028 -0.2517
 1846SOL    HW1 6116   7.236   8.341   1.619  0.1636 -0.1685  0.0387
 1846SOL    HW2 6117   7.332   8.270   1.526 -0.3198 -0.3584 -0.3179
 1847SOL     OW 6118   1.789   3.163   1.937  0.0023 -0.2049  0.6049
 1847SOL    HW1 6119   1.856   3.113   1.982  2.0953  2.1179  0.3023
 1847SOL    HW2 6120   1.774   3.240   1.992 -0.2968  0.7125 -0.6806
 1848SOL     OW 6121   5.406   8.832   2.504  0.4492 -0.1358 -0.0567
 1848SOL    HW1 6122   5.383   8.748   2.543 -0.9197  1.0804  1.9956
 1848SOL    HW2 6123   5.453   8.879   2.573 -0.1006  1.2925 -0.6015
 1849SOL     OW 6124   4.077   8.873   7.261  0.5686  0.1382 -0.0360
 1849SOL    HW1 6125   4.017   8.865   7.188  0.7858 -2.4813 -0.0098
 1849SOL    HW2 6126   4.023   8.859   7.339  0.9792 -1.0318  0.0540
 1850SOL     OW 6127   8.095   8.244   4.670 -0.3156  0.4143  0.6145
 1850SOL    HW1 6128   8.027   8.178   4.678 -1.3274  1.1812 -1.1121
 1850SOL    HW2 6129   8.130   8.232   4.582 -0.1096  1.7957  0.4909
 1851SOL     OW 6130   7.849   9.094   4.978 -0.3364 -0.7438 -0.0971
 1851SOL    HW1 6131   7.782   9.102   4.910 -1.2887  0.7924  0.9636
 1851SOL    HW2 6132   7.924   9.055   4.933 -1.0405 -0.0826 -1.9361
 1852SOL     OW 6133   3.469   8.629   6.198  0.2838 -0.1833 -0.7630
 1852SOL    HW1 6134   3.433   8.617   6.286  0.0501  1.1105 -0.6651
 1852SOL    HW2 6135   3.561   8.604   6.206 -0.0535 -1.4082 -0.4920
 1853SOL     OW 6136   8.092   0.297   3.869 -0.2428  0.1194 -0.3288
 1853SOL    HW1 6137   8.085   0.232   3.938 -2.2116 -1.2456 -1.7052
 1853SOL    HW2 6138   8.043   0.373   3.901  1.6938  0.8566  1.0974
 1854SOL     OW 6139   5.491   8.081   5.405 -0.0687 -0.3646 -0.2085
 1854SOL    HW1 6140   5.571   8.050   5.362 -0.6136 -0.6642 -1.0262
 1854SOL    HW2 6141   5.519   8.157   5.455  1.0634 -1.4494  0.8703
 1855SOL     OW 6142   4.740   0.574   4.632  0.3669 -0.0862 -0.1041
 1855SOL    HW1 6143   4.805   0.640   4.657 -1.2039  1.3489  0.3775
 1855SOL    HW2 6144   4.685   0.617   4.568  0.1807 -1.4578 -0.9086
 1856SOL     OW 6145   7.059   5.880   0.584  0.6296  0.2445 -0.2328
 1856SOL    HW1 6146   7.120   5.808   0.566  3.1712  1.8755  1.1889
 1856SOL    HW2 6147   7.079   5.946   0.517 -1.2861 -0.0727 -1.1888
 1857SOL     OW 6148   9.539   4.046   2.447 -0.6542 -0.9733 -0.0593
 1857SOL    HW1 6149   9.531   3.951   2.439  1.8318 -1.2390 -0.4004
 1857SOL    HW2 6150   9.454   4.080   2.422 -0.8754 -3.0206 -2.5051
 1858SOL     OW 6151   2.914   9.473   5.592 -0.2442  0.1302 -0.0069
 1858SOL    HW1 6152   2.893   9.401   5.533 -0.5548 -0.5786  0.9300
 1858SOL    HW2 6153   3.010   9.478   5.591 -0.2255 -0.2342 -0.1604
 1859SOL     OW 6154   4.212   5.900   2.033  0.2605 -0.5032 -0.3756
 1859SOL    HW1 6155   4.296   5.945   2.044  0.9497 -1.5511 -1.0868
 1859SOL    HW2 6156   4.199   5.852   2.114  1.0741 -1.4573 -0.7873
 1860SOL     OW 6157   0.649   2.401   7.166 -0.5437 -0.3786  0.0139
 1860SOL    HW1 6158   0.664   2.490   7.196  2.3903 -1.0788  0.9593
 1860SOL    HW2 6159   0.629   2.409   7.072 -1.4625  1.2816  0.3200
 1861SOL     OW 6160   2.372   3.214   4.936  0.1377  0.1002  0.1018
 1861SOL    HW1 6161   2.405   3.140   4.987 -0.4552  0.0168  0.3705
 1861SOL    HW2 6162   2.342   3.175   4.853  0.6585  0.1681 -0.1195
 1862SOL     OW 6163   4.364   9.489   8.277 -0.2459 -0.1818  0.2825
 1862SOL    HW1 6164   4.458   9.487   8.260 -0.2486 -1.6488  0.2967
 1862SOL    HW2 6165   4.354   9.445   8.361 -1.0320 -1.0292 -0.2351
 1863SOL     OW 6166   4.246   4.155   7.262  0.2207  0.6602  0.7596
 1863SOL    HW1 6167   4.279   4.222   7.201  0.2668 -0.0613 -0.0334
 1863SOL    HW2 6168   4.237   4.077   7.208  0.0654  0.0503  1.6521
 1864SOL     OW 6169   7.829   9.200   7.629 -0.1764 -0.2902 -0.4265
 1864SOL    HW1 6170   7.828   9.190   7.534  0.6280  0.0195 -0.4779
 1864SOL    HW2 6171   7.751   9.154   7.659 -0.0633 -0.9887 -1.1770
 1865SOL     OW 6172   0.273   3.864   7.777 -0.2497 -0.0879  0.4691
 1865SOL    HW1 6173   0.327   3.876   7.855  2.1443 -1.9478 -0.7723
 1865SOL    HW2 6174   0.336   3.850   7.706 -2.3426  0.8073 -1.6940
 1866SOL     OW 6175   5.901   1.856   9.196  1.0038  0.0287 -0.8721
 1866SOL    HW1 6176   5.874   1.770   9.164  0.7686 -1.7558  3.4452
 1866SOL    HW2 6177   5.983   1.840   9.242  0.0853  1.6882  1.5344
 1867SOL     OW 6178   8.068   1.297   0.736  0.1598  0.0686 -0.0060
 1867SOL    HW1 6179   8.091   1.345   0.816  0.2321 -0.6422  0.4053
 1867SOL    HW2 6180   8.083   1.205   0.758  1.9300 -0.0239 -1.4107
 1868SOL     OW 6181   5.850   5.291   7.082  0.3948  0.4344 -0.2232
 1868SOL    HW1 6182   5.822   5.361   7.142  0.0890 -0.0737  0.2373
 1868SOL    HW2 6183   5.823   5.321   6.995 -0.5001  0.5094  0.0718
 1869SOL     OW 6184   4.615   0.964   8.173 -0.2461  0.5222  0.0386
 1869SOL    HW1 6185   4.705   0.937   8.153  0.4059  0.7143  2.3369
 1869SOL    HW2 6186   4.607   1.052   8.136  0.0660  0.0092 -1.2825
 1870SOL     OW 6187   2.985   4.485   1.803  0.2155  0.3442  0.0048
 1870SOL    HW1 6188   3.011   4.396   1.827  0.5146  0.0838 -1.2336
 1870SOL    HW2 6189   2.955   4.524   1.885  0.3750 -0.7933  0.6208
 1871SOL     OW 6190   9.145   7.930   4.924 -0.5995 -0.0699  0.0493
 1871SOL    HW1 6191   9.098   8.009   4.952 -0.7007  0.2705 -1.0128
 1871SOL    HW2 6192   9.206   7.912   4.995  1.0306  2.2911 -0.6362
 1872SOL     OW 6193   9.816   1.260   6.278 -0.5301 -0.3042  0.0521
 1872SOL    HW1 6194   9.787   1.349   6.299 -0.3445 -0.3718  0.6164
 1872SOL    HW2 6195   9.848   1.266   6.188  1.4944  0.7232  0.7554
 1873SOL     OW 6196   5.392   3.871   3.442 -0.4001  0.1665  0.5586
 1873SOL    HW1 6197   5.394   3.866   3.346 -0.6108  2.3947  0.3918
 1873SOL    HW2 6198   5.299   3.873   3.464 -0.3595 -0.9296  0.8735
 1874SOL     OW 6199   2.110   1.759   8.189 -0.3048  0.6286 -0.4148
 1874SOL    HW1 6200   2.152   1.717   8.115  0.3472 -0.1757  0.3862
 1874SOL    HW2 6201   2.182   1.796   8.240 -0.7189  0.9792 -0.0718
 1875SOL     OW 6202   6.125   8.163   9.937 -0.3542  0.0122 -0.3443
 1875SOL    HW1 6203   6.187   8.235   9.934 -1.0686  0.8706  2.4650
 1875SOL    HW2 6204   6.179   8.084   9.934  0.9552  0.7287  1.8618
 1876SOL     OW 6205   2.781   4.661   2.625  0.7401 -0.3289  0.2926
 1876SOL    HW1 6206   2.824   4.735   2.669  1.1229 -1.1104  1.2857
 1876SOL    HW2 6207   2.828   4.650   2.543  0.8069  0.4083  0.2324
 1877SOL     OW 6208   3.376   3.055   4.262  0.1178 -0.4773  0.2162
 1877SOL    HW1 6209   3.448   3.055   4.326  0.7011  1.4708 -0.3504
 1877SOL    HW2 6210   3.302   3.016   4.309  1.3291 -1.8617  1.0535
 1878SOL     OW 6211   7.030   4.236   8.595  0.1647 -0.2581 -0.6931
 1878SOL    HW1 6212   7.009   4.278   8.512 -3.8986  0.5305  0.5000
 1878SOL    HW2 6213   7.011   4.143   8.580  2.5942 -0.6978 -1.4398
 1879SOL     OW 6214   9.333   8.893   6.969 -0.2949 -0.3970 -0.4594
 1879SOL    HW1 6215   9.369   8.824   6.913 -0.6659 -0.1354 -1.0225
 1879SOL    HW2 6216   9.405   8.956   6.978 -0.5138 -0.0030 -1.3720
 1880SOL     OW 6217   9.145   2.274   5.457 -0.2152 -0.2920  0.6039
 1880SOL    HW1 6218   9.100   2.348   5.418 -0.6265 -0.0051  1.5861
 1880SOL    HW2 6219   9.236   2.282   5.428 -0.5926 -0.3613 -0.6455
 1881SOL     OW 6220   1.403   0.327   9.385  0.4249  0.1356 -0.3892
 1881SOL    HW1 6221   1.482   0.273   9.388 -0.1216 -0.7572 -1.2203
 1881SOL    HW2 6222   1.432   0.414   9.411  1.9221  0.1004 -1.8084
 1882SOL     OW 6223   6.909   4.147   4.088 -0.2909  0.2169 -0.0454
 1882SOL    HW1 6224   6.922   4.146   3.993 -1.3804 -2.5160 -0.2424
 1882SOL    HW2 6225   6.859   4.228   4.104  0.0053  0.7798 -1.7553
 1883SOL     OW 6226   0.091   8.424   9.472  0.1696  0.3173 -0.0278
 1883SOL    HW1 6227   0.019   8.425   9.536 -0.3331  2.5780 -0.5393
 1883SOL    HW2 6228   0.075   8.501   9.417  3.9042  1.9521  0.8820
 1884SOL     OW 6229   4.442   1.778   3.630 -0.0757  0.4558 -0.7209
 1884SOL    HW1 6230   4.500   1.837   3.678 -3.1706  1.9717  1.4721
 1884SOL    HW2 6231   4.454   1.693   3.674 -0.0495  0.9329  0.2344
 1885SOL     OW 6232   2.821   8.936   4.288  0.0103  0.2740  0.0551
 1885SOL    HW1 6233   2.887   8.938   4.219  1.1209  0.9951  1.0933
 1885SOL    HW2 6234   2.846   8.861   4.343 -0.2019  0.3778  0.2957
 1886SOL     OW 6235   6.634   4.938   4.203  0.0621  0.1523  0.4546
 1886SOL    HW1 6236   6.560   4.888   4.169 -0.2094 -0.5422  1.9529
 1886SOL    HW2 6237   6.711   4.888   4.175 -0.0820  0.2459 -0.1262
 1887SOL     OW 6238   8.006   9.739   1.061 -0.2350 -0.1468 -0.8332
 1887SOL    HW1 6239   7.985   9.726   0.969 -1.9178  1.6835 -0.7682
 1887SOL    HW2 6240   7.996   9.833   1.075  0.9268 -0.2475  1.0071
 1888SOL     OW 6241   3.140   3.294   3.725 -0.3226  0.0212  0.3723
 1888SOL    HW1 6242   3.236   3.297   3.717 -0.4532  0.8219 -1.3830
 1888SOL    HW2 6243   3.119   3.201   3.717  0.2870 -0.1381  0.5383
 1889SOL     OW 6244   6.735   8.171   8.051  0.3546  0.2450  0.1972
 1889SOL    HW1 6245   6.644   8.194   8.070  0.0233 -0.9325  0.1321
 1889SOL    HW2 6246   6.786   8.248   8.077 -0.6647  0.9414  0.1642
 1890SOL     OW 6247   7.768   2.149   6.336  0.6014  0.3456  0.0791
 1890SOL    HW1 6248   7.805   2.213   6.276  1.2495 -0.3814 -0.3198
 1890SOL    HW2 6249   7.692   2.114   6.289  1.7210 -0.9932 -0.8258
 1891SOL     OW 6250   1.181   7.909   5.071 -0.0424  0.1562  0.4527
 1891SOL    HW1 6251   1.270   7.874   5.073  0.1973 -0.0726 -4.0227
 1891SOL    HW2 6252   1.192   8.004   5.079  0.8040  0.2349 -1.3254
 1892SOL     OW 6253   7.966   8.947   0.164  0.2156 -0.2474 -0.1612
 1892SOL    HW1 6254   7.926   8.912   0.084  0.1299 -1.2075  0.2823
 1892SOL    HW2 6255   7.982   8.869   0.219  2.4193  0.1081 -0.1880
 1893SOL     OW 6256   8.045   3.912   2.093  0.0652  0.4530  0.2794
 1893SOL    HW1 6257   8.012   3.835   2.048  1.2719  0.0443  0.0513
 1893SOL    HW2 6258   8.118   3.880   2.146  0.8012  1.4745 -0.0654
 1894SOL     OW 6259   8.792   4.126   4.823 -0.2072 -0.2343 -0.1753
 1894SOL    HW1 6260   8.779   4.151   4.731  0.9310 -0.5762 -0.4479
 1894SOL    HW2 6261   8.715   4.159   4.868 -1.0056 -0.4457 -1.3334
 1895SOL     OW 6262   6.653   3.573   9.020 -0.4554 -0.1986 -0.1837
 1895SOL    HW1 6263   6.595   3.543   9.089  0.1640 -1.9488 -0.3655
 1895SOL    HW2 6264   6.739   3.579   9.062  0.0477 -1.8659 -0.8700
 1896SOL     OW 6265   5.110   1.001   0.647 -0.2097  0.2534 -0.2038
 1896SOL    HW1 6266   5.028   0.960   0.622 -0.2055  0.5997 -0.8122
 1896SOL    HW2 6267   5.178   0.941   0.617 -0.2315  0.1006  0.0494
 1897SOL     OW 6268   1.517   3.194   3.197 -0.1991  0.3033  0.0543
 1897SOL    HW1 6269   1.597   3.229   3.236  1.0625 -1.0860 -1.1497
 1897SOL    HW2 6270   1.511   3.105   3.232  1.4636 -1.3357 -3.3204
 1898SOL     OW 6271   2.019   8.181   4.585  0.2749 -0.5075 -0.5548
 1898SOL    HW1 6272   1.997   8.239   4.657 -0.3327  1.7326 -2.4113
 1898SOL    HW2 6273   2.113   8.192   4.573  0.0481  0.7943 -1.3838
 1899SOL     OW 6274   5.473   3.230   1.418 -0.1633  0.2055  0.9629
 1899SOL    HW1 6275   5.543   3.214   1.354  0.2870  0.4905  1.3839
 1899SOL    HW2 6276   5.428   3.146   1.425  1.8290 -0.8046  2.7394
 1900SOL     OW 6277   2.532   9.421   1.580 -0.1534 -0.6358  0.5803
 1900SOL    HW1 6278   2.448   9.414   1.534  0.4061 -1.5872 -0.3148
 1900SOL    HW2 6279   2.510   9.404   1.672 -1.2220  0.8998  0.6535
 1901SOL     OW 6280   4.378   5.302   0.611 -0.5516 -0.1940 -0.2540
 1901SOL    HW1 6281   4.295   5.347   0.592 -0.9440 -0.8869 -0.2383
 1901SOL    HW2 6282   4.441   5.342   0.552 -1.1901 -0.5508 -1.2039
 1902SOL     OW 6283   2.350   8.702   2.890  0.5215 -0.7683  0.3508
 1902SOL    HW1 6284   2.393   8.752   2.960 -1.8568  0.7708  0.8446
 1902SOL    HW2 6285   2.343   8.764   2.817 -1.0573 -0.8446  0.3996
 1903SOL     OW 6286   3.835   7.632   5.111 -0.1949  0.2054  0.0598
 1903SOL    HW1 6287   3.766   7.606   5.050  0.3490 -0.7199 -0.1635
 1903SOL    HW2 6288   3.847   7.726   5.094  0.9820 -0.3003 -2.3215
 1904SOL     OW 6289   4.328   5.475   5.465 -0.1647  0.1664 -0.2289
 1904SOL    HW1 6290   4.236   5.450   5.459 -0.2489  0.8108 -2.0347
 1904SOL    HW2 6291   4.374   5.413   5.409  0.1537  1.3926 -1.3766
 1905SOL     OW 6292   2.624   5.214   6.695  0.0597  0.2957  0.0153
 1905SOL    HW1 6293   2.656   5.124   6.705  0.4112  0.4429  0.2561
 1905SOL    HW2 6294   2.702   5.268   6.711  0.3770  0.5996 -2.1785
 1906SOL     OW 6295   3.677   1.538   3.394  0.0503  0.9432 -0.2415
 1906SOL    HW1 6296   3.766   1.562   3.421  0.2744  0.5212 -0.5891
 1906SOL    HW2 6297   3.624   1.548   3.473  0.2257  2.0824 -0.2531
 1907SOL     OW 6298   0.961   7.183   5.285 -0.4764 -0.0972 -0.0733
 1907SOL    HW1 6299   0.968   7.263   5.232 -1.8590 -0.1278 -0.3597
 1907SOL    HW2 6300   0.963   7.214   5.375 -1.4950  0.3548 -0.1813
 1908SOL     OW 6301   2.191   9.383   4.870 -0.2004  0.1524 -0.1321
 1908SOL    HW1 6302   2.252   9.324   4.825  1.6718  1.3143  0.7871
 1908SOL    HW2 6303   2.244   9.458   4.896 -2.1680  1.5171  0.1846
 1909SOL     OW 6304   4.936   5.087   5.553  0.4446  0.0123 -0.2673
 1909SOL    HW1 6305   4.963   5.161   5.607 -0.3148 -0.4807  0.8271
 1909SOL    HW2 6306   4.847   5.067   5.583  0.5761 -1.2257 -0.6589
 1910SOL     OW 6307   1.712   3.801   9.927  0.6847  0.2694  0.0904
 1910SOL    HW1 6308   1.780   3.808   9.860  0.4344  2.9415 -0.0227
 1910SOL    HW2 6309   1.700   3.891   9.957 -0.6760 -0.5720  2.2762
 1911SOL     OW 6310   1.804   3.335   4.410  0.1524  0.4191 -1.0835
 1911SOL    HW1 6311   1.864   3.408   4.427 -0.5449  0.7361  0.0951
 1911SOL    HW2 6312   1.722   3.377   4.385 -0.0623  0.0206 -1.0540
 1912SOL     OW 6313   0.858   0.623   5.935 -0.1240  0.0196  0.1223
 1912SOL    HW1 6314   0.789   0.674   5.892 -0.1864 -1.5311 -1.7339
 1912SOL    HW2 6315   0.812   0.557   5.986 -0.0474 -1.0869 -1.2062
 1913SOL     OW 6316   3.445   3.746   6.870 -0.0994 -0.2879  0.2674
 1913SOL    HW1 6317   3.489   3.715   6.949  1.8387  1.6787  0.0426
 1913SOL    HW2 6318   3.367   3.792   6.902 -0.0481 -0.6600  0.9328
 1914SOL     OW 6319   7.320   9.048   8.993 -0.5373  0.0471  0.1909
 1914SOL    HW1 6320   7.387   8.983   8.973  0.8162  0.9011  1.7747
 1914SOL    HW2 6321   7.256   9.000   9.046  0.1454 -0.1381  0.8546
 1915SOL     OW 6322   6.014   3.832   3.116  0.5007  0.5257  0.1119
 1915SOL    HW1 6323   6.044   3.880   3.038  1.4277  0.3675  0.3549
 1915SOL    HW2 6324   5.982   3.899   3.175  0.4467  0.7129 -0.1286
 1916SOL     OW 6325   1.297   5.715   9.875 -0.5216 -0.9484 -0.2514
 1916SOL    HW1 6326   1.322   5.676   9.791  0.1914 -0.8423 -0.0939
 1916SOL    HW2 6327   1.379   5.748   9.912 -0.8544 -0.8481  0.4145
 1917SOL     OW 6328   2.641   4.212   5.651  0.1992  0.4795  0.0940
 1917SOL    HW1 6329   2.545   4.212   5.650  0.1851  1.6773  0.3825
 1917SOL    HW2 6330   2.665   4.232   5.741  0.7300 -0.2037  0.1109
 1918SOL     OW 6331   8.029   0.675   7.626  0.3230  0.1159 -0.0105
 1918SOL    HW1 6332   7.944   0.638   7.601  1.3441 -1.9271 -0.6478
 1918SOL    HW2 6333   8.050   0.634   7.709  0.7474  0.5385  0.0958
 1919SOL     OW 6334   6.512   2.975   5.165 -0.3282 -0.0597  0.0762
 1919SOL    HW1 6335   6.457   2.981   5.087  1.9446 -1.6082 -1.7929
 1919SOL    HW2 6336   6.502   2.884   5.195  1.8620 -0.7216 -0.9512
 1920SOL     OW 6337   2.304   6.413   4.156  0.0769  0.0991  0.3491
 1920SOL    HW1 6338   2.283   6.488   4.211 -1.7245 -1.3827  1.7831
 1920SOL    HW2 6339   2.241   6.418   4.084  1.8123  1.4864 -1.2087
 1921SOL     OW 6340   9.153   7.715   7.389  0.1500 -0.3378 -0.5589
 1921SOL    HW1 6341   9.223   7.777   7.368 -0.8900  1.4150  0.8378
 1921SOL    HW2 6342   9.187   7.666   7.464 -0.2987  0.9208  0.4984
 1922SOL     OW 6343   4.278   1.034   8.278 -0.1875 -0.6936 -0.2087
 1922SOL    HW1 6344   4.366   1.017   8.312  0.1070 -1.1908 -1.1909
 1922SOL    HW2 6345   4.292   1.072   8.191 -0.9309  0.0817 -0.0039
 1923SOL     OW 6346   6.080   6.745   4.957  0.3926  0.4386  0.4864
 1923SOL    HW1 6347   6.075   6.709   4.868 -2.9045 -0.1602  0.7878
 1923SOL    HW2 6348   6.087   6.840   4.943 -0.3623  0.3758 -0.4443
 1924SOL     OW 6349   7.226   7.895   3.874  0.2639  0.7034 -0.3306
 1924SOL    HW1 6350   7.205   7.923   3.963 -0.3215 -0.8665  0.0583
 1924SOL    HW2 6351   7.214   7.974   3.820  0.2477  1.5756  0.9027
 1925SOL     OW 6352   8.610   7.604   1.248  0.1451 -0.0252  0.1367
 1925SOL    HW1 6353   8.536   7.546   1.230  0.1467 -0.2880  0.9593
 1925SOL    HW2 6354   8.622   7.653   1.166 -1.1665  0.2969  0.1094
 1926SOL     OW 6355   3.204   5.012   3.010 -0.1197  0.2981 -0.3308
 1926SOL    HW1 6356   3.167   5.059   3.084  3.7435  1.5918  1.0553
 1926SOL    HW2 6357   3.191   4.919   3.031 -2.8307  0.6128 -0.2867
 1927SOL     OW 6358   1.643   5.066   7.543 -0.2890 -0.3187  0.5220
 1927SOL    HW1 6359   1.683   5.140   7.497  0.2945 -0.2641  1.0994
 1927SOL    HW2 6360   1.557   5.098   7.569  0.8040  1.0513  2.8299
 1928SOL     OW 6361   7.772   4.214   7.937 -0.5124 -0.1521 -0.0846
 1928SOL    HW1 6362   7.836   4.143   7.930 -0.9013 -0.6813  1.3918
 1928SOL    HW2 6363   7.695   4.174   7.978 -0.8434  1.0458  0.5206
 1929SOL     OW 6364   8.050   6.819   3.557  0.0683 -0.6912  0.1000
 1929SOL    HW1 6365   7.965   6.850   3.527  0.0724 -2.4912 -1.9888
 1929SOL    HW2 6366   8.113   6.875   3.511  0.0312 -1.4137 -0.8515
 1930SOL     OW 6367   1.411   0.028   3.677  0.3442 -0.6376 -0.1522
 1930SOL    HW1 6368   1.457   0.079   3.744 -1.3621  1.9095 -0.7760
 1930SOL    HW2 6369   1.456   0.048   3.595 -0.5935  0.3216 -0.4647
 1931SOL     OW 6370   0.946   1.167   0.426 -0.0361 -0.2447  0.2431
 1931SOL    HW1 6371   0.900   1.091   0.391  0.0015 -0.0601 -0.2111
 1931SOL    HW2 6372   0.940   1.233   0.357  1.3999 -0.4034 -0.0592
 1932SOL     OW 6373   2.865   8.055   4.002 -0.6233 -0.3930 -0.0892
 1932SOL    HW1 6374   2.897   8.123   4.061 -1.0876 -0.6253  0.4452
 1932SOL    HW2 6375   2.839   7.983   4.060 -2.5394 -0.0361 -0.4228
 1933SOL     OW 6376   5.729   4.651   3.422  0.4923 -0.1848 -0.0697
 1933SOL    HW1 6377   5.689   4.566   3.403  2.7387 -1.5086  0.6574
 1933SOL    HW2 6378   5.656   4.711   3.432 -1.1434 -1.8721 -1.3488
 1934SOL     OW 6379   7.850   9.435   9.482 -0.3469  0.2523 -0.0639
 1934SOL    HW1 6380   7.882   9.404   9.397  2.2652  1.6373  0.3258
 1934SOL    HW2 6381   7.789   9.367   9.510 -0.0026 -1.0732 -2.2716
 1935SOL     OW 6382   2.760   3.556   6.318  0.0966 -0.5568  0.4715
 1935SOL    HW1 6383   2.746   3.629   6.377 -0.2402  0.5962 -0.9691
 1935SOL    HW2 6384   2.770   3.596   6.232 -0.0246 -2.1993 -0.3568
 1936SOL     OW 6385   2.231   6.850   1.683  0.2552  0.0775 -0.1659
 1936SOL    HW1 6386   2.190   6.872   1.599 -0.6220 -0.7070  0.0468
 1936SOL    HW2 6387   2.210   6.924   1.739  0.3796  0.3522 -0.4745
 1937SOL     OW 6388   8.672   5.562   0.924  0.0737  0.4099  0.0795
 1937SOL    HW1 6389   8.704   5.651   0.914  3.3597 -0.5710  0.6671
 1937SOL    HW2 6390   8.595   5.557   0.867  0.5667  3.2198 -0.9711
 1938SOL     OW 6391   9.758   2.800   1.788 -0.0407  0.1204  0.0412
 1938SOL    HW1 6392   9.760   2.737   1.717  0.7676 -0.0347  0.2011
 1938SOL    HW2 6393   9.685   2.772   1.844 -0.3823 -0.0209 -0.4730
 1939SOL     OW 6394   6.940   7.529   8.631  0.1086 -0.2867 -0.2536
 1939SOL    HW1 6395   7.022   7.536   8.679  0.0793 -1.1036 -0.0579
 1939SOL    HW2 6396   6.918   7.619   8.607  0.1229  0.1343  1.2390
 1940SOL     OW 6397   0.636   5.335   8.423  0.3932 -0.0307  0.5963
 1940SOL    HW1 6398   0.683   5.387   8.488  0.7601  1.3345 -0.7102
 1940SOL    HW2 6399   0.700   5.270   8.394  0.2329 -0.6408  1.5498
 1941SOL     OW 6400   7.572   5.090   8.024  0.4149  0.3605 -1.0410
 1941SOL    HW1 6401   7.641   5.137   7.978  3.7204 -1.2924  1.7727
 1941SOL    HW2 6402   7.589   4.997   8.004 -1.3854 -0.0872 -0.6932
 1942SOL     OW 6403   5.579   4.169   7.624 -0.0584 -0.8394 -0.4215
 1942SOL    HW1 6404   5.620   4.098   7.674  2.3514  0.6340 -0.1944
 1942SOL    HW2 6405   5.516   4.124   7.567 -0.8463 -2.8503  1.8218
 1943SOL     OW 6406   9.218   6.842   8.142  0.5168  0.2104  0.9303
 1943SOL    HW1 6407   9.198   6.767   8.087 -0.2953  1.5748 -0.7284
 1943SOL    HW2 6408   9.312   6.834   8.160  0.4662 -1.1289  0.7260
 1944SOL     OW 6409   3.827   8.930   0.524  0.2323  0.2403 -0.6156
 1944SOL    HW1 6410   3.911   8.923   0.568  0.3720  3.0892 -0.2178
 1944SOL    HW2 6411   3.785   9.006   0.565 -2.1979 -0.5835 -1.3807
 1945SOL     OW 6412   9.346   5.658   4.321  0.3526  0.0729  0.0839
 1945SOL    HW1 6413   9.419   5.607   4.285  1.2154  1.0082  0.4596
 1945SOL    HW2 6414   9.279   5.593   4.340  0.8463 -0.7413 -0.8363
 1946SOL     OW 6415   7.232   3.670   0.922 -0.9851 -0.2431 -0.3415
 1946SOL    HW1 6416   7.164   3.605   0.904 -1.6866 -0.1285  1.6414
 1946SOL    HW2 6417   7.207   3.707   1.006  2.1293 -0.9849  1.0505
 1947SOL     OW 6418   9.710   6.226   2.663 -0.6098  0.2239 -0.3807
 1947SOL    HW1 6419   9.705   6.140   2.705  0.5267 -0.3641 -1.3701
 1947SOL    HW2 6420   9.654   6.282   2.716 -2.1649 -1.3432 -0.2580
 1948SOL     OW 6421   2.807   3.399   9.490 -0.3656  0.1139 -0.0826
 1948SOL    HW1 6422   2.852   3.315   9.489 -0.8277 -0.1380  0.0495
 1948SOL    HW2 6423   2.734   3.389   9.429  2.0841  1.8451 -3.6034
 1949SOL     OW 6424   2.529   8.903   6.489 -0.6618  0.1270  0.1510
 1949SOL    HW1 6425   2.605   8.961   6.498 -1.2449  0.8328  0.5347
 1949SOL    HW2 6426   2.453   8.960   6.496 -1.2471 -0.4227 -1.1660
 1950SOL     OW 6427   1.205   4.472   6.652 -0.5292  0.0917  0.0872
 1950SOL    HW1 6428   1.216   4.547   6.710 -0.5842  0.9693 -0.9864
 1950SOL    HW2 6429   1.163   4.405   6.706 -1.4903  1.2231  0.7994
 1951SOL     OW 6430   5.456   7.038   6.149  0.2867  0.1574 -0.0844
 1951SOL    HW1 6431   5.381   6.998   6.193 -0.4668  0.3769 -1.1343
 1951SOL    HW2 6432   5.496   6.965   6.101 -0.8065  0.5206 -1.6139
 1952SOL     OW 6433   8.818   9.320   3.017  0.2789 -0.2832 -0.2213
 1952SOL    HW1 6434   8.876   9.386   2.980 -0.5134  0.4297 -0.2246
 1952SOL    HW2 6435   8.826   9.332   3.112  0.5203 -0.5364 -0.2064
 1953SOL     OW 6436   6.759   4.395   7.062  0.1205  0.1112  0.4198
 1953SOL    HW1 6437   6.828   4.457   7.087  0.8680 -0.1762 -0.8384
 1953SOL    HW2 6438   6.679   4.449   7.057  0.3534  0.5623  1.2954
 1954SOL     OW 6439   6.182   6.033   9.041  0.0176 -0.5200  0.1532
 1954SOL    HW1 6440   6.246   5.989   9.097 -2.2259 -1.6452  2.0082
 1954SOL    HW2 6441   6.183   6.124   9.071  1.9886 -0.0615 -1.1198
 1955SOL     OW 6442   2.190   5.647   7.746 -0.0369  0.2508  0.4396
 1955SOL    HW1 6443   2.212   5.718   7.806 -1.5296 -0.3246  1.7278
 1955SOL    HW2 6444   2.272   5.628   7.700  1.1079  0.8467  2.1570
 1956SOL     OW 6445   1.163   5.094   5.233 -0.5638  0.1923 -0.1776
 1956SOL    HW1 6446   1.240   5.079   5.179  1.7262  1.0217  2.6037
 1956SOL    HW2 6447   1.129   5.006   5.250  0.6583 -0.3230 -0.2745
 1957SOL     OW 6448   0.071   1.521   8.788 -0.3240  0.4021  0.0448
 1957SOL    HW1 6449   0.115   1.480   8.862 -0.6187  0.1058  0.0593
 1957SOL    HW2 6450  -0.009   1.469   8.775 -0.8795  1.1757  0.2792
 1958SOL     OW 6451   5.634   4.514   0.668 -0.4099  0.4019 -0.3101
 1958SOL    HW1 6452   5.633   4.573   0.744 -0.2487  0.4849 -0.3729
 1958SOL    HW2 6453   5.587   4.563   0.600  0.7521  0.9552 -0.7355
 1959SOL     OW 6454   6.137   3.070   6.838  0.2014  0.3095  0.1469
 1959SOL    HW1 6455   6.131   3.029   6.925 -2.6171 -0.1251 -0.1699
 1959SOL    HW2 6456   6.195   3.012   6.789  0.8577 -0.1153  1.3707
 1960SOL     OW 6457   7.660   3.801   8.338  0.4308  0.2676  0.3549
 1960SOL    HW1 6458   7.603   3.819   8.264  2.1337  0.7573 -0.9156
 1960SOL    HW2 6459   7.602   3.771   8.408 -1.3308  0.7695 -0.8535
 1961SOL     OW 6460   2.933   3.653   0.551  0.3916  0.7227  0.4354
 1961SOL    HW1 6461   2.867   3.640   0.483  0.0713  1.2916  0.6270
 1961SOL    HW2 6462   3.000   3.708   0.509  0.2971  0.8988  0.5144
 1962SOL     OW 6463   2.839   6.288   0.872  0.3558  0.0764 -0.4465
 1962SOL    HW1 6464   2.861   6.279   0.965  1.4234  0.3430 -0.6601
 1962SOL    HW2 6465   2.862   6.378   0.850 -1.8861  0.6954 -0.4791
 1963SOL     OW 6466   9.267   4.362   5.133  0.8372 -0.2708  0.3648
 1963SOL    HW1 6467   9.285   4.376   5.040 -0.9355  0.0344  0.0312
 1963SOL    HW2 6468   9.227   4.444   5.162 -0.5280 -1.0838  0.8642
 1964SOL     OW 6469   3.686   2.920   6.790 -0.2751  0.6485  0.5659
 1964SOL    HW1 6470   3.633   2.931   6.711  1.6141 -1.1316 -1.0922
 1964SOL    HW2 6471   3.634   2.864   6.847 -0.3507 -0.9199 -0.9371
 1965SOL     OW 6472   5.461  -0.025   9.065 -0.2547  0.1160 -0.1351
 1965SOL    HW1 6473   5.408   0.055   9.066 -1.7866 -0.8055 -1.4908
 1965SOL    HW2 6474   5.551   0.006   9.065 -0.7379  1.7710  1.8206
 1966SOL     OW 6475   8.977   7.695   2.545 -0.6425 -0.0186  0.3069
 1966SOL    HW1 6476   9.067   7.728   2.539  0.0019 -0.7666  3.5485
 1966SOL    HW2 6477   8.987   7.603   2.570 -2.3655 -0.5031 -0.5986
 1967SOL     OW 6478   6.350   6.753   5.793 -0.2317  0.3308 -0.3943
 1967SOL    HW1 6479   6.342   6.717   5.881 -0.0821  2.6110  0.6115
 1967SOL    HW2 6480   6.346   6.676   5.736  0.7412 -1.3323  1.6160
 1968SOL     OW 6481   8.572   7.156   0.438  0.4632 -0.1377  0.4660
 1968SOL    HW1 6482   8.648   7.117   0.479  1.0379  0.2914 -0.1562
 1968SOL    HW2 6483   8.515   7.082   0.416  0.6942 -0.4583  0.9352
 1969SOL     OW 6484   0.832   3.653   4.901  0.9903 -0.4974 -0.3144
 1969SOL    HW1 6485   0.777   3.579   4.928 -2.1281  0.3347 -3.6246
 1969SOL    HW2 6486   0.820   3.718   4.970 -1.6150 -0.6780 -0.5205
 1970SOL     OW 6487   4.054   3.724   6.222 -0.6166 -0.0254  0.5914
 1970SOL    HW1 6488   4.085   3.814   6.211 -0.9776  0.0191 -0.0955
 1970SOL    HW2 6489   3.962   3.734   6.245 -1.1472 -0.2478 -1.2815
 1971SOL     OW 6490   2.279   7.702   1.153  0.0240  0.2427 -0.4457
 1971SOL    HW1 6491   2.187   7.711   1.127 -0.9074 -0.8184  2.1186
 1971SOL    HW2 6492   2.298   7.783   1.201  0.6895  0.7739 -1.5711
 1972SOL     OW 6493   2.974   9.503   2.931 -0.1374 -0.4187 -0.9570
 1972SOL    HW1 6494   3.021   9.569   2.880  1.1237  0.0049  0.6542
 1972SOL    HW2 6495   3.011   9.420   2.903  2.2804 -0.0458  0.8483
 1973SOL     OW 6496   0.298   3.212   0.334  0.1705 -0.3866 -0.1857
 1973SOL    HW1 6497   0.235   3.272   0.374 -1.3541 -1.4503 -0.8855
 1973SOL    HW2 6498   0.343   3.172   0.408  0.0365  0.4127  0.3370
 1974SOL     OW 6499   3.577   5.158   4.834 -0.3231 -0.1917  0.6184
 1974SOL    HW1 6500   3.511   5.226   4.819 -1.4583 -1.1390  1.1158
 1974SOL    HW2 6501   3.547   5.113   4.913 -0.3153 -2.0890 -0.4170
 1975SOL     OW 6502   1.717   0.388   1.183 -0.9964  0.6838 -0.0683
 1975SOL    HW1 6503   1.643   0.346   1.138 -1.1172  1.2555 -0.4145
 1975SOL    HW2 6504   1.790   0.378   1.122  0.2291 -3.0732  1.7065
 1976SOL     OW 6505   9.162   8.276   9.777  0.5138 -0.4474  0.1467
 1976SOL    HW1 6506   9.180   8.345   9.841 -0.9875  0.9764 -0.8643
 1976SOL    HW2 6507   9.243   8.226   9.773  2.2496  2.1519 -0.1287
 1977SOL     OW 6508   7.061   0.174   1.775 -0.5444 -0.0355 -0.1269
 1977SOL    HW1 6509   7.042   0.155   1.683 -4.1752  0.3297  0.4053
 1977SOL    HW2 6510   7.153   0.198   1.776  0.3714 -2.6483 -3.2106
 1978SOL     OW 6511   2.549   9.899   5.122 -0.1853 -0.0579 -0.4697
 1978SOL    HW1 6512   2.612   9.835   5.088  0.7974  1.8007 -2.3853
 1978SOL    HW2 6513   2.507   9.854   5.195  1.5762 -2.2907 -0.7018
 1979SOL     OW 6514   4.519   7.166   8.560  0.0012  0.1086 -0.2809
 1979SOL    HW1 6515   4.496   7.076   8.582  1.0622  0.1652  1.2249
 1979SOL    HW2 6516   4.440   7.217   8.581 -0.9827 -0.5578 -2.1583
 1980SOL     OW 6517   9.122   2.857   4.589 -0.1703  0.4834  0.4091
 1980SOL    HW1 6518   9.106   2.908   4.510  1.7765  0.0211 -0.3388
 1980SOL    HW2 6519   9.186   2.909   4.638  1.6343 -1.0240 -0.2305
 1981SOL     OW 6520   1.575   0.371   7.342  0.4305 -0.0034  0.2348
 1981SOL    HW1 6521   1.497   0.395   7.293  0.8376 -0.0240 -0.4415
 1981SOL    HW2 6522   1.566   0.418   7.425  0.1848  0.8114 -0.2345
 1982SOL     OW 6523   1.552   7.858   0.970  0.4793  0.2583 -0.3689
 1982SOL    HW1 6524   1.464   7.830   0.944  0.2892  1.2559 -0.8855
 1982SOL    HW2 6525   1.542   7.885   1.061  0.3614 -0.0782 -0.2804
 1983SOL     OW 6526   3.161   6.307   1.897  0.0992 -0.6778  0.0049
 1983SOL    HW1 6527   3.172   6.238   1.831 -2.7144  0.1000 -1.4048
 1983SOL    HW2 6528   3.240   6.361   1.888  0.0160 -0.8701 -2.4111
 1984SOL     OW 6529   6.871   3.940   3.756  0.1884  0.4750  0.4536
 1984SOL    HW1 6530   6.821   3.907   3.681  0.5711  0.8088  0.0523
 1984SOL    HW2 6531   6.878   3.865   3.815 -2.7463  0.9425  1.5947
 1985SOL     OW 6532   6.237   8.937   2.912  0.5307 -0.4391  0.5049
 1985SOL    HW1 6533   6.168   8.920   2.976 -0.6593  1.6725 -0.1054
 1985SOL    HW2 6534   6.191   8.943   2.828  1.8625 -1.6956 -0.3555
 1986SOL     OW 6535   0.534   4.488   8.070 -0.3517  0.5822 -0.3983
 1986SOL    HW1 6536   0.535   4.582   8.050  1.1450  0.3241 -1.8523
 1986SOL    HW2 6537   0.618   4.472   8.113 -0.8428 -0.0068  0.3616
 1987SOL     OW 6538   3.900   7.335   2.525 -0.2958  0.1029 -0.2824
 1987SOL    HW1 6539   3.810   7.306   2.510  0.5134 -2.0925 -1.3955
 1987SOL    HW2 6540   3.935   7.349   2.437  1.0348 -1.0870  0.0307
 1988SOL     OW 6541   2.465   7.588   6.826  0.4517 -0.0616  1.0566
 1988SOL    HW1 6542   2.409   7.531   6.773  1.4857  0.0079 -0.1741
 1988SOL    HW2 6543   2.407   7.656   6.858 -0.2699 -0.2723  0.2389
 1989SOL     OW 6544   8.184   0.738   4.720  0.1566  0.0232 -0.1933
 1989SOL    HW1 6545   8.276   0.715   4.729  0.1539  0.3869  0.9591
 1989SOL    HW2 6546   8.138   0.667   4.765 -0.0170  0.7439  0.7870
 1990SOL     OW 6547   9.246   6.118   6.807  0.1754  0.0153 -0.1537
 1990SOL    HW1 6548   9.179   6.097   6.872 -0.7795 -0.9191 -1.3992
 1990SOL    HW2 6549   9.198   6.165   6.739  1.2641  1.4636  0.0251
 1991SOL     OW 6550   8.817   1.666   2.609  0.0231  0.5320  0.2589
 1991SOL    HW1 6551   8.860   1.691   2.691 -0.0560  0.0608  0.4506
 1991SOL    HW2 6552   8.763   1.591   2.633  0.9753 -0.4198 -0.4746
 1992SOL     OW 6553   8.704   6.136   3.874 -0.0695 -0.0138 -0.1099
 1992SOL    HW1 6554   8.767   6.192   3.919  0.1174  0.9866 -1.5398
 1992SOL    HW2 6555   8.722   6.150   3.781 -1.6730 -0.5459 -0.5325
 1993SOL     OW 6556   3.672   3.595   8.932 -0.3131  0.3502  0.0807
 1993SOL    HW1 6557   3.666   3.674   8.878  2.2121 -0.1751 -1.1296
 1993SOL    HW2 6558   3.739   3.615   8.997  0.5681 -0.8403 -0.4113
 1994SOL     OW 6559   2.816   6.664   6.898 -0.2539 -0.2258  0.0398
 1994SOL    HW1 6560   2.862   6.602   6.955  0.4125  1.3053  1.2181
 1994SOL    HW2 6561   2.725   6.662   6.928  0.2264  1.1158  1.7343
 1995SOL     OW 6562   4.942   9.517   9.729 -0.3940 -0.4697  0.4224
 1995SOL    HW1 6563   4.966   9.430   9.697  1.8210  0.1060  0.3395
 1995SOL    HW2 6564   4.946   9.573   9.652 -0.3425 -0.0352  0.7353
 1996SOL     OW 6565   8.868   3.419   9.396  0.7499  0.2953  0.4425
 1996SOL    HW1 6566   8.869   3.457   9.308  1.1349  0.4591  0.5160
 1996SOL    HW2 6567   8.889   3.327   9.382  0.2679  0.1998  0.3106
 1997SOL     OW 6568   0.614   0.371   1.809 -0.4496 -0.0855  0.0270
 1997SOL    HW1 6569   0.646   0.369   1.719 -1.8856 -2.0811 -0.5134
 1997SOL    HW2 6570   0.524   0.400   1.802 -0.5044 -0.0382  0.8480
 1998SOL     OW 6571   0.507   6.607   5.762 -0.2908  0.5117  0.2376
 1998SOL    HW1 6572   0.580   6.554   5.793 -0.1867 -0.5510 -1.6757
 1998SOL    HW2 6573   0.532   6.697   5.783  2.7576  0.4454 -2.4098
 1999SOL     OW 6574   2.888   0.183   5.002 -0.0551  0.3419  0.5655
 1999SOL    HW1 6575   2.845   0.112   4.954 -0.5844  0.4003  0.9337
 1999SOL    HW2 6576   2.837   0.190   5.083  0.7051  0.3666  1.0541
 2000SOL     OW 6577   5.970   1.851   0.336 -0.2017 -0.1162  0.7320
 2000SOL    HW1 6578   5.986   1.770   0.384  2.4831  0.2390  0.5691
 2000SOL    HW2 6579   6.016   1.918   0.386  0.5560  0.6889 -0.9696
 2001SOL     OW 6580   3.391   0.541   6.711  0.0180  0.2038 -0.1069
 2001SOL    HW1 6581   3.413   0.558   6.803 -2.3068  1.5184  0.2829
 2001SOL    HW2 6582   3.457   0.589   6.661  2.0460 -1.4997  0.7860
 2002SOL     OW 6583   1.397   6.331   8.642  0.5002  0.4633  0.1298
 2002SOL    HW1 6584   1.387   6.290   8.728  1.0845 -0.7252 -0.3379
 2002SOL    HW2 6585   1.316   6.380   8.629 -1.2302 -2.2256 -0.1234
 2003SOL     OW 6586   9.995   6.941   2.343  0.3028  0.1091 -0.3831
 2003SOL    HW1 6587   9.982   6.884   2.268 -1.6800 -1.9103  1.3352
 2003SOL    HW2 6588   9.948   7.022   2.320 -0.9730 -0.7841 -1.0462
 2004SOL     OW 6589   7.744   6.836   6.366 -0.0827 -0.1699 -0.4640
 2004SOL    HW1 6590   7.711   6.838   6.276 -0.6918  1.6321 -0.2468
 2004SOL    HW2 6591   7.665   6.843   6.420  0.2550 -1.5279  0.2418
 2005SOL     OW 6592   1.893   8.890   5.015 -0.0464  0.4342  0.0417
 2005SOL    HW1 6593   1.882   8.878   5.110 -1.0675 -1.7825 -0.2979
 2005SOL    HW2 6594   1.833   8.961   4.993 -0.3021  0.5151  0.9411
 2006SOL     OW 6595   0.594   7.995   4.031 -0.1954 -0.5100  0.2249
 2006SOL    HW1 6596   0.639   8.079   4.040  0.3668 -0.8550  0.6600
 2006SOL    HW2 6597   0.519   8.002   4.091 -0.8507  0.1378 -0.6450
 2007SOL     OW 6598   1.382   4.762   7.825 -0.6371 -0.6268  0.3688
 2007SOL    HW1 6599   1.325   4.795   7.895 -1.2992 -1.6685  0.3461
 2007SOL    HW2 6600   1.471   4.781   7.855 -0.9326 -0.6005  1.2525
 2008SOL     OW 6601   6.164   3.159   4.335  0.7523  0.2716  0.4641
 2008SOL    HW1 6602   6.173   3.241   4.384  2.2250  0.0987  0.5310
 2008SOL    HW2 6603   6.218   3.097   4.382 -0.7278 -0.9063  0.6924
 2009SOL     OW 6604   4.246   3.505   0.184 -0.5917  0.5296  0.0734
 2009SOL    HW1 6605   4.189   3.432   0.158 -0.3051  0.1955  0.3855
 2009SOL    HW2 6606   4.199   3.547   0.256 -0.9798  0.9448 -0.4052
 2010SOL     OW 6607   2.751   1.862   6.531  0.5161 -0.3246  0.3251
 2010SOL    HW1 6608   2.724   1.794   6.593 -0.1116  0.0143  0.4294
 2010SOL    HW2 6609   2.680   1.865   6.467 -0.1667  1.2370  1.1227
 2011SOL     OW 6610   1.783   0.924   2.114  0.2651 -0.3773 -0.2658
 2011SOL    HW1 6611   1.697   0.967   2.112 -0.1947 -1.2855 -0.3130
 2011SOL    HW2 6612   1.845   0.997   2.123 -0.6135  0.1726  2.2338
 2012SOL     OW 6613   3.462   1.161   7.390  0.2951  0.4161 -0.1390
 2012SOL    HW1 6614   3.495   1.075   7.415  1.3612  0.8700  0.0960
 2012SOL    HW2 6615   3.535   1.221   7.409  0.4728  1.0578 -2.4758
 2013SOL     OW 6616   6.326   2.059   5.315  0.4693  0.3029  0.0212
 2013SOL    HW1 6617   6.301   2.017   5.233  0.4089  2.0032 -0.8875
 2013SOL    HW2 6618   6.264   2.026   5.380  0.6684 -1.2520 -0.5395
 2014SOL     OW 6619   7.967   9.375   7.045 -0.3474  0.7309  0.1857
 2014SOL    HW1 6620   7.957   9.466   7.020 -2.8520  0.4906  0.0852
 2014SOL    HW2 6621   8.062   9.361   7.048  0.0807  3.0712 -0.6388
 2015SOL     OW 6622   4.369   7.345   4.876  0.4222 -0.8540  0.1763
 2015SOL    HW1 6623   4.307   7.346   4.949  0.8497 -1.1564  0.5477
 2015SOL    HW2 6624   4.402   7.255   4.873  0.5138 -0.8094 -0.3011
 2016SOL     OW 6625   8.320   7.315   6.785 -0.0858  0.3952  0.6910
 2016SOL    HW1 6626   8.379   7.361   6.727  0.4260 -0.5498  0.4335
 2016SOL    HW2 6627   8.294   7.380   6.850 -0.8220  1.5238 -0.6727
 2017SOL     OW 6628   9.246   0.259   7.514 -0.6505 -0.1254  0.2916
 2017SOL    HW1 6629   9.157   0.291   7.499 -0.8860 -0.5733  0.6570
 2017SOL    HW2 6630   9.249   0.241   7.608  0.2599  1.1319  0.5219
 2018SOL     OW 6631   6.678   9.289   8.666  0.2751 -0.6230  0.1543
 2018SOL    HW1 6632   6.695   9.306   8.574 -0.0932  0.0183  0.2011
 2018SOL    HW2 6633   6.583   9.289   8.674  0.2987  1.1994  0.8632
 2019SOL     OW 6634   5.008   1.332   7.353 -0.3506 -0.2627  0.2618
 2019SOL    HW1 6635   5.083   1.346   7.410 -0.0583 -0.1848 -0.1416
 2019SOL    HW2 6636   5.044   1.333   7.265 -0.4309 -2.6150  0.1317
 2020SOL     OW 6637   5.994   1.411   2.082  0.1971 -0.0647 -0.0102
 2020SOL    HW1 6638   5.907   1.372   2.083 -0.1693  0.6954 -1.0398
 2020SOL    HW2 6639   6.053   1.337   2.067 -0.2364 -0.6004  0.7903
 2021SOL     OW 6640   1.170   6.020   8.649 -0.0352 -0.2718  0.0688
 2021SOL    HW1 6641   1.144   5.937   8.610 -2.8977  0.8986 -0.7276
 2021SOL    HW2 6642   1.128   6.087   8.595  1.4024  1.6917  1.2288
 2022SOL     OW 6643   5.725   2.373   3.204 -0.2058 -0.5810  0.2597
 2022SOL    HW1 6644   5.818   2.381   3.185 -0.1471 -1.4341  0.1813
 2022SOL    HW2 6645   5.717   2.395   3.297 -0.0664  0.4041  0.0585
 2023SOL     OW 6646   7.442   1.577   7.583 -0.1277  0.2587  0.0439
 2023SOL    HW1 6647   7.472   1.499   7.629  0.2455 -0.1870 -0.9370
 2023SOL    HW2 6648   7.521   1.626   7.563 -0.2207  0.1302 -0.6770
 2024SOL     OW 6649   2.956   9.518   0.507 -0.0009 -0.1957 -0.4018
 2024SOL    HW1 6650   3.044   9.501   0.472  0.0581  0.7346 -0.7368
 2024SOL    HW2 6651   2.901   9.451   0.467  0.0480  0.8931 -2.4327
 2025SOL     OW 6652   6.758   0.843   7.577 -0.2160 -0.6774  0.0086
 2025SOL    HW1 6653   6.825   0.887   7.628 -1.7202 -2.2957  3.8202
 2025SOL    HW2 6654   6.710   0.913   7.533  1.3118  0.8321  0.6747
 2026SOL     OW 6655   1.768   7.963   4.301 -0.7476 -0.0718 -0.3090
 2026SOL    HW1 6656   1.805   7.933   4.384 -2.5728  0.7653  0.8754
 2026SOL    HW2 6657   1.740   8.053   4.319 -0.3040  0.4605 -2.1461
 2027SOL     OW 6658   3.958   1.712   8.091  0.4271 -0.0113  0.1682
 2027SOL    HW1 6659   3.890   1.767   8.130  1.1957  0.8674  0.3108
 2027SOL    HW2 6660   3.912   1.633   8.064 -0.7467  0.7724 -0.2149
 2028SOL     OW 6661   9.321   8.011   2.593  0.4611 -0.0837 -0.1322
 2028SOL    HW1 6662   9.352   8.068   2.663 -0.4981 -1.4139  1.4756
 2028SOL    HW2 6663   9.359   7.925   2.614 -1.7724 -1.0665  0.1988
 2029SOL     OW 6664   3.196   4.990   0.514  0.2392 -0.1806  0.1373
 2029SOL    HW1 6665   3.145   4.932   0.571 -1.9165 -0.7619 -2.1623
 2029SOL    HW2 6666   3.279   4.945   0.500 -0.4309 -1.5128  0.3595
 2030SOL     OW 6667   1.151   1.012   0.910  0.4830 -0.5430 -0.3323
 2030SOL    HW1 6668   1.225   1.001   0.851 -0.1612  2.8550 -2.0502
 2030SOL    HW2 6669   1.189   1.048   0.990  0.8964 -0.9322 -0.3501
 2031SOL     OW 6670   4.328   8.893   4.347  0.2463 -0.0705 -0.2468
 2031SOL    HW1 6671   4.377   8.883   4.265  1.2946 -1.0670  0.4607
 2031SOL    HW2 6672   4.297   8.805   4.367 -0.8270  0.3379 -0.0458
 2032SOL     OW 6673   3.096   6.795   5.953 -0.5033  0.4322 -0.0488
 2032SOL    HW1 6674   3.028   6.859   5.972 -1.3997 -0.8720  1.3997
 2032SOL    HW2 6675   3.117   6.756   6.038  0.6475 -0.5604 -0.7494
 2033SOL     OW 6676   6.997   0.146   8.658  0.1964  0.2850  0.6448
 2033SOL    HW1 6677   6.983   0.223   8.713  0.7551  1.1015 -0.3318
 2033SOL    HW2 6678   6.909   0.123   8.626  0.1166  0.9294  0.3974
 2034SOL     OW 6679   4.064   5.256   1.550 -0.7216  0.7875  0.3116
 2034SOL    HW1 6680   4.023   5.172   1.568 -0.0493  0.1834 -0.8619
 2034SOL    HW2 6681   4.134   5.263   1.616 -0.1082 -0.0748 -0.2264
 2035SOL     OW 6682   2.506   9.546   6.706  0.1199  0.5423 -0.6188
 2035SOL    HW1 6683   2.410   9.541   6.709  0.1407 -0.0016  2.6526
 2035SOL    HW2 6684   2.533   9.460   6.676 -0.3694  0.6026 -1.2784
 2036SOL     OW 6685   3.294   7.102   7.569 -0.4737 -0.0157 -0.2623
 2036SOL    HW1 6686   3.344   7.094   7.650 -0.0781  2.0021 -0.2596
 2036SOL    HW2 6687   3.361   7.105   7.500 -0.7233  0.2015 -0.4934
 2037SOL     OW 6688   6.722   2.403   3.112  0.4236 -0.4986  0.2220
 2037SOL    HW1 6689   6.778   2.347   3.167  0.6817 -1.2624 -0.7765
 2037SOL    HW2 6690   6.710   2.483   3.163  1.1606 -0.9407  1.1190
 2038SOL     OW 6691   1.497   5.486   3.937 -0.2479 -0.0194 -0.3211
 2038SOL    HW1 6692   1.585   5.502   3.901 -1.3177  4.5393 -1.5564
 2038SOL    HW2 6693   1.505   5.510   4.029 -0.0148 -0.3508 -0.2546
 2039SOL     OW 6694   0.520   4.481   1.701 -0.0751  0.2375  0.3699
 2039SOL    HW1 6695   0.487   4.415   1.640 -0.0031  0.5216  0.0209
 2039SOL    HW2 6696   0.602   4.444   1.734 -1.2964 -1.0333  2.1785
 2040SOL     OW 6697   7.023   1.061   4.709  0.3926 -0.4978  0.0794
 2040SOL    HW1 6698   6.958   1.124   4.677 -0.4220 -1.7057 -0.7040
 2040SOL    HW2 6699   7.107   1.105   4.694 -0.1990  1.7123  2.4450
 2041SOL     OW 6700   8.546   6.926   8.665 -0.4627 -0.0682 -0.4697
 2041SOL    HW1 6701   8.566   7.003   8.612  0.8394  2.0671  2.8641
 2041SOL    HW2 6702   8.460   6.944   8.702 -0.8456 -0.9965 -0.8584
 2042SOL     OW 6703   9.652   5.880   7.517 -0.5539  0.2499 -0.3865
 2042SOL    HW1 6704   9.655   5.975   7.530  1.1778  0.2423 -0.5251
 2042SOL    HW2 6705   9.592   5.868   7.443 -1.4497  1.1480  0.1616
 2043SOL     OW 6706   6.125   5.498   3.244  0.6374  0.3753  0.0215
 2043SOL    HW1 6707   6.183   5.475   3.317 -0.1554  2.5386  1.4607
 2043SOL    HW2 6708   6.170   5.568   3.198  0.7254 -0.3682 -1.0579
 2044SOL     OW 6709   5.573   3.639   0.221  0.6200 -0.3621  0.0868
 2044SOL    HW1 6710   5.571   3.547   0.194 -0.0143  0.1261 -1.6293
 2044SOL    HW2 6711   5.522   3.642   0.302 -0.0685 -1.3815 -0.2993
 2045SOL     OW 6712   0.443   0.736   4.851  0.6635  0.0723  0.2043
 2045SOL    HW1 6713   0.427   0.754   4.943 -0.0350 -0.6932  0.2416
 2045SOL    HW2 6714   0.494   0.655   4.850  0.1569 -0.2517 -0.0922
 2046SOL     OW 6715   6.968   6.881   9.611  0.1089  0.1233  0.5680
 2046SOL    HW1 6716   6.995   6.790   9.617  0.6948  0.3110  0.8719
 2046SOL    HW2 6717   6.880   6.883   9.649  0.7098 -0.0522  2.0332
 2047SOL     OW 6718   9.556   4.390   6.129  0.3156  0.3972  0.2113
 2047SOL    HW1 6719   9.517   4.377   6.216  0.7269 -1.1052  0.1915
 2047SOL    HW2 6720   9.511   4.327   6.073  2.6472 -1.3446  0.1746
 2048SOL     OW 6721   5.928   1.165   2.277 -0.4274  0.1827  0.0212
 2048SOL    HW1 6722   5.908   1.193   2.188 -1.8283  1.0140  0.5726
 2048SOL    HW2 6723   5.866   1.094   2.295 -0.4768  0.3336  0.4798
 2049SOL     OW 6724   1.242   4.015   7.668 -0.1529 -0.0407 -0.2061
 2049SOL    HW1 6725   1.243   4.024   7.573 -0.8842  0.1048 -0.2052
 2049SOL    HW2 6726   1.158   3.973   7.687 -0.1479  0.2196  0.3982
 2050SOL     OW 6727   9.005   6.392   7.402 -0.0184 -0.4734 -0.0267
 2050SOL    HW1 6728   8.995   6.478   7.443  0.8905 -0.7128  0.7426
 2050SOL    HW2 6729   8.953   6.397   7.322  0.4788  0.9796 -0.2887
 2051SOL     OW 6730   2.110   9.530   9.779  0.1672 -0.6398 -0.2176
 2051SOL    HW1 6731   2.145   9.458   9.726 -0.1817  0.2193 -1.6587
 2051SOL    HW2 6732   2.064   9.585   9.717  0.6421  0.9892  0.8156
 2052SOL     OW 6733   9.186   9.205   3.734  0.4875  0.2950 -0.3480
 2052SOL    HW1 6734   9.126   9.186   3.806 -0.1262  0.6182 -0.7641
 2052SOL    HW2 6735   9.233   9.122   3.719  1.6474  0.5830  1.3352
 2053SOL     OW 6736   1.659   9.967   9.733  0.5541  0.0488 -0.0478
 2053SOL    HW1 6737   1.591  10.006   9.678  1.5407  0.7489 -0.8034
 2053SOL    HW2 6738   1.611   9.922   9.802 -0.6734  2.7740  1.0128
 2054SOL     OW 6739   1.952   8.943   2.497  0.5316  0.3628  0.4458
 2054SOL    HW1 6740   1.965   8.973   2.407  1.7168  0.8973  0.7789
 2054SOL    HW2 6741   2.012   8.869   2.507 -1.2128 -1.1915  0.1353
 2055SOL     OW 6742   9.613   3.605   9.838  0.0869  0.1055 -0.4960
 2055SOL    HW1 6743   9.608   3.700   9.828 -0.2291  0.0379 -0.9877
 2055SOL    HW2 6744   9.570   3.587   9.921 -1.0009  0.2701 -1.0165
 2056SOL     OW 6745   6.633   2.605   7.033  0.0916 -0.0931  0.3056
 2056SOL    HW1 6746   6.664   2.680   7.083 -1.2792  1.0416 -0.4639
 2056SOL    HW2 6747   6.538   2.615   7.032 -0.1420 -1.9469  0.3094
 2057SOL     OW 6748   9.191   5.921   3.842 -0.2602  0.0927 -0.4382
 2057SOL    HW1 6749   9.275   5.964   3.857 -0.0942 -0.3541 -0.0857
 2057SOL    HW2 6750   9.201   5.834   3.880 -1.3793  0.5283  0.9264
 2058SOL     OW 6751   1.774   4.145   1.685 -0.3853 -0.5604  0.4661
 2058SOL    HW1 6752   1.720   4.068   1.667  0.9352 -1.4720  0.2212
 2058SOL    HW2 6753   1.799   4.136   1.777  1.6946 -1.7446 -0.1510
 2059SOL     OW 6754   4.619   2.134   8.749 -0.3414  0.5708 -0.0393
 2059SOL    HW1 6755   4.695   2.114   8.804 -0.3757  1.7327  0.4769
 2059SOL    HW2 6756   4.560   2.059   8.761  0.7748 -0.4123 -0.5696
 2060SOL     OW 6757   4.885   0.932   8.095  0.5014  0.0591 -0.0402
 2060SOL    HW1 6758   4.939   0.891   8.027 -0.1849 -0.4188 -0.3129
 2060SOL    HW2 6759   4.900   1.026   8.084  0.8274 -0.0390 -0.4866
 2061SOL     OW 6760   3.625   2.513   7.273 -0.2550  0.0173 -0.0837
 2061SOL    HW1 6761   3.690   2.471   7.216  0.0211 -1.5132  1.2852
 2061SOL    HW2 6762   3.555   2.448   7.282  0.6474 -0.6834  2.9151
 2062SOL     OW 6763   8.643   7.886   0.067 -0.4175  0.1021 -1.0032
 2062SOL    HW1 6764   8.723   7.835   0.074  0.1829  1.0782 -0.5904
 2062SOL    HW2 6765   8.664   7.971   0.107 -1.6086  0.4227 -1.0039
 2063SOL     OW 6766   9.710   6.698   2.373 -0.3220 -0.1288 -0.3590
 2063SOL    HW1 6767   9.643   6.643   2.333 -0.5833  0.1434 -0.3016
 2063SOL    HW2 6768   9.793   6.652   2.356 -0.1690  0.9319 -2.9618
 2064SOL     OW 6769   3.734   8.733   1.435  0.2807 -0.7151  0.1431
 2064SOL    HW1 6770   3.732   8.675   1.512  0.8973 -0.8667  0.0540
 2064SOL    HW2 6771   3.827   8.737   1.412  0.0705 -0.8821 -0.7529
 2065SOL     OW 6772   9.211   5.882   1.359 -0.1642  0.0365  0.4117
 2065SOL    HW1 6773   9.228   5.903   1.451 -2.1696 -0.5827  0.9701
 2065SOL    HW2 6774   9.205   5.786   1.357 -0.1160  0.0464 -0.3618
 2066SOL     OW 6775   8.033   7.370   1.293 -0.9635 -0.0122 -0.0390
 2066SOL    HW1 6776   8.091   7.296   1.277 -0.3625  0.3664  0.3362
 2066SOL    HW2 6777   7.951   7.347   1.248 -1.8776 -2.2708  2.4757
 2067SOL     OW 6778   4.644   4.116   8.453  0.3202 -0.4519  0.3314
 2067SOL    HW1 6779   4.734   4.090   8.471  0.9717  0.4516 -1.3718
 2067SOL    HW2 6780   4.624   4.075   8.368 -0.4769  0.2495  0.1646
 2068SOL     OW 6781   3.327   3.258   1.322 -0.0174 -0.4802  0.2802
 2068SOL    HW1 6782   3.340   3.208   1.403  1.3430  0.1438  0.4899
 2068SOL    HW2 6783   3.238   3.238   1.295 -0.7851 -0.1397  2.3545
 2069SOL     OW 6784   9.226   7.864   3.317 -0.3194  0.1282 -0.0473
 2069SOL    HW1 6785   9.234   7.959   3.308  0.3422  0.3361  2.2475
 2069SOL    HW2 6786   9.223   7.832   3.226  0.0118  2.2729 -0.8770
 2070SOL     OW 6787   6.825   6.889   7.100  0.0473  0.0887  0.5692
 2070SOL    HW1 6788   6.841   6.982   7.083  0.6157 -0.0243  0.4611
 2070SOL    HW2 6789   6.849   6.877   7.192 -0.5399  0.1577  0.7344
 2071SOL     OW 6790   1.063   8.644   5.703 -0.4936  0.3028  0.5622
 2071SOL    HW1 6791   1.081   8.738   5.692  0.1408  0.2322  0.9156
 2071SOL    HW2 6792   1.134   8.613   5.759  1.0905 -1.0060 -1.9910
 2072SOL     OW 6793   7.979   6.917   7.305  0.2340  0.3622  0.0998
 2072SOL    HW1 6794   7.938   7.003   7.300 -0.7698 -0.0773  0.5443
 2072SOL    HW2 6795   8.060   6.932   7.354  1.3647  1.4901 -1.9509
 2073SOL     OW 6796   7.626   3.234   1.160  0.1904  0.3590 -0.0843
 2073SOL    HW1 6797   7.665   3.319   1.180 -2.0405  1.0992  1.3954
 2073SOL    HW2 6798   7.611   3.194   1.245 -0.5903 -0.6800 -0.6882
 2074SOL     OW 6799   4.207   8.459   4.920 -0.3919  0.4721 -0.0256
 2074SOL    HW1 6800   4.161   8.410   4.989  0.0008 -2.1811 -1.5220
 2074SOL    HW2 6801   4.300   8.446   4.940 -0.2636 -0.9314 -1.3845
 2075SOL     OW 6802   3.078   7.897   5.025  0.3878  0.7289 -0.8484
 2075SOL    HW1 6803   2.986   7.905   5.000  0.5282  1.2409 -1.2347
 2075SOL    HW2 6804   3.107   7.988   5.037  0.5179  0.5341  0.5002
 2076SOL     OW 6805   6.031   4.703   3.434 -0.1035  0.3186 -0.7232
 2076SOL    HW1 6806   5.942   4.699   3.469  0.8290  0.9036  1.9468
 2076SOL    HW2 6807   6.039   4.792   3.397 -0.4025  0.5156 -0.3157
 2077SOL     OW 6808   4.145   0.133   6.714 -0.3243  0.1033  0.1778
 2077SOL    HW1 6809   4.215   0.069   6.699 -0.4461 -0.2383  0.9722
 2077SOL    HW2 6810   4.185   0.199   6.771  0.2088  1.4970 -1.7180
 2078SOL     OW 6811   3.343   4.514   0.672 -0.1002 -0.4013  0.0849
 2078SOL    HW1 6812   3.315   4.427   0.645  0.3871 -0.4598 -0.2545
 2078SOL    HW2 6813   3.414   4.536   0.611 -1.4615  1.0179 -1.0854
 2079SOL     OW 6814   0.700   4.586   5.816  1.1449  0.5226 -0.1013
 2079SOL    HW1 6815   0.780   4.586   5.868  0.7841  0.3903  0.4643
 2079SOL    HW2 6816   0.649   4.660   5.849  1.6641  1.5371 -1.4736
 2080SOL     OW 6817   5.529   2.370   3.525 -0.3214  0.0441  0.2070
 2080SOL    HW1 6818   5.548   2.294   3.579  0.1084  0.6965  0.9991
 2080SOL    HW2 6819   5.512   2.334   3.438  2.4016 -0.7796 -0.0864
 2081SOL     OW 6820   5.846   0.224   1.244  0.5901 -0.0922  0.6362
 2081SOL    HW1 6821   5.826   0.257   1.331 -0.8412 -0.0157  0.2967
 2081SOL    HW2 6822   5.921   0.277   1.215  0.8483  0.1262  1.6562
 2082SOL     OW 6823   5.660   0.451   1.933 -0.8513 -0.5745 -0.2185
 2082SOL    HW1 6824   5.740   0.495   1.902 -1.5665  1.0573  0.1531
 2082SOL    HW2 6825   5.663   0.365   1.891  1.6802 -1.0229  0.6695
 2083SOL     OW 6826   4.471   7.123   6.051  0.3416 -0.5734  0.0549
 2083SOL    HW1 6827   4.555   7.080   6.062  1.2508  1.1729  0.2278
 2083SOL    HW2 6828   4.408   7.065   6.095  1.4894 -1.7100  0.2393
 2084SOL     OW 6829   1.253   4.849   8.473 -0.1238  0.1941 -0.0385
 2084SOL    HW1 6830   1.254   4.838   8.568 -0.8954 -0.4096 -0.0934
 2084SOL    HW2 6831   1.308   4.926   8.457 -0.1808  0.4405  0.9157
 2085SOL     OW 6832   7.602   6.653   3.591 -0.1642  0.2268  0.6880
 2085SOL    HW1 6833   7.606   6.625   3.499  2.2035  0.5155  0.6392
 2085SOL    HW2 6834   7.617   6.573   3.641  0.5240  0.3773  0.7359
 2086SOL     OW 6835   1.302   8.584   8.756 -0.4584  0.0688 -0.5574
 2086SOL    HW1 6836   1.317   8.613   8.846  0.3446 -3.7971  0.7507
 2086SOL    HW2 6837   1.390   8.566   8.722 -0.8850 -1.4619 -0.9376
 2087SOL     OW 6838   8.341   2.896   3.365  0.5680 -0.0521 -0.2391
 2087SOL    HW1 6839   8.387   2.817   3.393 -0.3843 -0.5622 -0.0717
 2087SOL    HW2 6840   8.314   2.877   3.275 -1.8259 -0.9819  0.5767
 2088SOL     OW 6841   9.528   9.143   7.968 -0.6703  0.1301 -0.3053
 2088SOL    HW1 6842   9.535   9.053   8.000 -4.0033  0.4366  1.7565
 2088SOL    HW2 6843   9.442   9.147   7.926  0.0171  2.0418 -1.6844
 2089SOL     OW 6844   9.489   5.958   6.823 -0.1099 -0.1069  0.2923
 2089SOL    HW1 6845   9.467   5.916   6.906 -0.0370  0.7376  0.7524
 2089SOL    HW2 6846   9.413   6.013   6.804 -0.5889 -1.0939 -0.7542
 2090SOL     OW 6847  -0.022   5.401   5.104 -0.2546 -0.1971 -0.0303
 2090SOL    HW1 6848   0.061   5.381   5.147 -1.1758 -0.1735  1.8323
 2090SOL    HW2 6849  -0.001   5.471   5.042  1.0845 -0.1146  0.4979
 2091SOL     OW 6850   7.531   4.484   5.519  0.4676  0.6389 -0.2247
 2091SOL    HW1 6851   7.561   4.492   5.428  0.7100  1.3072 -0.0939
 2091SOL    HW2 6852   7.439   4.459   5.512  0.9883 -1.3630 -0.6417
 2092SOL     OW 6853   2.448   7.092   7.183  0.0751 -0.0682  0.0747
 2092SOL    HW1 6854   2.514   7.095   7.114 -0.2679  0.5258 -0.2344
 2092SOL    HW2 6855   2.418   7.001   7.183 -0.8261  0.2049 -1.4331
 2093SOL     OW 6856   1.478   2.088   2.254 -0.2566 -0.2303 -0.1148
 2093SOL    HW1 6857   1.457   2.053   2.341 -0.8261 -1.2065 -0.6214
 2093SOL    HW2 6858   1.410   2.053   2.197  0.2882  0.1346 -1.0204
 2094SOL     OW 6859   7.564   1.104   2.234  0.1673 -0.0604  0.7821
 2094SOL    HW1 6860   7.576   1.101   2.329  0.3837 -0.7498  0.7362
 2094SOL    HW2 6861   7.629   1.043   2.199  1.1749  1.3509  0.0778
 2095SOL     OW 6862   0.398   7.386   6.965  0.1714 -0.0722 -0.4206
 2095SOL    HW1 6863   0.492   7.371   6.972  0.3903  0.4538 -1.9081
 2095SOL    HW2 6864   0.387   7.480   6.975 -0.2463 -0.1752  0.1333
 2096SOL     OW 6865   5.382   0.715   1.160  0.6665 -0.0810 -0.3365
 2096SOL    HW1 6866   5.382   0.650   1.230 -1.4883  0.2285  0.0367
 2096SOL    HW2 6867   5.399   0.798   1.204 -1.4220  0.2163  0.0091
 2097SOL     OW 6868   4.757   5.868   2.952  0.1672  0.5591 -0.0942
 2097SOL    HW1 6869   4.759   5.932   2.881 -0.4658  1.3189  0.5517
 2097SOL    HW2 6870   4.832   5.890   3.007  0.0995  0.5790 -0.0098
 2098SOL     OW 6871   4.420   5.025   8.496  0.0075  0.5506  0.3797
 2098SOL    HW1 6872   4.508   4.988   8.493 -0.1739  0.1172 -2.7415
 2098SOL    HW2 6873   4.419   5.092   8.427 -1.6041  1.8591  1.5708
 2099SOL     OW 6874   1.325   3.991   5.528 -0.8543 -0.2161  0.0371
 2099SOL    HW1 6875   1.322   4.059   5.461 -0.9012  1.4410  1.6509
 2099SOL    HW2 6876   1.234   3.978   5.554 -0.6682  0.6484  1.1922
 2100SOL     OW 6877   6.761   2.540   2.414  0.2398 -0.7527  0.4839
 2100SOL    HW1 6878   6.752   2.585   2.498  0.4700  0.2117  0.0037
 2100SOL    HW2 6879   6.760   2.447   2.437 -2.6337 -0.6249  1.2766
 2101SOL     OW 6880   1.755   3.078   7.791  0.0932  0.1871 -0.5108
 2101SOL    HW1 6881   1.827   3.130   7.827  0.0446 -0.2200  0.1831
 2101SOL    HW2 6882   1.795   3.027   7.720  1.7474 -3.7337  2.8235
 2102SOL     OW 6883   8.155   7.179   2.625  0.1950 -0.1430  0.2696
 2102SOL    HW1 6884   8.100   7.252   2.597  1.8507  1.1236  0.1634
 2102SOL    HW2 6885   8.198   7.149   2.546  0.0625 -0.7881  0.4342
 2103SOL     OW 6886   8.417   9.779   6.473  0.6941  0.7648 -0.3382
 2103SOL    HW1 6887   8.466   9.779   6.390  0.3828 -0.7622 -0.5545
 2103SOL    HW2 6888   8.326   9.776   6.446  0.3575  3.9065  0.0608
 2104SOL     OW 6889   7.296   7.990   0.153  0.0622  0.8310  0.2826
 2104SOL    HW1 6890   7.294   7.895   0.165  1.5494  0.7410 -0.0308
 2104SOL    HW2 6891   7.314   8.024   0.241 -3.4724  1.0608  1.0552
 2105SOL     OW 6892   2.843   2.250   2.186 -0.1895  0.0487 -0.3386
 2105SOL    HW1 6893   2.933   2.242   2.154  0.7516  0.7945  1.9628
 2105SOL    HW2 6894   2.834   2.181   2.251 -1.6654 -0.6840 -1.2603
 2106SOL     OW 6895   1.616   0.039   0.735 -0.0937  0.1983  0.6898
 2106SOL    HW1 6896   1.660   0.118   0.701 -1.7016  0.2741 -1.4550
 2106SOL    HW2 6897   1.672  -0.033   0.707  0.7442  0.4797  1.5781
 2107SOL     OW 6898   7.324   2.910   8.813  0.0518  0.0639 -0.7231
 2107SOL    HW1 6899   7.309   2.983   8.873 -1.0576 -0.4682 -0.3102
 2107SOL    HW2 6900   7.292   2.941   8.729  0.4543  0.3734 -0.7656
 2108SOL     OW 6901   0.109   8.185   1.211 -0.5940 -0.0076  0.8913
 2108SOL    HW1 6902   0.032   8.241   1.219 -0.8116 -0.0669 -0.6136
 2108SOL    HW2 6903   0.100   8.122   1.283 -2.0761 -0.1553  0.6023
 2109SOL     OW 6904   5.119   1.399   5.611 -0.0246  0.1020 -0.1806
 2109SOL    HW1 6905   5.047   1.338   5.599 -1.1805  1.6361 -1.4124
 2109SOL    HW2 6906   5.197   1.350   5.587 -0.7528 -1.2815  0.1959
 2110SOL     OW 6907   0.068   2.520   3.781  0.4808  0.0665 -0.6303
 2110SOL    HW1 6908   0.133   2.579   3.818  2.7114 -1.7515 -1.3715
 2110SOL    HW2 6909   0.013   2.495   3.855  1.9819  0.0245  0.5169
 2111SOL     OW 6910   3.360   9.938   7.625 -0.1997 -0.6753  0.0768
 2111SOL    HW1 6911   3.443   9.954   7.579 -0.5617  3.1503  0.4297
 2111SOL    HW2 6912   3.307   9.890   7.561  1.6352 -1.6235 -0.8246
 2112SOL     OW 6913   9.146   7.621   9.783 -0.0003  0.1381 -0.7647
 2112SOL    HW1 6914   9.153   7.603   9.689  0.7281  0.5299 -0.7944
 2112SOL    HW2 6915   9.218   7.681   9.801 -0.7511  0.8885 -0.1509
 2113SOL     OW 6916   5.816   2.476   8.008  0.0692  0.0619 -0.0189
 2113SOL    HW1 6917   5.791   2.436   8.091 -1.7989  1.2099  0.0182
 2113SOL    HW2 6918   5.912   2.466   8.004  0.0285 -1.3139  1.5438
 2114SOL     OW 6919   8.732   3.578   7.060 -0.2909  0.2336 -0.0247
 2114SOL    HW1 6920   8.822   3.611   7.064  0.0216 -0.3950 -1.2754
 2114SOL    HW2 6921   8.697   3.592   7.148  0.1266  3.0059 -0.2113
 2115SOL     OW 6922   7.951   6.905   6.740  0.0502 -0.1847  0.4333
 2115SOL    HW1 6923   7.963   7.000   6.741  1.5785 -0.3503  0.3927
 2115SOL    HW2 6924   7.960   6.878   6.831 -1.6215 -0.1764  0.6201
 2116SOL     OW 6925   4.349   3.845   7.663  0.2105  0.2454  0.2088
 2116SOL    HW1 6926   4.358   3.757   7.626  1.2556  0.3111  0.3029
 2116SOL    HW2 6927   4.274   3.838   7.722  1.0537 -0.9268  1.1839
 2117SOL     OW 6928   1.679   3.473   1.980  0.5762  0.1277  0.6537
 2117SOL    HW1 6929   1.640   3.542   2.034 -0.2185  1.1341 -1.1263
 2117SOL    HW2 6930   1.604   3.428   1.941  1.1046  0.9918 -1.4812
 2118SOL     OW 6931   7.598   6.141   6.021 -0.3031  0.2912  0.0248
 2118SOL    HW1 6932   7.548   6.102   5.950  1.3800  0.8104 -1.5166
 2118SOL    HW2 6933   7.620   6.067   6.078 -0.2922 -0.4132 -0.8746
 2119SOL     OW 6934   6.021   5.150   5.455 -0.1295 -0.1645 -0.2904
 2119SOL    HW1 6935   6.016   5.228   5.511 -1.3957  0.0908 -0.7278
 2119SOL    HW2 6936   6.074   5.089   5.506  0.3356  0.7398  0.3551
 2120SOL     OW 6937   7.988   4.613   6.762 -0.4487 -0.1615 -0.1948
 2120SOL    HW1 6938   7.992   4.690   6.818 -0.0791  1.2231 -2.0415
 2120SOL    HW2 6939   8.058   4.556   6.796  0.1327  0.8635  0.4091
 2121SOL     OW 6940   7.932   8.479   0.443 -0.4022  0.2325 -0.4104
 2121SOL    HW1 6941   7.853   8.427   0.456 -1.2350  1.2141 -1.4321
 2121SOL    HW2 6942   7.992   8.420   0.398 -0.9422 -0.1884 -0.5896
 2122SOL     OW 6943   9.200   1.855   9.643 -0.3018 -0.0826  0.1823
 2122SOL    HW1 6944   9.256   1.843   9.720  0.6861 -1.6578 -0.7354
 2122SOL    HW2 6945   9.111   1.859   9.678  0.2697  1.4236  1.5779
 2123SOL     OW 6946   6.170   1.813   6.020 -0.4685 -0.0178  0.0901
 2123SOL    HW1 6947   6.102   1.850   6.077 -1.3641 -1.2299 -0.1288
 2123SOL    HW2 6948   6.121   1.775   5.946  0.3019 -2.0587  0.5573
 2124SOL     OW 6949   7.354   1.331   0.932  0.3877  0.2812  0.3162
 2124SOL    HW1 6950   7.288   1.400   0.931  0.0153  0.0459  2.5678
 2124SOL    HW2 6951   7.348   1.290   0.846 -3.1434 -0.3858  0.7228
 2125SOL     OW 6952   6.040   0.939   0.991 -0.2341 -0.3642  0.2071
 2125SOL    HW1 6953   5.998   0.862   1.030 -0.6154 -0.1823  0.1579
 2125SOL    HW2 6954   5.968   1.000   0.975 -0.0757 -0.4109 -0.7162
 2126SOL     OW 6955   3.805   3.645   3.949 -0.2301 -0.1415  0.3681
 2126SOL    HW1 6956   3.778   3.590   4.023  0.6130  1.2505  1.7812
 2126SOL    HW2 6957   3.899   3.661   3.964  0.8600 -2.5139 -2.8382
 2127SOL     OW 6958   8.382   6.941   6.321 -0.2215  0.3120 -0.0667
 2127SOL    HW1 6959   8.396   6.987   6.238 -1.6390 -0.1157 -0.5829
 2127SOL    HW2 6960   8.406   6.850   6.303 -0.2100  0.2854  0.0811
 2128SOL     OW 6961   5.040   2.867   8.457  0.1984  0.4673  0.4195
 2128SOL    HW1 6962   4.996   2.936   8.408 -1.8605 -0.9268  0.1874
 2128SOL    HW2 6963   5.133   2.887   8.449 -0.2479  2.0554 -1.3356
 2129SOL     OW 6964   7.434   5.061   9.291 -0.0765  0.5068 -0.2876
 2129SOL    HW1 6965   7.463   4.995   9.228 -1.5412  0.6605 -1.1674
 2129SOL    HW2 6966   7.469   5.143   9.257  0.4374  0.3983 -0.0368
 2130SOL     OW 6967   7.355   6.919   5.530 -0.2569 -0.0469  0.0975
 2130SOL    HW1 6968   7.432   6.912   5.472  0.5247  1.4497  0.9025
 2130SOL    HW2 6969   7.305   6.993   5.494 -2.0514 -1.7928 -1.1876
 2131SOL     OW 6970   0.022   7.516   6.941 -0.0598 -0.0330  0.7803
 2131SOL    HW1 6971  -0.050   7.531   7.003  0.0283  0.7890  0.7023
 2131SOL    HW2 6972   0.050   7.426   6.956 -0.5129 -0.0636  1.4381
 2132SOL     OW 6973   2.989   7.289   8.964 -0.0930  0.5166  0.0136
 2132SOL    HW1 6974   2.900   7.317   8.943 -0.9856 -1.9389  0.1978
 2132SOL    HW2 6975   2.978   7.222   9.031  1.9401  0.3915  0.2841
 2133SOL     OW 6976   3.616   2.589   4.087 -0.2909  0.2920 -0.2063
 2133SOL    HW1 6977   3.623   2.572   3.993 -0.5231  0.0181 -0.1758
 2133SOL    HW2 6978   3.660   2.514   4.128 -0.4110  0.2837 -0.0917
 2134SOL     OW 6979   7.419   6.295   3.981  0.0981 -0.0787 -0.2976
 2134SOL    HW1 6980   7.339   6.329   3.941  0.3675 -0.3819 -1.1217
 2134SOL    HW2 6981   7.422   6.335   4.068  0.0934  1.5255 -1.0012
 2135SOL     OW 6982   2.277   0.272   4.649 -0.1887 -0.4951 -0.0240
 2135SOL    HW1 6983   2.270   0.176   4.650 -0.8278 -0.4871 -1.5857
 2135SOL    HW2 6984   2.302   0.293   4.560  0.9595  0.7610  0.5656
 2136SOL     OW 6985   3.028   8.221   0.250  0.2385  0.1219  0.1104
 2136SOL    HW1 6986   3.042   8.296   0.192  0.7369  1.8455  2.3041
 2136SOL    HW2 6987   3.107   8.169   0.241  0.9816  1.1716  0.3123
 2137SOL     OW 6988   2.950   0.431   4.001 -0.0775 -0.5425  0.8435
 2137SOL    HW1 6989   2.973   0.511   3.954 -0.3490 -1.1426 -0.3477
 2137SOL    HW2 6990   3.034   0.396   4.031  0.0260  0.2797  1.5448
 2138SOL     OW 6991   7.197   0.917   7.323 -0.3133 -0.2962 -0.2974
 2138SOL    HW1 6992   7.143   0.952   7.251 -2.1080 -0.6319  0.8235
 2138SOL    HW2 6993   7.147   0.843   7.357 -0.2670  0.7478  2.2540
 2139SOL     OW 6994   4.913   7.998   0.056 -0.1032 -0.0839  0.1384
 2139SOL    HW1 6995   4.934   8.084   0.091 -0.4245 -0.1635  0.5312
 2139SOL    HW2 6996   4.822   8.004   0.027 -1.2165 -1.1586  3.0424
 2140SOL     OW 6997   6.257   1.503   1.846 -0.4483  0.4704  0.4379
 2140SOL    HW1 6998   6.195   1.527   1.778  0.0291 -2.7755 -1.2856
 2140SOL    HW2 6999   6.343   1.515   1.806 -0.1232 -0.3725  0.8628
 2141SOL     OW 7000   4.265   9.800   5.220  0.5692 -0.6348 -0.1554
 2141SOL    HW1 7001   4.174   9.827   5.205  0.5528 -0.4904  0.1889
 2141SOL    HW2 7002   4.280   9.729   5.158 -0.7203 -2.6926  1.7306
 2142SOL     OW 7003   6.232   1.918   1.233 -0.1523  0.3613 -0.0352
 2142SOL    HW1 7004   6.269   1.971   1.162 -0.0836  0.2505 -0.0821
 2142SOL    HW2 7005   6.145   1.893   1.201 -0.1930  0.4621 -0.0044
 2143SOL     OW 7006   7.118   5.715   7.474  0.1926  0.3402 -0.4063
 2143SOL    HW1 7007   7.030   5.698   7.508  1.1588 -1.3480  1.4479
 2143SOL    HW2 7008   7.111   5.697   7.380 -1.6427  1.1614 -0.4607
 2144SOL     OW 7009   8.373   5.647   6.004 -0.3616  0.5392 -0.0941
 2144SOL    HW1 7010   8.282   5.620   6.019  0.3807 -1.9196  0.4158
 2144SOL    HW2 7011   8.395   5.611   5.919  0.5379 -0.1111  0.3995
 2145SOL     OW 7012   0.059   4.552   8.935 -0.1419 -0.0267  0.2533
 2145SOL    HW1 7013   0.079   4.510   9.018  1.9068  1.1880  0.4476
 2145SOL    HW2 7014   0.068   4.646   8.952  1.8361  0.2112 -1.6396
 2146SOL     OW 7015   2.113   0.739   7.686  0.6550  0.5101  0.4808
 2146SOL    HW1 7016   2.151   0.696   7.762  3.1452 -0.7148 -1.2853
 2146SOL    HW2 7017   2.050   0.676   7.652 -0.5258  1.0966  1.5270
 2147SOL     OW 7018   3.704   3.124   9.253  0.2572  0.4649 -0.2358
 2147SOL    HW1 7019   3.690   3.030   9.260 -0.9378  0.7618  2.9374
 2147SOL    HW2 7020   3.618   3.160   9.234  0.0271  1.0777  1.7372
 2148SOL     OW 7021   5.258  -0.028   3.851 -0.1529 -0.0205 -0.2802
 2148SOL    HW1 7022   5.223   0.061   3.848  0.5551  0.4040  2.1453
 2148SOL    HW2 7023   5.350  -0.019   3.826 -0.5869 -0.4578 -2.1982
 2149SOL     OW 7024   7.887   1.048   1.652 -0.4441  0.5800 -0.3324
 2149SOL    HW1 7025   7.913   1.137   1.630 -0.2073  0.8587  0.9932
 2149SOL    HW2 7026   7.899   1.042   1.747 -0.8555 -0.7318 -0.3410
 2150SOL     OW 7027   1.635   0.828   8.139 -0.7860 -0.0611 -0.2322
 2150SOL    HW1 7028   1.724   0.845   8.168 -0.0025  0.5541 -2.6892
 2150SOL    HW2 7029   1.611   0.906   8.090 -2.2624 -0.6672 -0.5285
 2151SOL     OW 7030   9.100   3.120   5.551  0.4574  0.5320 -0.0215
 2151SOL    HW1 7031   9.035   3.187   5.532 -1.9986 -1.5300  0.5728
 2151SOL    HW2 7032   9.133   3.143   5.638 -0.3211  0.9898  0.1648
 2152SOL     OW 7033   0.473   2.585   1.034 -0.4336  0.3316  0.3045
 2152SOL    HW1 7034   0.426   2.509   1.068 -2.0815  0.1869 -2.0334
 2152SOL    HW2 7035   0.408   2.630   0.979  2.2256 -0.2572 -3.7624
 2153SOL     OW 7036   8.713   9.405   7.080 -0.0711  0.4761  0.2791
 2153SOL    HW1 7037   8.650   9.348   7.124  0.6635 -0.6016 -0.0399
 2153SOL    HW2 7038   8.793   9.397   7.132 -0.1399  1.7478  0.6190
 2154SOL     OW 7039   9.461   7.146   4.764  0.4268  0.3210 -0.0423
 2154SOL    HW1 7040   9.530   7.108   4.818 -1.5650  0.4944  2.8225
 2154SOL    HW2 7041   9.448   7.234   4.800 -1.0894  0.3940 -0.6868
 2155SOL     OW 7042   2.475   9.226   6.086 -0.2387 -0.5248 -0.3994
 2155SOL    HW1 7043   2.516   9.305   6.120  2.8355 -0.7514 -3.1244
 2155SOL    HW2 7044   2.403   9.257   6.032 -0.4677  0.2397  0.3308
 2156SOL     OW 7045   0.424   7.691   9.548 -0.2911  0.2173 -0.0478
 2156SOL    HW1 7046   0.476   7.742   9.609 -2.3108  0.9491  1.1632
 2156SOL    HW2 7047   0.349   7.747   9.528  0.7486  0.4619 -4.0860
 2157SOL     OW 7048   7.927   0.915   4.226  0.3696 -0.4523 -0.5059
 2157SOL    HW1 7049   7.861   0.862   4.182  1.4180 -1.8062 -0.5106
 2157SOL    HW2 7050   8.006   0.860   4.226  1.4495  1.0438 -0.3433
 2158SOL     OW 7051   3.584   9.041   1.029  0.0731 -0.1146 -0.7217
 2158SOL    HW1 7052   3.556   8.966   0.977 -0.6723 -1.1693  1.1448
 2158SOL    HW2 7053   3.676   9.023   1.048  0.5270  0.5791 -2.1322
 2159SOL     OW 7054   4.171   8.893   1.271 -0.3114  0.4764  0.6787
 2159SOL    HW1 7055   4.259   8.925   1.287 -0.2097 -0.2858  1.7509
 2159SOL    HW2 7056   4.121   8.971   1.246  0.5908  0.9533  0.2880
 2160SOL     OW 7057   4.339   1.047   0.075  0.1652  0.4567 -0.3812
 2160SOL    HW1 7058   4.260   1.019   0.029  1.2807 -1.1389 -1.4226
 2160SOL    HW2 7059   4.348   1.140   0.051 -0.7096  0.3436 -1.2321
 2161SOL     OW 7060   4.901   6.008   5.094  0.0026  0.0030  0.4176
 2161SOL    HW1 7061   4.886   5.922   5.054 -1.5997  0.6162 -0.3799
 2161SOL    HW2 7062   4.857   6.070   5.036 -1.9033  1.0135  2.7553
 2162SOL     OW 7063   3.529   7.276   5.049 -0.3875  0.2915 -0.1967
 2162SOL    HW1 7064   3.601   7.250   4.992 -1.2644 -0.2376 -1.1012
 2162SOL    HW2 7065   3.523   7.207   5.115 -0.1526  0.2785 -0.1894
 2163SOL     OW 7066   8.548   3.738   2.901  0.3239  0.2528 -1.0781
 2163SOL    HW1 7067   8.559   3.757   2.808  0.0623  2.3239 -0.7476
 2163SOL    HW2 7068   8.615   3.673   2.921  1.1931  0.6910 -2.4429
 2164SOL     OW 7069   3.468   9.239   9.870 -0.3049 -0.2834  0.0942
 2164SOL    HW1 7070   3.402   9.181   9.831 -0.6865  0.5322 -0.5136
 2164SOL    HW2 7071   3.432   9.260   9.957 -1.9727  1.8199 -0.9871
 2165SOL     OW 7072   3.896   1.679   3.464  0.3147 -0.6651  0.0870
 2165SOL    HW1 7073   3.990   1.685   3.446  0.5646  2.1595  1.7354
 2165SOL    HW2 7074   3.860   1.758   3.424 -1.2042 -1.2085  0.3394
 2166SOL     OW 7075   9.668   6.734   6.618 -0.3872  0.1635  0.3615
 2166SOL    HW1 7076   9.762   6.739   6.636 -0.4007 -0.6479  0.7063
 2166SOL    HW2 7077   9.632   6.686   6.693 -1.0832  0.4987  0.2473
 2167SOL     OW 7078   7.106   1.636   8.085  0.1818  0.0755 -0.9041
 2167SOL    HW1 7079   7.103   1.593   8.171  1.9923  0.6178 -0.5193
 2167SOL    HW2 7080   7.022   1.682   8.078  1.0027  2.3338  1.8792
 2168SOL     OW 7081   9.517   2.564   1.177  0.6809 -0.1801 -0.5681
 2168SOL    HW1 7082   9.488   2.581   1.267  2.8220 -1.8026  0.5057
 2168SOL    HW2 7083   9.598   2.613   1.168  1.3952 -1.4068 -1.0049
 2169SOL     OW 7084   8.472   2.549   5.403 -0.3404 -0.4161  0.0844
 2169SOL    HW1 7085   8.435   2.506   5.481  1.1461 -1.1338  0.4319
 2169SOL    HW2 7086   8.432   2.503   5.329 -0.8551 -0.5307  0.4259
 2170SOL     OW 7087   9.627   0.632   9.614  0.0342 -0.3771  0.4018
 2170SOL    HW1 7088   9.587   0.719   9.607 -0.9557 -0.7241  1.4634
 2170SOL    HW2 7089   9.681   0.624   9.535 -1.8679  0.1811 -1.0214
 2171SOL     OW 7090   6.802   1.439   8.899 -0.0250 -0.9236 -0.5342
 2171SOL    HW1 7091   6.764   1.526   8.886 -1.9108 -1.6500 -0.1563
 2171SOL    HW2 7092   6.777   1.416   8.989  2.5717 -0.8770  0.2744
 2172SOL     OW 7093   9.376   4.225   6.826  0.1759 -0.2557 -0.8389
 2172SOL    HW1 7094   9.288   4.204   6.793  0.0020  1.4577 -1.5903
 2172SOL    HW2 7095   9.360   4.268   6.910  0.2744  0.2088 -1.0548
 2173SOL     OW 7096   7.657   5.726   8.066  0.3020  0.0929 -0.3493
 2173SOL    HW1 7097   7.573   5.724   8.020  0.4036  0.1514 -0.5364
 2173SOL    HW2 7098   7.695   5.640   8.049  0.2160  0.0137 -0.1446
 2174SOL     OW 7099   0.209   2.265   5.189 -0.2711 -0.5626 -0.0483
 2174SOL    HW1 7100   0.155   2.333   5.149  0.8404  0.6208  0.3771
 2174SOL    HW2 7101   0.157   2.231   5.262  0.0525  1.5273  1.2298
 2175SOL     OW 7102   1.671   9.102   9.632  0.0117  0.0417 -0.4800
 2175SOL    HW1 7103   1.680   9.105   9.727  1.3437  0.0707 -0.5903
 2175SOL    HW2 7104   1.689   9.011   9.609 -1.3266 -0.2012 -0.6262
 2176SOL     OW 7105   1.767   4.327   2.836 -0.6016 -0.3796  0.3231
 2176SOL    HW1 7106   1.758   4.242   2.880  0.3323  0.6516  2.6271
 2176SOL    HW2 7107   1.838   4.371   2.882 -0.6122  1.4373 -1.2596
 2177SOL     OW 7108   3.171   2.338   8.164  0.4808  0.1215  0.2794
 2177SOL    HW1 7109   3.126   2.317   8.246 -0.8331 -0.0519 -0.4424
 2177SOL    HW2 7110   3.251   2.285   8.166 -0.0991 -0.7742  0.9385
 2178SOL     OW 7111   5.220   4.100   9.419  0.0031  0.0358 -0.0935
 2178SOL    HW1 7112   5.238   4.188   9.387 -0.3926  0.8467  1.7448
 2178SOL    HW2 7113   5.226   4.108   9.515 -0.2772 -1.8818  0.1261
 2179SOL     OW 7114   3.136   8.448   9.602  0.2591  0.3438 -0.6118
 2179SOL    HW1 7115   3.196   8.486   9.667  1.3527 -0.1981 -1.2832
 2179SOL    HW2 7116   3.179   8.464   9.518  0.5418 -1.9279 -0.9597
 2180SOL     OW 7117   2.996   2.201   7.615  0.1382  0.8835 -0.2930
 2180SOL    HW1 7118   2.908   2.210   7.650  0.3380 -0.7623  0.7249
 2180SOL    HW2 7119   3.043   2.147   7.679  1.9171  1.7608 -0.7699
 2181SOL     OW 7120   0.445   5.378   0.214 -0.2837  0.0346 -0.4628
 2181SOL    HW1 7121   0.360   5.399   0.252 -1.0000 -1.5531 -1.0971
 2181SOL    HW2 7122   0.428   5.370   0.120  0.3343 -1.2391 -0.4904
 2182SOL     OW 7123   0.853   7.081   8.939  0.0052  0.2050 -0.3170
 2182SOL    HW1 7124   0.820   7.148   8.879  1.0662  0.8108 -0.2351
 2182SOL    HW2 7125   0.946   7.101   8.949 -0.1463  0.1265  1.5642
 2183SOL     OW 7126   1.947   1.490   7.601 -0.2077 -0.3992 -0.1187
 2183SOL    HW1 7127   1.981   1.543   7.528  1.6268  0.1046  1.0389
 2183SOL    HW2 7128   1.898   1.420   7.558 -2.6672  2.0889 -1.7349
 2184SOL     OW 7129   2.378   4.080   8.059  0.2642  0.5039  0.2891
 2184SOL    HW1 7130   2.301   4.121   8.020 -0.3419 -0.2007  0.7168
 2184SOL    HW2 7131   2.378   4.111   8.150 -1.5575 -2.1864  1.3260
 2185SOL     OW 7132   7.293   2.911   3.107  0.0603 -0.1090 -0.4219
 2185SOL    HW1 7133   7.333   2.889   3.023 -0.7628 -0.0104 -0.8450
 2185SOL    HW2 7134   7.238   2.987   3.089 -1.2629 -0.9589 -0.1227
 2186SOL     OW 7135   0.709   4.217   0.425  0.0570  0.1939  0.3435
 2186SOL    HW1 7136   0.694   4.305   0.459 -0.6263  0.2214 -0.0132
 2186SOL    HW2 7137   0.626   4.172   0.438  0.6756 -0.6933  1.3791
 2187SOL     OW 7138   3.935   7.350   7.264  0.3114 -0.6998 -0.0271
 2187SOL    HW1 7139   4.014   7.404   7.258  0.7942 -1.3945 -0.0821
 2187SOL    HW2 7140   3.924   7.334   7.358  0.6662 -1.2134 -0.0691
 2188SOL     OW 7141   5.140   0.465   1.713  0.2423 -0.4041 -0.4500
 2188SOL    HW1 7142   5.115   0.536   1.655  0.1962 -0.2225 -0.2085
 2188SOL    HW2 7143   5.233   0.477   1.729  0.1755 -0.2312 -0.1821
 2189SOL     OW 7144   8.351   3.669   7.612 -0.0768  0.0875  0.0095
 2189SOL    HW1 7145   8.393   3.657   7.527 -0.0285  2.5383 -0.3801
 2189SOL    HW2 7146   8.423   3.676   7.674  0.0830  2.3013 -0.3711
 2190SOL     OW 7147   7.930   3.485   5.617 -0.0184  0.6505  0.0618
 2190SOL    HW1 7148   7.942   3.397   5.653  1.5421  0.7111 -0.2446
 2190SOL    HW2 7149   7.860   3.475   5.552 -0.7185 -0.0953  0.9079
 2191SOL     OW 7150   7.058   0.415   9.464 -0.5282  0.4706  0.0515
 2191SOL    HW1 7151   6.996   0.485   9.485 -2.3358 -0.2788 -2.3989
 2191SOL    HW2 7152   7.087   0.434   9.375  0.1200 -1.0622 -0.0967
 2192SOL     OW 7153   9.113   1.995   9.895 -0.4357 -0.5869  0.0481
 2192SOL    HW1 7154   9.057   1.976   9.970 -0.9404  3.4785  0.9237
 2192SOL    HW2 7155   9.188   2.041   9.933  0.1407  0.0262 -1.7450
 2193SOL     OW 7156   1.664   6.495   2.514  0.1473 -0.0194 -0.4108
 2193SOL    HW1 7157   1.661   6.489   2.609  0.5692  0.4936 -0.3593
 2193SOL    HW2 7158   1.577   6.527   2.489 -1.3462 -3.6028 -0.5194
 2194SOL     OW 7159   5.993   0.604   0.103  0.1345  0.6311  0.2670
 2194SOL    HW1 7160   6.016   0.532   0.162 -1.0886 -0.4825 -0.5450
 2194SOL    HW2 7161   5.933   0.658   0.154 -3.1924 -1.8338 -0.6774
 2195SOL     OW 7162   6.893   1.197   7.866 -0.0293  0.0562  0.0146
 2195SOL    HW1 7163   6.887   1.137   7.792 -1.9041 -0.6495  0.6870
 2195SOL    HW2 7164   6.952   1.153   7.928  1.1239  0.4094 -0.8062
 2196SOL     OW 7165   5.612   1.996   5.910 -0.5002  0.3156 -0.2262
 2196SOL    HW1 7166   5.641   1.915   5.953  1.1975  0.0548 -1.7149
 2196SOL    HW2 7167   5.553   2.038   5.973 -0.2411 -1.3466  1.1838
 2197SOL     OW 7168   1.386   0.421   2.613 -0.6335 -0.5541  0.0959
 2197SOL    HW1 7169   1.427   0.507   2.602 -0.3935 -0.6260  0.4119
 2197SOL    HW2 7170   1.385   0.407   2.708 -2.8556  0.1500  0.2516
 2198SOL     OW 7171   7.129   7.451   9.246  0.1304 -0.5037  0.3563
 2198SOL    HW1 7172   7.160   7.501   9.171  2.0277 -1.1823  0.6291
 2198SOL    HW2 7173   7.107   7.365   9.211 -0.4348 -0.3610  0.3484
 2199SOL     OW 7174   5.223   1.444   9.440  0.3306  0.3506 -0.1603
 2199SOL    HW1 7175   5.253   1.390   9.367  0.5492  0.7428 -0.3593
 2199SOL    HW2 7176   5.298   1.498   9.463  0.5667 -0.4069  0.9600
 2200SOL     OW 7177   8.567   4.613   9.194  0.3752 -0.7598 -0.3879
 2200SOL    HW1 7178   8.535   4.592   9.281  0.9101 -1.4615 -0.3530
 2200SOL    HW2 7179   8.579   4.708   9.195 -1.1016 -0.5654 -0.2137
 2201SOL     OW 7180   3.113   5.989   7.112  0.1370  0.4255 -1.1554
 2201SOL    HW1 7181   3.026   6.025   7.129 -1.1026 -1.6370 -2.6061
 2201SOL    HW2 7182   3.143   5.957   7.197 -1.6064 -0.9245 -0.9807
 2202SOL     OW 7183   1.373   4.528   1.302 -0.5340 -0.4185 -0.5798
 2202SOL    HW1 7184   1.458   4.563   1.278 -0.9713  1.2888  0.2330
 2202SOL    HW2 7185   1.333   4.596   1.355 -1.8079 -1.8039  0.3157
 2203SOL     OW 7186   6.821   3.589   1.367 -0.1798  0.0761  0.1284
 2203SOL    HW1 7187   6.759   3.534   1.415 -1.0622 -0.2434 -1.2849
 2203SOL    HW2 7188   6.865   3.641   1.433 -0.8778 -0.7989  1.3119
 2204SOL     OW 7189   4.605   5.742   0.861 -0.1377 -0.0475  0.3712
 2204SOL    HW1 7190   4.598   5.691   0.941  1.8036 -0.8718  0.0708
 2204SOL    HW2 7191   4.600   5.677   0.791  2.2128  0.1045 -0.0227
 2205SOL     OW 7192   3.943   8.146   2.421  0.1429  0.1351  0.4547
 2205SOL    HW1 7193   3.891   8.069   2.398 -1.0945  1.0117  0.2607
 2205SOL    HW2 7194   3.927   8.159   2.514 -0.3638  0.6798  0.2954
 2206SOL     OW 7195   6.789   7.004   1.516  0.2926  0.7514  0.3921
 2206SOL    HW1 7196   6.727   7.037   1.450 -0.4416  1.3484  1.3547
 2206SOL    HW2 7197   6.734   6.956   1.578  0.9458  0.4066  0.7052
 2207SOL     OW 7198   5.932   3.091   3.288  0.2282 -0.1852 -0.7241
 2207SOL    HW1 7199   5.989   3.121   3.358  0.6313 -1.2353 -0.5784
 2207SOL    HW2 7200   5.888   3.170   3.256 -1.0141  0.1630  1.6238
 2208SOL     OW 7201   3.557   5.764   3.882  0.4527  0.2960 -0.1764
 2208SOL    HW1 7202   3.463   5.772   3.898  0.1280 -0.8809 -1.3040
 2208SOL    HW2 7203   3.566   5.775   3.787  1.2681 -0.9027 -0.2686
 2209SOL     OW 7204   7.316   9.746   6.816  0.1790  0.0456 -0.2018
 2209SOL    HW1 7205   7.398   9.702   6.797  1.3305  1.5718  0.9647
 2209SOL    HW2 7206   7.283   9.702   6.895 -0.7836 -1.3677 -1.3556
 2210SOL     OW 7207   3.154   3.892   0.011 -0.3818 -0.3378  0.6086
 2210SOL    HW1 7208   3.232   3.918   0.060 -1.5923  1.1055  1.8599
 2210SOL    HW2 7209   3.097   3.853   0.077 -0.9791 -0.8358 -0.1866
 2211SOL     OW 7210   2.530   6.323   9.796  0.6377 -0.4985 -0.6575
 2211SOL    HW1 7211   2.501   6.383   9.865  1.5932 -0.5661 -0.1758
 2211SOL    HW2 7212   2.617   6.355   9.772 -0.4467  0.8214 -3.3239
 2212SOL     OW 7213   2.766   8.241   0.045  0.1455  0.1727  0.3125
 2212SOL    HW1 7214   2.775   8.327   0.086 -0.0190  0.2459  0.1954
 2212SOL    HW2 7215   2.816   8.248  -0.036 -0.5334  0.4174 -0.0920
 2213SOL     OW 7216   9.735   4.853   8.011 -0.4597  0.4103 -0.3085
 2213SOL    HW1 7217   9.720   4.884   7.922 -2.1449  1.1702  0.2061
 2213SOL    HW2 7218   9.673   4.902   8.064  0.3046 -0.2553  1.2476
 2214SOL     OW 7219   5.913   1.172   0.317  0.4432 -0.5069  0.0214
 2214SOL    HW1 7220   5.909   1.245   0.254  0.6169  0.2453  0.8684
 2214SOL    HW2 7221   5.827   1.173   0.359 -0.0777 -1.7101 -0.9529
 2215SOL     OW 7222   1.224   9.378   6.476  0.3562  0.2560 -0.9071
 2215SOL    HW1 7223   1.308   9.350   6.514 -0.1807  0.5000  0.5101
 2215SOL    HW2 7224   1.181   9.296   6.452  0.0537 -0.0266  0.4826
 2216SOL     OW 7225   8.405   5.641   1.235 -0.1410 -0.0173  0.1917
 2216SOL    HW1 7226   8.323   5.593   1.242 -1.2511  2.0015  2.6605
 2216SOL    HW2 7227   8.385   5.714   1.176  0.0489  0.1550  0.3382
 2217SOL     OW 7228   7.164   0.536   3.385 -0.1383  0.3309 -0.0578
 2217SOL    HW1 7229   7.237   0.477   3.405 -0.9342 -1.0816 -1.1772
 2217SOL    HW2 7230   7.116   0.544   3.467  0.3941  0.0170  0.2878
 2218SOL     OW 7231   1.604   1.253   9.271  0.1007 -0.0436  0.2324
 2218SOL    HW1 7232   1.631   1.190   9.339  1.1909  0.7857  0.5900
 2218SOL    HW2 7233   1.510   1.235   9.258  0.4233 -1.8691  0.1708
 2219SOL     OW 7234   8.267   8.973   2.488 -0.5430  0.2445 -0.0163
 2219SOL    HW1 7235   8.287   9.060   2.455 -0.4084 -0.0902 -0.8503
 2219SOL    HW2 7236   8.341   8.952   2.545 -1.5726  1.4812  1.8417
 2220SOL     OW 7237   5.450   6.320   5.335 -0.2040 -0.0410  0.2795
 2220SOL    HW1 7238   5.402   6.298   5.415 -1.3322  1.6914  0.1243
 2220SOL    HW2 7239   5.383   6.318   5.266  0.5238 -0.3514 -0.4287
 2221SOL     OW 7240   1.443   3.954   1.100 -0.5351  0.1436 -0.1614
 2221SOL    HW1 7241   1.460   3.944   1.193  0.1363  0.1486 -0.2739
 2221SOL    HW2 7242   1.389   4.033   1.093  0.3374  0.7828  0.1409
 2222SOL     OW 7243   2.133   2.941   4.589 -0.1471  0.0668 -0.7364
 2222SOL    HW1 7244   2.089   2.978   4.513  0.2384 -0.2717 -1.1298
 2222SOL    HW2 7245   2.189   2.872   4.554 -0.7597 -0.8182 -0.0405
 2223SOL     OW 7246   9.838   2.915   2.500  0.1861 -0.1385 -0.1688
 2223SOL    HW1 7247   9.895   2.870   2.439  0.7603  1.0504 -0.5442
 2223SOL    HW2 7248   9.806   2.847   2.559 -1.6134 -1.6373 -2.6651
 2224SOL     OW 7249   1.094   4.566   1.709 -0.0436 -0.0936 -0.1174
 2224SOL    HW1 7250   1.131   4.519   1.634 -1.1189  0.4070 -0.9863
 2224SOL    HW2 7251   1.105   4.505   1.783  2.5504  0.0577 -0.2720
 2225SOL     OW 7252   3.732   6.398   3.512 -0.1367  0.5616  0.1120
 2225SOL    HW1 7253   3.677   6.320   3.503  0.1281  0.3190  0.5316
 2225SOL    HW2 7254   3.698   6.441   3.591 -0.3965  0.9649 -0.2197
 2226SOL     OW 7255   7.632   0.226   7.518 -0.3718 -0.1961  0.4973
 2226SOL    HW1 7256   7.543   0.250   7.493 -0.5022 -0.7844  0.3853
 2226SOL    HW2 7257   7.626   0.134   7.544  0.1607 -0.1792  0.7007
 2227SOL     OW 7258   9.478   8.245   6.511  0.2260  0.1219  0.1263
 2227SOL    HW1 7259   9.513   8.197   6.436  0.0806 -1.1270  0.8332
 2227SOL    HW2 7260   9.550   8.244   6.575 -0.1070  0.0214  0.5022
 2228SOL     OW 7261   5.152   5.361   9.730  0.5234 -0.0250 -0.7256
 2228SOL    HW1 7262   5.210   5.430   9.763 -0.3857  0.7325 -0.6719
 2228SOL    HW2 7263   5.068   5.379   9.772  0.4977 -1.7518  0.0650
 2229SOL     OW 7264   9.483   0.024   9.501 -0.0898 -0.2967  0.2132
 2229SOL    HW1 7265   9.521   0.095   9.551 -1.4744  0.1152  0.7201
 2229SOL    HW2 7266   9.451   0.065   9.420 -0.4445 -0.4189  0.2859
 2230SOL     OW 7267   6.143   5.810   9.468 -0.3135 -0.2651 -0.3472
 2230SOL    HW1 7268   6.084   5.883   9.449 -0.2203 -0.1640 -0.2456
 2230SOL    HW2 7269   6.147   5.806   9.563  1.1645  0.8020 -0.3243
 2231SOL     OW 7270   5.802   8.158   7.487 -0.2967 -0.4512 -0.0746
 2231SOL    HW1 7271   5.808   8.192   7.576  2.2491  0.2570 -0.4215
 2231SOL    HW2 7272   5.794   8.236   7.432  0.4428 -0.7010 -0.5672
 2232SOL     OW 7273   8.211   4.922   9.244  0.1714 -0.4806  0.2035
 2232SOL    HW1 7274   8.226   4.828   9.248 -0.2795 -0.5401  0.5776
 2232SOL    HW2 7275   8.124   4.931   9.204 -0.4909 -0.2975  1.6013
 2233SOL     OW 7276   8.910   1.280   3.023  0.3680 -0.4740 -0.4176
 2233SOL    HW1 7277   8.970   1.354   3.016 -0.2949  0.1385  0.1751
 2233SOL    HW2 7278   8.832   1.316   3.065 -0.0911 -1.4438 -0.3977
 2234SOL     OW 7279   3.146   6.419   4.717  0.3989 -0.4571  0.1085
 2234SOL    HW1 7280   3.180   6.508   4.718  1.6777 -0.9148  0.3612
 2234SOL    HW2 7281   3.145   6.395   4.624  0.0752 -0.1967  0.0421
 2235SOL     OW 7282   0.353   0.919   7.094  0.0281  0.6107  0.2451
 2235SOL    HW1 7283   0.271   0.959   7.065 -0.5995 -0.1791  0.8971
 2235SOL    HW2 7284   0.416   0.991   7.093 -0.3566  0.9618 -1.4795
 2236SOL     OW 7285   3.710   4.923   9.406 -0.0599  0.4804  0.1362
 2236SOL    HW1 7286   3.792   4.959   9.439  0.8333 -1.3532  0.0001
 2236SOL    HW2 7287   3.711   4.942   9.312 -0.1323  1.0505  0.2439
 2237SOL     OW 7288   9.037   7.262   3.091 -0.3982  0.1204  0.4634
 2237SOL    HW1 7289   9.092   7.291   3.163 -1.7042 -0.5751  1.8002
 2237SOL    HW2 7290   9.088   7.192   3.049  0.6134  0.9165  0.3359
 2238SOL     OW 7291   7.914   8.389   7.328  0.0544 -0.2557 -0.4860
 2238SOL    HW1 7292   7.871   8.305   7.337 -1.7757  0.6892 -0.0101
 2238SOL    HW2 7293   7.875   8.444   7.396  2.3766  0.5443  0.3045
 2239SOL     OW 7294   6.309   7.590   6.767  0.1243  0.5907  0.2033
 2239SOL    HW1 7295   6.385   7.617   6.715  0.3713 -0.7639 -0.1758
 2239SOL    HW2 7296   6.264   7.672   6.788  1.7383  1.4345  0.5305
 2240SOL     OW 7297   2.549   9.905   3.806  0.0080  0.3130  0.1013
 2240SOL    HW1 7298   2.478   9.959   3.772 -0.8914 -0.5693  0.5456
 2240SOL    HW2 7299   2.510   9.856   3.878  1.2181  0.2347  0.7305
 2241SOL     OW 7300   9.571   1.299   0.621  0.4138  0.0653 -0.5605
 2241SOL    HW1 7301   9.556   1.204   0.618 -0.9682  0.2843 -1.6531
 2241SOL    HW2 7302   9.666   1.308   0.624  0.5559 -1.3749  1.6256
 2242SOL     OW 7303   4.558   7.261   1.013 -1.1743  0.1638 -0.4687
 2242SOL    HW1 7304   4.527   7.218   1.093 -1.6118  1.1362 -0.0918
 2242SOL    HW2 7305   4.563   7.191   0.948  2.1837 -1.2963  1.1610
 2243SOL     OW 7306   1.419   2.907   4.537 -0.0190  0.2805  0.1581
 2243SOL    HW1 7307   1.470   2.983   4.564  0.4636  0.2143 -0.5555
 2243SOL    HW2 7308   1.480   2.853   4.488 -0.9034  0.4551 -1.1814
 2244SOL     OW 7309   5.608   8.020   4.155  0.3655 -0.1667 -0.2101
 2244SOL    HW1 7310   5.616   8.111   4.128  2.4274  0.1588  1.2099
 2244SOL    HW2 7311   5.669   7.972   4.099  3.0829  0.1961  2.2218
 2245SOL     OW 7312   4.446   4.584   0.373  0.4415 -0.0499  0.2388
 2245SOL    HW1 7313   4.497   4.636   0.312  1.2933  0.1761  1.1196
 2245SOL    HW2 7314   4.472   4.493   0.356  1.1287  0.0626  0.6624
 2246SOL     OW 7315   7.463   1.515   0.593  0.2398 -0.0658 -0.3611
 2246SOL    HW1 7316   7.539   1.456   0.589 -0.4938 -1.0533 -3.9394
 2246SOL    HW2 7317   7.395   1.469   0.545 -0.9388  2.9351 -1.8366
 2247SOL     OW 7318   8.310   4.222   7.584 -0.4415 -0.1086 -0.0007
 2247SOL    HW1 7319   8.353   4.139   7.563  0.9456  0.4349  0.5881
 2247SOL    HW2 7320   8.314   4.272   7.503  1.5275  0.5459  0.4525
 2248SOL     OW 7321   2.185   4.894   5.293  0.2475 -0.0011 -0.8960
 2248SOL    HW1 7322   2.233   4.856   5.219  2.7560  1.7340 -0.2874
 2248SOL    HW2 7323   2.163   4.983   5.264 -0.8835 -0.1019 -0.3996
 2249SOL     OW 7324   6.406   2.114   3.879  0.0778  0.0808 -0.2580
 2249SOL    HW1 7325   6.410   2.116   3.783 -0.8544  0.3883 -0.2960
 2249SOL    HW2 7326   6.368   2.198   3.903  1.3288  0.4669  0.4548
 2250SOL     OW 7327   0.034   3.593   0.751 -0.2330  0.3615 -0.6724
 2250SOL    HW1 7328  -0.044   3.581   0.696 -0.8161  0.2242  0.1682
 2250SOL    HW2 7329   0.028   3.683   0.783 -0.6367  0.0046  0.2785
 2251SOL     OW 7330   4.408   8.022   8.679  0.1940  0.0799 -0.0677
 2251SOL    HW1 7331   4.473   7.986   8.618 -0.2928  0.0943 -0.6027
 2251SOL    HW2 7332   4.457   8.085   8.732  0.9008 -0.8579  0.4110
 2252SOL     OW 7333   5.714   0.612   7.833 -0.1050  0.0603  0.1383
 2252SOL    HW1 7334   5.669   0.627   7.750 -0.2668 -2.1029 -0.2363
 2252SOL    HW2 7335   5.662   0.543   7.876  1.2514 -0.4690  0.9901
 2253SOL     OW 7336   5.120   9.754   7.660  0.2018 -0.2016 -0.0335
 2253SOL    HW1 7337   5.095   9.706   7.581  0.1010 -0.6205  0.2509
 2253SOL    HW2 7338   5.052   9.734   7.723  0.0424  0.4916  0.0237
 2254SOL     OW 7339   5.196   4.060   5.449  0.1074 -0.0592 -0.7536
 2254SOL    HW1 7340   5.241   3.976   5.454 -0.1874 -0.4727 -3.3974
 2254SOL    HW2 7341   5.264   4.125   5.464  0.6139 -0.7337 -0.0795
 2255SOL     OW 7342   3.903   9.186   6.630 -0.6973 -0.0187 -0.6406
 2255SOL    HW1 7343   3.829   9.145   6.675 -0.5244 -0.1597 -0.4789
 2255SOL    HW2 7344   3.912   9.138   6.548 -0.2157 -0.6060 -0.2524
 2256SOL     OW 7345   1.473   1.016   9.925  0.1539  0.0441 -0.2346
 2256SOL    HW1 7346   1.531   1.092   9.937  0.1491  0.3269 -1.7942
 2256SOL    HW2 7347   1.504   0.976   9.844 -0.1080 -1.4082  0.3544
 2257SOL     OW 7348   4.553   1.389   5.605  0.0285 -0.6404  0.2403
 2257SOL    HW1 7349   4.531   1.432   5.523 -0.5162  0.9273  1.1685
 2257SOL    HW2 7350   4.507   1.305   5.601  1.1104 -1.2122 -1.6069
 2258SOL     OW 7351   7.346   0.585   2.375 -0.4076  0.0274 -0.3207
 2258SOL    HW1 7352   7.380   0.504   2.414  0.7040  0.1928 -0.8841
 2258SOL    HW2 7353   7.289   0.555   2.304 -2.2751 -0.2695  1.2321
 2259SOL     OW 7354   2.254   5.949   3.551 -0.1168  0.1424  0.2123
 2259SOL    HW1 7355   2.299   6.031   3.530  0.7195 -0.0836  1.0408
 2259SOL    HW2 7356   2.320   5.897   3.598 -1.5090  0.1945  2.3670
 2260SOL     OW 7357   4.172   6.344   1.343  0.1261  0.3622 -0.0274
 2260SOL    HW1 7358   4.169   6.269   1.403  1.3619  0.6396  0.4018
 2260SOL    HW2 7359   4.093   6.394   1.364 -1.1229 -1.1836 -0.8468
 2261SOL     OW 7360   9.370   7.025   2.403  0.8558 -0.4195 -0.0519
 2261SOL    HW1 7361   9.462   7.039   2.385  0.4047  0.8202 -1.6547
 2261SOL    HW2 7362   9.348   7.092   2.468  1.1466 -0.9646  0.6225
 2262SOL     OW 7363   2.599   9.564   8.941  0.4043  0.0325 -0.7152
 2262SOL    HW1 7364   2.621   9.475   8.912 -0.9252 -1.3145  2.0529
 2262SOL    HW2 7365   2.531   9.552   9.006  0.1088  3.1427 -0.3038
 2263SOL     OW 7366   9.452   0.770   2.962 -0.0701  0.5545 -0.0982
 2263SOL    HW1 7367   9.405   0.849   2.936 -0.7284 -0.4488 -2.1495
 2263SOL    HW2 7368   9.438   0.709   2.890 -1.9620 -2.4832  2.5956
 2264SOL     OW 7369   5.564   2.344   1.087 -0.2384 -0.3560  0.0021
 2264SOL    HW1 7370   5.632   2.398   1.047  0.4985  0.8295  2.6325
 2264SOL    HW2 7371   5.583   2.255   1.056  2.8552 -0.1483  0.9295
 2265SOL     OW 7372   9.235   7.397   4.326 -0.4782  0.2663  0.3689
 2265SOL    HW1 7373   9.198   7.369   4.243  2.7701  0.1113 -1.1924
 2265SOL    HW2 7374   9.254   7.316   4.373  1.1643  0.1336 -0.4624
 2266SOL     OW 7375   0.415   0.477   6.799 -0.2502  0.7276  0.7115
 2266SOL    HW1 7376   0.452   0.389   6.784 -0.1973  0.8641 -0.0241
 2266SOL    HW2 7377   0.428   0.493   6.892 -3.1455 -1.3793  1.6130
 2267SOL     OW 7378   3.039   3.393   4.760  0.1031 -0.2371 -0.0759
 2267SOL    HW1 7379   3.050   3.481   4.725 -0.9359 -0.1077 -0.1120
 2267SOL    HW2 7380   3.123   3.350   4.744  0.4452  0.5789 -0.5360
 2268SOL     OW 7381   2.577   5.290   9.908  0.7253  0.6239 -0.1130
 2268SOL    HW1 7382   2.505   5.337   9.866 -0.9102 -0.4162  1.3651
 2268SOL    HW2 7383   2.575   5.203   9.869  0.0277  0.0568  1.1317
 2269SOL     OW 7384   7.131   3.241   1.980  0.1601 -0.4183  0.1965
 2269SOL    HW1 7385   7.135   3.166   1.920 -1.2431 -1.1069  0.9077
 2269SOL    HW2 7386   7.223   3.265   1.994  0.5647 -0.9544 -1.3141
 2270SOL     OW 7387   5.627   1.096   5.145 -0.4413  0.3211  0.0833
 2270SOL    HW1 7388   5.658   1.176   5.186  0.2205  0.0506  0.1242
 2270SOL    HW2 7389   5.705   1.055   5.109 -0.4333 -1.3379  1.8495
 2271SOL     OW 7390   1.631   4.526   5.992  0.2337 -0.0666 -0.3825
 2271SOL    HW1 7391   1.674   4.543   6.075 -0.6450  0.8484 -0.0954
 2271SOL    HW2 7392   1.557   4.470   6.015 -0.0391  0.2272 -0.5371
 2272SOL     OW 7393   8.976   7.070   9.096  0.4092  0.4481 -0.0405
 2272SOL    HW1 7394   9.039   7.140   9.078 -0.2248  1.1171  0.3030
 2272SOL    HW2 7395   8.893   7.115   9.110 -0.1080 -0.4099 -0.2724
 2273SOL     OW 7396   9.684   1.749   1.426  0.2593 -0.1049 -0.4484
 2273SOL    HW1 7397   9.699   1.808   1.352  2.7537 -2.1344 -1.7124
 2273SOL    HW2 7398   9.737   1.787   1.497 -0.1425  0.4750 -0.4442
 2274SOL     OW 7399   1.428   5.071   9.209  0.3195  0.5067 -0.0885
 2274SOL    HW1 7400   1.472   5.047   9.290  0.5957 -1.7486 -0.8416
 2274SOL    HW2 7401   1.347   5.113   9.238 -0.0617 -1.1303  1.3798
 2275SOL     OW 7402   8.198   9.176   4.664 -0.0340  0.5167  0.0249
 2275SOL    HW1 7403   8.235   9.174   4.575  0.6146  0.2506  0.2938
 2275SOL    HW2 7404   8.111   9.215   4.653  0.3893  1.3085 -0.5998
 2276SOL     OW 7405   6.453   4.415   9.755 -0.7453  0.1576 -0.6897
 2276SOL    HW1 7406   6.363   4.396   9.729 -1.3213  0.2766  1.1232
 2276SOL    HW2 7407   6.446   4.488   9.817  0.7831  1.4298 -1.9091
 2277SOL     OW 7408   4.441   9.354   6.525  0.3249 -0.3279 -0.3484
 2277SOL    HW1 7409   4.371   9.403   6.568 -0.4453 -2.1144  0.5717
 2277SOL    HW2 7410   4.396   9.278   6.486  1.6742 -1.2429 -0.1871
 2278SOL     OW 7411   2.083   2.499   6.893 -0.0576 -0.2966 -0.0024
 2278SOL    HW1 7412   2.016   2.442   6.855 -1.6318  1.1661  0.4227
 2278SOL    HW2 7413   2.121   2.448   6.964 -2.6670 -0.2712  1.5294
 2279SOL     OW 7414   3.843   0.491   2.509 -0.0173 -0.1270  0.2957
 2279SOL    HW1 7415   3.899   0.489   2.431  1.0936  0.4272  1.0578
 2279SOL    HW2 7416   3.803   0.579   2.507  0.5005  0.1204  0.6787
 2280SOL     OW 7417   1.495   8.076   8.046 -0.0836 -0.5894 -0.0733
 2280SOL    HW1 7418   1.424   8.135   8.023  1.0459  0.7434 -0.3072
 2280SOL    HW2 7419   1.574   8.122   8.018  0.8758 -2.0467  0.1132
 2281SOL     OW 7420   7.748   1.086   9.585 -0.3152 -0.1019 -0.4126
 2281SOL    HW1 7421   7.701   1.077   9.502 -0.5880  0.8132 -0.3735
 2281SOL    HW2 7422   7.683   1.122   9.645 -0.7160 -2.6530  0.7983
 2282SOL     OW 7423   4.368   7.249   8.976 -0.1321 -0.3773  0.2531
 2282SOL    HW1 7424   4.349   7.308   8.902 -0.4004 -0.1564  0.4982
 2282SOL    HW2 7425   4.461   7.227   8.964 -0.1392 -0.2456 -0.0811
 2283SOL     OW 7426   0.319   7.746   8.619 -0.6464 -0.2323  0.3209
 2283SOL    HW1 7427   0.271   7.779   8.695 -0.2864  0.6510  0.1717
 2283SOL    HW2 7428   0.409   7.775   8.632 -0.4407 -0.6482 -0.1183
 2284SOL     OW 7429   7.463   8.557   4.026  0.2989  0.5798 -0.4709
 2284SOL    HW1 7430   7.545   8.575   3.979  0.2271 -1.0371 -1.2927
 2284SOL    HW2 7431   7.489   8.506   4.102  0.1188  0.6284 -0.3759
 2285SOL     OW 7432   9.067   8.944   3.009  0.5024 -0.5647  0.1087
 2285SOL    HW1 7433   9.093   9.022   3.057 -0.1945 -2.1536  3.3215
 2285SOL    HW2 7434   9.143   8.923   2.954  0.4234  2.6780 -1.4272
 2286SOL     OW 7435   1.878   4.464   5.074  0.4553 -0.6871  0.8448
 2286SOL    HW1 7436   1.926   4.547   5.076  0.6302 -0.7492 -0.3764
 2286SOL    HW2 7437   1.844   4.454   5.164 -1.4930  1.8502  0.5253
 2287SOL     OW 7438   1.270   3.886   5.917  0.1468 -0.2491 -0.1053
 2287SOL    HW1 7439   1.216   3.963   5.933  0.3599 -0.5416  2.4037
 2287SOL    HW2 7440   1.276   3.843   6.003  2.5739 -1.3876 -0.7822
 2288SOL     OW 7441   6.333   7.309   7.268  0.1529  0.5353 -0.4345
 2288SOL    HW1 7442   6.334   7.229   7.215  1.5769  0.8137 -0.8836
 2288SOL    HW2 7443   6.247   7.347   7.253 -0.7450 -1.1406  0.1701
 2289SOL     OW 7444   3.822   8.045   8.199 -0.2389  0.2099 -0.0572
 2289SOL    HW1 7445   3.790   8.094   8.123 -0.2776  0.0976 -0.1135
 2289SOL    HW2 7446   3.811   8.105   8.273 -1.2449 -0.0883  0.0428
 2290SOL     OW 7447   3.882   0.581   3.650  0.1600 -0.3036  0.2619
 2290SOL    HW1 7448   3.871   0.671   3.681 -2.1440 -0.2374 -0.5462
 2290SOL    HW2 7449   3.892   0.589   3.555  2.6893 -0.7861  0.4173
 2291SOL     OW 7450   3.240   2.638   1.783 -0.0208 -0.3736 -0.3076
 2291SOL    HW1 7451   3.180   2.666   1.852  2.6334  0.1130  1.9651
 2291SOL    HW2 7452   3.223   2.700   1.711 -3.3819 -1.3671 -0.5729
 2292SOL     OW 7453   2.726   1.603   4.954 -0.0756 -0.0788  0.1080
 2292SOL    HW1 7454   2.685   1.651   5.026  0.1475 -0.7017  0.6584
 2292SOL    HW2 7455   2.774   1.670   4.905 -0.5123  0.4044  0.3353
 2293SOL     OW 7456   4.799   0.210   8.802  0.3262 -0.0257  0.3706
 2293SOL    HW1 7457   4.788   0.262   8.723  1.1419  0.3864  0.5131
 2293SOL    HW2 7458   4.734   0.140   8.795  0.3751  0.0226 -0.6458
 2294SOL     OW 7459   1.374   2.195   6.910  0.7701 -0.2787 -0.0933
 2294SOL    HW1 7460   1.468   2.210   6.904  0.4729  2.3000  0.2099
 2294SOL    HW2 7461   1.346   2.251   6.982 -1.1937  0.2444 -1.1977
 2295SOL     OW 7462   4.340   9.806   8.631  0.1966 -0.5145  0.0929
 2295SOL    HW1 7463   4.259   9.785   8.678  0.6563 -0.0207  1.1507
 2295SOL    HW2 7464   4.409   9.795   8.696  0.9362 -0.4297 -0.6542
 2296SOL     OW 7465   7.681   6.470   2.542 -0.8282 -0.5257 -0.3167
 2296SOL    HW1 7466   7.589   6.469   2.568 -0.5589 -1.5956  0.6343
 2296SOL    HW2 7467   7.679   6.484   2.447 -1.9570 -0.4809 -0.2943
 2297SOL     OW 7468   4.961   2.212   2.415  0.0777 -0.0651 -0.0528
 2297SOL    HW1 7469   4.938   2.120   2.426  1.2772 -0.3552  0.1084
 2297SOL    HW2 7470   5.056   2.215   2.420  0.0003  1.3853  1.4225
 2298SOL     OW 7471   5.813   7.189   4.150 -0.2443 -0.0916  0.3941
 2298SOL    HW1 7472   5.803   7.247   4.074 -0.4191 -0.6945 -0.0488
 2298SOL    HW2 7473   5.889   7.134   4.129 -1.8827 -2.1061 -0.5839
 2299SOL     OW 7474   6.651   3.324   5.502 -0.1679 -0.1016  0.0460
 2299SOL    HW1 7475   6.560   3.346   5.522 -0.3703 -0.2015 -0.7486
 2299SOL    HW2 7476   6.650   3.297   5.410  0.9613  1.6464 -0.5263
 2300SOL     OW 7477   5.704   0.999   2.354  0.2960  0.8283 -0.2742
 2300SOL    HW1 7478   5.681   1.065   2.420  1.2270  0.2673  0.6455
 2300SOL    HW2 7479   5.628   0.942   2.349 -0.1594  1.4346 -0.4102
 2301SOL     OW 7480   2.659   3.111   0.680 -0.3810  0.0390  0.2579
 2301SOL    HW1 7481   2.621   3.086   0.765 -0.5855 -0.9587 -0.1061
 2301SOL    HW2 7482   2.678   3.204   0.688 -0.6511  0.0140  1.3071
 2302SOL     OW 7483   8.340   8.995   5.887  0.1103  0.5174 -0.0429
 2302SOL    HW1 7484   8.348   9.084   5.855  0.4069  0.6097  0.2828
 2302SOL    HW2 7485   8.252   8.990   5.924  0.3292  0.8717  0.5316
 2303SOL     OW 7486   2.054   7.424   1.655 -0.2076  0.3428  0.1734
 2303SOL    HW1 7487   2.128   7.466   1.698  0.8313  0.6966 -1.8984
 2303SOL    HW2 7488   2.075   7.331   1.657 -1.2458  0.0814  2.3530
 2304SOL     OW 7489   2.985   3.097  10.000 -0.0015 -0.1794  0.0652
 2304SOL    HW1 7490   3.003   3.131   9.912 -4.4163  3.0837  0.0713
 2304SOL    HW2 7491   2.898   3.057   9.992  1.1781 -3.5917  2.2319
 2305SOL     OW 7492   6.088   2.786   3.379 -0.1304  0.0220  0.6535
 2305SOL    HW1 7493   6.077   2.818   3.289  0.9029  1.4590  1.0043
 2305SOL    HW2 7494   5.999   2.764   3.408 -0.4336 -0.8743 -0.8357
 2306SOL     OW 7495   7.850   0.930   4.476 -0.5343  0.5329 -0.0995
 2306SOL    HW1 7496   7.924   0.905   4.531  1.1360  0.2450 -2.3488
 2306SOL    HW2 7497   7.889   0.956   4.393 -3.0322 -2.2058 -2.3843
 2307SOL     OW 7498   3.179   2.747   4.184 -0.0492 -0.3390  0.1172
 2307SOL    HW1 7499   3.162   2.812   4.252  0.0006 -0.0061 -0.1872
 2307SOL    HW2 7500   3.230   2.679   4.228  3.4579  1.7039 -0.4458
 2308SOL     OW 7501   6.888   9.700   5.321  0.0330 -0.0020 -0.3477
 2308SOL    HW1 7502   6.871   9.614   5.360  0.1197 -0.5649 -1.5151
 2308SOL    HW2 7503   6.865   9.689   5.229  4.2117 -0.1269 -1.5919
 2309SOL     OW 7504   9.671   0.885   7.195  0.4740  0.2826 -0.3242
 2309SOL    HW1 7505   9.641   0.957   7.139  1.0888 -1.1081 -2.6043
 2309SOL    HW2 7506   9.727   0.926   7.261  2.3130  1.7896 -2.6555
 2310SOL     OW 7507   1.623   6.062   4.640  0.3318 -0.1930 -0.2796
 2310SOL    HW1 7508   1.568   6.102   4.573 -2.0287 -2.5382  0.1370
 2310SOL    HW2 7509   1.706   6.111   4.634 -1.6778  3.4651 -0.9598
 2311SOL     OW 7510   3.107   0.427   0.854  0.0936 -0.3448 -0.1215
 2311SOL    HW1 7511   3.049   0.366   0.899  0.9037  0.2789  1.8820
 2311SOL    HW2 7512   3.190   0.380   0.848  0.3145  0.0073  0.1252
 2312SOL     OW 7513   0.332   4.089   1.427 -0.7728  0.3088  0.1809
 2312SOL    HW1 7514   0.380   4.142   1.490 -1.8239 -0.2677  1.4962
 2312SOL    HW2 7515   0.297   4.153   1.364 -0.1592  0.9394  0.4723
 2313SOL     OW 7516   1.125   3.325   1.751 -0.3327  0.1872  0.6883
 2313SOL    HW1 7517   1.207   3.324   1.701 -0.7878 -0.9650 -0.0683
 2313SOL    HW2 7518   1.148   3.368   1.834  1.2326 -0.8296  0.8138
 2314SOL     OW 7519   5.082   5.621   7.439  0.4972 -0.2688 -0.5812
 2314SOL    HW1 7520   5.084   5.642   7.346  0.1840  1.1244 -0.2908
 2314SOL    HW2 7521   5.097   5.704   7.483  0.4478 -0.8742  0.6195
 2315SOL     OW 7522   9.062   4.227   4.203  0.0800  0.8567 -0.1644
 2315SOL    HW1 7523   9.038   4.135   4.214  2.1551  0.3881  1.0839
 2315SOL    HW2 7524   9.128   4.227   4.133  0.4205  1.3162  0.1470
 2316SOL     OW 7525   3.615   0.403   6.077  0.1030 -0.0916 -0.2556
 2316SOL    HW1 7526   3.527   0.421   6.044 -0.4098 -1.5052  0.3110
 2316SOL    HW2 7527   3.603   0.380   6.169  0.9340 -1.3630 -0.4447
 2317SOL     OW 7528   9.311   9.586   0.203  0.3555 -0.1993  0.3589
 2317SOL    HW1 7529   9.271   9.579   0.116  2.7038 -0.6475 -0.7591
 2317SOL    HW2 7530   9.252   9.536   0.260 -0.4733 -1.1471 -1.2551
 2318SOL     OW 7531   0.068   2.568   2.713  0.2246 -0.0510 -0.2747
 2318SOL    HW1 7532   0.060   2.510   2.638 -0.5225 -0.4810  0.1318
 2318SOL    HW2 7533  -0.004   2.630   2.704  0.3666  0.1369 -0.1278
 2319SOL     OW 7534   6.245   9.808   6.833 -0.2081 -0.0831 -0.0835
 2319SOL    HW1 7535   6.291   9.892   6.834  1.8190 -1.1053 -1.0231
 2319SOL    HW2 7536   6.271   9.768   6.750 -2.1067 -1.1505 -0.2206
 2320SOL     OW 7537   3.939   0.095   3.616  0.3241 -0.4080 -0.1807
 2320SOL    HW1 7538   3.898   0.012   3.595 -0.7852  0.0125  0.2226
 2320SOL    HW2 7539   3.897   0.158   3.557  0.0983  0.0925  0.4982
 2321SOL     OW 7540   9.296   2.323   3.603  0.4928  0.2661  0.1561
 2321SOL    HW1 7541   9.346   2.396   3.567 -0.4764  0.5891 -0.5897
 2321SOL    HW2 7542   9.356   2.281   3.665  2.0226  0.0370 -1.4037
 2322SOL     OW 7543   9.395   3.671   4.240 -0.0962 -0.7674  0.2648
 2322SOL    HW1 7544   9.471   3.699   4.291  0.8526 -0.5581 -1.2035
 2322SOL    HW2 7545   9.336   3.631   4.304  1.2025 -0.8451  1.4443
 2323SOL     OW 7546   4.151   1.806   3.823 -0.3383 -0.2337 -0.5920
 2323SOL    HW1 7547   4.162   1.766   3.909 -0.0978 -1.4749 -1.1893
 2323SOL    HW2 7548   4.208   1.757   3.765 -0.4239  0.6515 -1.4595
 2324SOL     OW 7549   3.596   6.187   2.991  0.2923  0.2177 -0.2652
 2324SOL    HW1 7550   3.689   6.186   3.014  0.4232 -1.0053 -0.7437
 2324SOL    HW2 7551   3.565   6.101   3.018 -0.3175  0.0032 -1.5963
 2325SOL     OW 7552   0.348   2.409   3.760  0.0067  0.7803 -0.6566
 2325SOL    HW1 7553   0.258   2.381   3.773  0.7902 -2.2651 -0.9967
 2325SOL    HW2 7554   0.383   2.419   3.849 -0.0239 -0.5710 -0.4646
 2326SOL     OW 7555   0.897   1.841   7.893 -0.1898  0.6874  0.1971
 2326SOL    HW1 7556   0.881   1.924   7.848  1.0017  0.1204 -1.3809
 2326SOL    HW2 7557   0.868   1.774   7.832  0.8819 -0.1095  0.5242
 2327SOL     OW 7558   9.471   1.675   8.982  0.0456 -0.2307 -0.0159
 2327SOL    HW1 7559   9.416   1.686   9.060 -0.0282  3.1568 -0.3951
 2327SOL    HW2 7560   9.552   1.636   9.016 -0.5741 -0.3036  1.4727
 2328SOL     OW 7561   9.166   5.385   4.121 -0.5876  0.2443 -0.3776
 2328SOL    HW1 7562   9.239   5.375   4.060 -0.4076 -2.2340  0.1348
 2328SOL    HW2 7563   9.108   5.448   4.078  1.5293  1.9070 -1.0398
 2329SOL     OW 7564   7.490   4.886   7.657  1.1757  0.2451  0.0943
 2329SOL    HW1 7565   7.432   4.946   7.610 -0.5963 -2.6788 -1.8388
 2329SOL    HW2 7566   7.573   4.890   7.609  0.3172 -0.5098 -1.5452
 2330SOL     OW 7567   7.372   2.402   6.935  0.6243  0.6036  1.3023
 2330SOL    HW1 7568   7.421   2.353   7.000 -0.5407 -1.9656  0.3611
 2330SOL    HW2 7569   7.380   2.350   6.855  0.5504  2.7481 -0.1956
 2331SOL     OW 7570   7.133   2.229   0.255 -0.2149  0.4371  0.1722
 2331SOL    HW1 7571   7.181   2.188   0.327  1.2315 -0.8454 -1.4386
 2331SOL    HW2 7572   7.201   2.259   0.195 -1.3119  3.4306  0.2830
 2332SOL     OW 7573   8.845   1.092   7.849 -0.0140  0.2034 -0.2751
 2332SOL    HW1 7574   8.755   1.061   7.857 -0.3834  0.3918 -2.9007
 2332SOL    HW2 7575   8.837   1.179   7.809  1.3491  0.2702 -0.4347
 2333SOL     OW 7576   2.355   4.266   6.966 -0.4316  0.1679  0.1396
 2333SOL    HW1 7577   2.401   4.185   6.945 -0.4048  0.3219 -0.4125
 2333SOL    HW2 7578   2.417   4.316   7.019  0.2676  0.5932 -1.0173
 2334SOL     OW 7579   9.658   1.533   6.133 -0.4243 -0.0174 -0.1380
 2334SOL    HW1 7580   9.635   1.495   6.048  1.4192 -1.3799 -0.0779
 2334SOL    HW2 7581   9.610   1.481   6.197 -0.2862 -0.2516 -0.2273
 2335SOL     OW 7582   1.400   0.933   0.763 -0.0818 -0.1248 -0.5163
 2335SOL    HW1 7583   1.433   0.849   0.795 -1.8363 -0.9188 -0.6483
 2335SOL    HW2 7584   1.385   0.919   0.669 -0.6270  0.2297 -0.4880
 2336SOL     OW 7585   8.186   9.818   2.698  0.1145 -0.3285 -0.0861
 2336SOL    HW1 7586   8.211   9.875   2.771  0.0844 -0.8648  0.3427
 2336SOL    HW2 7587   8.266   9.769   2.678 -0.4053 -1.6524  0.9280
 2337SOL     OW 7588   6.314   2.931   9.933  0.1863  0.2594 -0.6000
 2337SOL    HW1 7589   6.253   3.000   9.961 -0.2099 -0.4242  0.2729
 2337SOL    HW2 7590   6.273   2.850   9.961  2.0499 -0.1654  1.1902
 2338SOL     OW 7591   6.626   6.396   2.132 -0.0498 -0.1797 -0.1722
 2338SOL    HW1 7592   6.565   6.322   2.141  0.2059 -0.4239 -0.4131
 2338SOL    HW2 7593   6.701   6.371   2.187 -0.3892  0.3658  0.5627
 2339SOL     OW 7594   9.771   3.007   3.854 -0.3028  0.3356 -0.6627
 2339SOL    HW1 7595   9.783   2.920   3.816 -0.1016  0.3973 -0.7424
 2339SOL    HW2 7596   9.818   3.004   3.937 -0.1945  0.4080 -0.7222
 2340SOL     OW 7597   8.709   0.418   1.594 -0.0707  0.0313 -0.5335
 2340SOL    HW1 7598   8.631   0.368   1.572  0.4730 -0.8625 -0.4836
 2340SOL    HW2 7599   8.676   0.500   1.629 -1.0029 -0.7437  0.4602
 2341SOL     OW 7600   6.987   7.437   4.933 -0.3661 -0.6774 -0.1991
 2341SOL    HW1 7601   7.050   7.384   4.983  1.1160 -0.1211 -1.3795
 2341SOL    HW2 7602   7.042   7.498   4.884 -1.8655 -0.0702 -1.1893
 2342SOL     OW 7603   3.160   8.511   1.407 -0.3247 -0.0590  0.2922
 2342SOL    HW1 7604   3.234   8.465   1.366 -1.0110 -1.2093  0.3049
 2342SOL    HW2 7605   3.101   8.531   1.334  0.1629  1.2110  0.2261
 2343SOL     OW 7606   1.541   0.077   1.612 -0.2163 -0.5804 -0.3017
 2343SOL    HW1 7607   1.531   0.126   1.694 -0.2697  0.3114 -0.8246
 2343SOL    HW2 7608   1.603   0.129   1.561  0.3279 -1.4715 -0.5757
 2344SOL     OW 7609   0.700   4.738   2.977  0.0370  0.2764  0.0673
 2344SOL    HW1 7610   0.681   4.826   3.009 -4.2339 -0.0300 -0.9604
 2344SOL    HW2 7611   0.677   4.740   2.884  2.0032 -1.4276 -0.5420
 2345SOL     OW 7612   5.045   3.017   6.338  0.5725  0.1219 -0.3229
 2345SOL    HW1 7613   4.999   3.099   6.357 -2.4366 -0.9736 -2.1366
 2345SOL    HW2 7614   5.009   2.988   6.254  0.8614 -3.4561  0.6214
 2346SOL     OW 7615   7.941   4.645   1.918  0.7576  0.2860  0.1062
 2346SOL    HW1 7616   7.973   4.647   2.008  0.3563  0.5323  0.2489
 2346SOL    HW2 7617   7.846   4.653   1.927  0.6997  0.1122 -0.3307
 2347SOL     OW 7618   3.074   8.741   2.745  0.4829  1.3348 -0.3957
 2347SOL    HW1 7619   3.166   8.721   2.726  0.2924  1.2709 -1.2877
 2347SOL    HW2 7620   3.025   8.667   2.710  0.1451  0.9145  0.9188
 2348SOL     OW 7621   3.857   6.315   8.750  0.2757  0.3255 -0.9046
 2348SOL    HW1 7622   3.910   6.331   8.671  1.3526  4.2098  0.3744
 2348SOL    HW2 7623   3.771   6.350   8.728  0.1209 -0.0280 -0.8585
 2349SOL     OW 7624   4.245   5.236   4.377 -0.3419  0.0212 -0.0133
 2349SOL    HW1 7625   4.203   5.162   4.421  0.8042 -1.2456 -0.9570
 2349SOL    HW2 7626   4.219   5.228   4.285 -1.3554  1.6552  0.0963
 2350SOL     OW 7627   2.701   8.911   1.639  0.3334 -0.0389  0.0735
 2350SOL    HW1 7628   2.755   8.868   1.572  0.5474 -0.7463  0.6934
 2350SOL    HW2 7629   2.747   8.993   1.658  1.2922 -0.7116  0.7195
 2351SOL     OW 7630   2.048   3.819   1.740  0.0658  0.3207 -0.3592
 2351SOL    HW1 7631   2.029   3.743   1.685 -0.5202  0.0524  0.2014
 2351SOL    HW2 7632   2.052   3.892   1.678 -0.7928  0.0610 -0.7451
 2352SOL     OW 7633   0.295   5.756   6.630  0.1010  0.6996 -0.4476
 2352SOL    HW1 7634   0.308   5.684   6.569 -0.6804  0.5023 -0.3918
 2352SOL    HW2 7635   0.210   5.793   6.607 -0.4427  0.3106  0.8176
 2353SOL     OW 7636   8.931   7.216   7.898  0.6794 -0.6072 -0.0533
 2353SOL    HW1 7637   8.912   7.229   7.991 -1.0158 -0.6864 -0.3489
 2353SOL    HW2 7638   8.858   7.259   7.853  0.6787 -1.8385 -1.2882
 2354SOL     OW 7639   2.872   6.049   7.785  0.5620 -0.0493 -1.0599
 2354SOL    HW1 7640   2.795   6.101   7.764 -0.0620 -1.1268 -1.4978
 2354SOL    HW2 7641   2.898   6.009   7.702  0.5989 -0.9968 -0.6066
 2355SOL     OW 7642   6.735   4.355   6.233 -0.0043 -0.2129  0.1123
 2355SOL    HW1 7643   6.776   4.436   6.205 -0.8733 -0.1558 -1.0843
 2355SOL    HW2 7644   6.722   4.305   6.152 -0.9110 -0.8588  0.6290
 2356SOL     OW 7645   4.126   2.507   0.597  0.1543  0.2080 -0.1829
 2356SOL    HW1 7646   4.105   2.454   0.673  1.8570 -0.8675 -0.4103
 2356SOL    HW2 7647   4.221   2.505   0.591  0.3113  3.1227 -0.3595
 2357SOL     OW 7648   0.656   9.101   8.602  0.0085 -0.3317 -0.0712
 2357SOL    HW1 7649   0.724   9.149   8.650 -0.6046 -0.6207  1.1220
 2357SOL    HW2 7650   0.672   9.009   8.624  1.6876 -0.8558 -2.9883
 2358SOL     OW 7651   1.060   5.352   8.294  0.4239 -0.5864 -0.3555
 2358SOL    HW1 7652   0.971   5.387   8.287  1.1789  1.3222 -1.4015
 2358SOL    HW2 7653   1.078   5.352   8.388  0.2871  1.8243 -0.2566
 2359SOL     OW 7654   7.809   8.335   8.368  0.8959  0.0691  0.0865
 2359SOL    HW1 7655   7.775   8.336   8.279  2.1741  0.0845 -0.4188
 2359SOL    HW2 7656   7.774   8.255   8.406 -1.9623  1.3963  0.5418
 2360SOL     OW 7657   0.131   5.297   7.863  0.4020  0.5773 -0.5944
 2360SOL    HW1 7658   0.071   5.228   7.892  0.3142  0.4160 -1.1416
 2360SOL    HW2 7659   0.188   5.312   7.938  0.9363 -0.6629 -0.7220
 2361SOL     OW 7660   2.942   3.322   3.939  0.6283  0.2310  0.7627
 2361SOL    HW1 7661   3.009   3.293   3.877 -0.0209 -1.0643  0.6322
 2361SOL    HW2 7662   2.924   3.413   3.915  2.3553  0.6170  0.8291
 2362SOL     OW 7663   1.339   1.506   3.091  0.4369 -0.3403  0.1481
 2362SOL    HW1 7664   1.371   1.475   3.006 -1.0713 -2.0590  0.1509
 2362SOL    HW2 7665   1.367   1.440   3.154 -0.8111 -0.5273  0.5371
 2363SOL     OW 7666   9.352   9.484   4.067 -0.3941 -0.0704  0.3327
 2363SOL    HW1 7667   9.374   9.549   4.133  0.5760 -0.0067 -0.0257
 2363SOL    HW2 7668   9.260   9.501   4.046 -0.2322  1.0184  0.4263
 2364SOL     OW 7669   3.265   6.922   5.393 -0.7969  0.1266  0.3238
 2364SOL    HW1 7670   3.226   6.981   5.329  1.4179  1.0458 -0.2608
 2364SOL    HW2 7671   3.218   6.839   5.382 -1.6834  0.8048 -1.1996
 2365SOL     OW 7672   4.544   6.156   0.940 -0.3270 -0.3960 -0.3579
 2365SOL    HW1 7673   4.518   6.243   0.910 -0.4018  0.2146  1.3774
 2365SOL    HW2 7674   4.463   6.116   0.972  0.2019  0.1279  1.7377
 2366SOL     OW 7675   4.311   0.117   4.004 -0.0199  0.3186 -0.1383
 2366SOL    HW1 7676   4.226   0.143   3.968 -0.1546  1.1092  0.7051
 2366SOL    HW2 7677   4.329   0.032   3.964 -0.8560  0.4852 -0.8994
 2367SOL     OW 7678   1.208   9.083   0.402 -0.2876 -0.0174  0.6882
 2367SOL    HW1 7679   1.167   9.063   0.486 -0.9158 -0.6528  0.2418
 2367SOL    HW2 7680   1.183   9.010   0.345 -0.5895  0.8346 -0.2930
 2368SOL     OW 7681   2.387   6.032   3.221  0.5918 -0.1955  0.0575
 2368SOL    HW1 7682   2.458   6.005   3.280  1.1565 -1.3380 -1.0775
 2368SOL    HW2 7683   2.432   6.053   3.139 -0.1942  1.1549 -0.0404
 2369SOL     OW 7684   1.476   6.860   4.741 -0.0263 -0.0706  0.3565
 2369SOL    HW1 7685   1.491   6.874   4.835  0.7735  0.0092  0.2243
 2369SOL    HW2 7686   1.478   6.764   4.731 -2.9652 -0.2708  0.8553
 2370SOL     OW 7687   7.532   2.594   0.644  0.4243 -0.5856 -0.6215
 2370SOL    HW1 7688   7.474   2.668   0.658  1.2319 -0.3364  2.2315
 2370SOL    HW2 7689   7.576   2.611   0.561  1.0166  2.4907  0.2176
 2371SOL     OW 7690   2.681   5.181   1.420 -0.0745  0.2281 -0.3407
 2371SOL    HW1 7691   2.687   5.262   1.472  1.0415  0.5375 -0.9196
 2371SOL    HW2 7692   2.771   5.161   1.396 -0.3204 -1.2510 -0.1487
 2372SOL     OW 7693   5.347   1.692   3.078  0.0708 -0.2185  0.8436
 2372SOL    HW1 7694   5.282   1.754   3.045  0.4443 -0.4044 -0.2928
 2372SOL    HW2 7695   5.298   1.609   3.088  0.5614 -1.0450 -2.3754
 2373SOL     OW 7696   2.651   2.623   6.693 -0.1471  0.0665  0.3853
 2373SOL    HW1 7697   2.678   2.547   6.746  2.2449 -1.9622 -3.2708
 2373SOL    HW2 7698   2.567   2.597   6.654 -0.0647 -0.0901  0.3091
 2374SOL     OW 7699   0.415   6.344   0.944 -0.0485  0.0270  0.4255
 2374SOL    HW1 7700   0.359   6.388   0.880  0.7852  0.5409  0.0347
 2374SOL    HW2 7701   0.368   6.354   1.027 -0.2484  1.0053  0.2121
 2375SOL     OW 7702   3.675   5.406   0.560 -0.0816  0.3420 -0.2086
 2375SOL    HW1 7703   3.768   5.382   0.555 -0.2547 -0.5558  0.5829
 2375SOL    HW2 7704   3.675   5.501   0.548  0.7649  0.1754 -1.9357
 2376SOL     OW 7705   7.540   5.239   1.891  1.2163  0.2381 -0.5777
 2376SOL    HW1 7706   7.494   5.181   1.952  0.8191  0.6881 -0.4357
 2376SOL    HW2 7707   7.595   5.181   1.839 -1.8780 -0.8081 -2.9706
 2377SOL     OW 7708   8.815   6.079   0.425 -0.2781 -0.3670 -0.5619
 2377SOL    HW1 7709   8.871   6.113   0.494 -1.1226  0.5136 -0.3030
 2377SOL    HW2 7710   8.871   6.017   0.377  0.8846  0.4311 -0.2627
 2378SOL     OW 7711   1.574   6.927   9.004  0.3857 -0.1162 -0.4419
 2378SOL    HW1 7712   1.587   6.869   8.929 -0.2570 -0.3058 -0.4158
 2378SOL    HW2 7713   1.640   6.995   8.994 -0.3337  0.4376 -1.7359
 2379SOL     OW 7714   8.778   2.010   2.859 -0.4463 -0.0824  0.5858
 2379SOL    HW1 7715   8.760   2.006   2.765  0.7197  0.1496  0.3308
 2379SOL    HW2 7716   8.763   2.101   2.883  0.6632  0.1963  0.2943
 2380SOL     OW 7717   5.625   2.574   4.800  0.4660 -0.0678  0.1984
 2380SOL    HW1 7718   5.606   2.668   4.795  0.9742 -0.0027 -0.8468
 2380SOL    HW2 7719   5.555   2.533   4.750  1.2988 -0.0702 -1.0173
 2381SOL     OW 7720   3.014   4.171   1.827 -0.0954 -1.1574  0.2233
 2381SOL    HW1 7721   2.995   4.101   1.889  0.7972 -1.5697  0.0373
 2381SOL    HW2 7722   2.978   4.140   1.743  1.8164 -2.1950 -0.2612
 2382SOL     OW 7723   6.384   2.136   0.022  0.1720  0.4440 -0.1150
 2382SOL    HW1 7724   6.291   2.122   0.038  0.4474 -0.0672  1.1055
 2382SOL    HW2 7725   6.415   2.052  -0.013  0.0840  0.7772 -1.0271
 2383SOL     OW 7726   6.767   5.089   6.682 -0.1378 -0.7695  0.3786
 2383SOL    HW1 7727   6.678   5.118   6.663  0.1432 -0.0085  0.2007
 2383SOL    HW2 7728   6.762   4.994   6.678 -0.8227 -0.7213 -0.1619
 2384SOL     OW 7729   4.176   3.715   3.053 -0.6164 -0.3892 -0.1293
 2384SOL    HW1 7730   4.172   3.629   3.095  0.1149 -0.3637  0.0111
 2384SOL    HW2 7731   4.195   3.776   3.124  2.8385 -0.5932 -0.6788
 2385SOL     OW 7732   1.458   4.728   1.759  0.7082  0.1821 -0.0745
 2385SOL    HW1 7733   1.515   4.741   1.683  2.4321 -0.6989  1.0067
 2385SOL    HW2 7734   1.437   4.817   1.788 -2.1678  0.6406 -3.0227
 2386SOL     OW 7735   5.579   0.574   8.457 -0.4830 -0.6222 -0.3076
 2386SOL    HW1 7736   5.495   0.618   8.444 -0.6812 -0.5072  1.1705
 2386SOL    HW2 7737   5.627   0.588   8.375 -1.6992 -0.2562 -0.9825
 2387SOL     OW 7738   5.697   0.892   7.162  0.2725  0.0809  0.1151
 2387SOL    HW1 7739   5.786   0.920   7.139  0.2628  0.6932  0.7656
 2387SOL    HW2 7740   5.675   0.946   7.238  0.2012 -1.6318  1.3570
 2388SOL     OW 7741   3.069   8.190   8.295  0.4585 -0.4312 -0.1376
 2388SOL    HW1 7742   3.051   8.229   8.209  0.4357  2.8223  1.1689
 2388SOL    HW2 7743   2.996   8.130   8.311 -1.1186  1.0873 -1.2464
 2389SOL     OW 7744   0.705   0.726   9.942  0.1036 -0.5776 -0.2848
 2389SOL    HW1 7745   0.654   0.737   9.863 -0.8829  2.1720  0.6126
 2389SOL    HW2 7746   0.790   0.695   9.912  0.0681  1.2612 -2.5831
 2390SOL     OW 7747   5.258   2.904   5.128 -0.2063 -0.3069 -0.3414
 2390SOL    HW1 7748   5.291   2.931   5.042  1.3515  2.0082  0.8860
 2390SOL    HW2 7749   5.333   2.863   5.170 -0.4633  0.1076  0.5289
 2391SOL     OW 7750   4.364   5.743   1.124 -0.4029 -0.1522 -0.0622
 2391SOL    HW1 7751   4.277   5.710   1.100 -0.5645  0.8114 -0.8551
 2391SOL    HW2 7752   4.346   5.813   1.188 -0.1752 -0.2733  0.1375
 2392SOL     OW 7753   2.151   4.732   6.245  0.8221 -0.0559 -0.0417
 2392SOL    HW1 7754   2.088   4.765   6.180  2.0337 -0.5109 -1.5012
 2392SOL    HW2 7755   2.131   4.781   6.324 -1.1160  0.0886 -0.5683
 2393SOL     OW 7756   1.719   4.813   8.240  0.1278 -0.0084  0.1650
 2393SOL    HW1 7757   1.630   4.820   8.206  0.6232 -1.2284 -1.5129
 2393SOL    HW2 7758   1.724   4.880   8.308 -2.4720 -0.7898  1.2563
 2394SOL     OW 7759   7.478   4.027   4.331  0.0773 -0.4131  0.0022
 2394SOL    HW1 7760   7.545   4.094   4.315 -1.4769  1.0524 -0.6239
 2394SOL    HW2 7761   7.468   3.983   4.247 -1.4497  1.0487 -0.6481
 2395SOL     OW 7762   6.210   6.792   6.128 -0.3722 -0.2344 -0.5048
 2395SOL    HW1 7763   6.247   6.735   6.195  2.3051  2.3220  0.4234
 2395SOL    HW2 7764   6.137   6.835   6.171  0.3683  0.2514  0.2952
 2396SOL     OW 7765   4.811   0.274   9.441 -0.0624  0.2424  0.1689
 2396SOL    HW1 7766   4.839   0.296   9.352 -0.9040  2.1695  0.3293
 2396SOL    HW2 7767   4.738   0.213   9.428  1.9101 -2.1800 -0.3117
 2397SOL     OW 7768   3.669   6.633   8.274  0.4607 -0.0590  0.3623
 2397SOL    HW1 7769   3.580   6.603   8.256  0.5026 -0.3980  0.7127
 2397SOL    HW2 7770   3.668   6.656   8.367  0.5544  0.5923  0.2065
 2398SOL     OW 7771   0.646   0.446   3.327 -0.0999 -0.0877 -0.1858
 2398SOL    HW1 7772   0.609   0.421   3.242 -1.1478  1.2564 -0.1543
 2398SOL    HW2 7773   0.586   0.512   3.361  2.1256  1.9416  0.0543
 2399SOL     OW 7774   2.973   9.279   2.412  0.1972  0.4055 -0.1680
 2399SOL    HW1 7775   3.010   9.233   2.337  1.4623 -0.1122  0.7389
 2399SOL    HW2 7776   2.973   9.371   2.386 -1.1443  0.0674 -1.4957
 2400SOL     OW 7777   7.416   3.437   9.214 -0.0913 -0.4263 -0.6589
 2400SOL    HW1 7778   7.419   3.463   9.306 -0.2325  0.3281 -0.8594
 2400SOL    HW2 7779   7.508   3.439   9.186 -0.0593 -0.5601 -0.5663
 2401SOL     OW 7780   6.045   3.738   5.791  0.1010 -0.1683  0.4152
 2401SOL    HW1 7781   6.003   3.817   5.757  0.6342  0.7781  1.8515
 2401SOL    HW2 7782   6.049   3.752   5.886  1.6361 -1.2150  0.5411
 2402SOL     OW 7783   8.932   1.952   0.705  0.4995  0.1358 -0.6581
 2402SOL    HW1 7784   8.860   2.002   0.742  0.6069  0.1230 -0.4342
 2402SOL    HW2 7785   8.939   1.983   0.614 -0.5644 -0.6942 -1.0465
 2403SOL     OW 7786   7.375   4.190   1.765 -0.7040  0.5690  0.1352
 2403SOL    HW1 7787   7.280   4.199   1.758 -0.4941  3.7456 -0.1261
 2403SOL    HW2 7788   7.400   4.245   1.839  0.9111 -0.6285  0.5472
 2404SOL     OW 7789   7.815   9.428   7.249  0.4560  0.4054  0.2277
 2404SOL    HW1 7790   7.890   9.406   7.193 -0.1963  1.0022 -0.9154
 2404SOL    HW2 7791   7.795   9.347   7.295  2.3984  0.4798  1.2870
 2405SOL     OW 7792   8.932   3.281   6.428 -0.0965  0.2944 -0.3639
 2405SOL    HW1 7793   9.008   3.316   6.381  1.2966 -0.2985  1.3487
 2405SOL    HW2 7794   8.941   3.186   6.421 -0.1019  0.2075  0.7148
 2406SOL     OW 7795   9.655   4.587   4.303  0.2853  0.1015 -0.3233
 2406SOL    HW1 7796   9.741   4.608   4.266  0.8946  0.0499  1.0047
 2406SOL    HW2 7797   9.622   4.671   4.336 -0.7040  0.3380 -1.8320
 2407SOL     OW 7798   5.452   4.985   9.532 -0.3752 -0.6377 -0.1279
 2407SOL    HW1 7799   5.524   4.937   9.573 -0.5443 -1.3875 -0.6865
 2407SOL    HW2 7800   5.480   5.077   9.536 -0.7316 -0.5623  2.3529
 2408SOL     OW 7801   8.137   1.760   8.242  0.0625  0.0947 -0.1688
 2408SOL    HW1 7802   8.045   1.767   8.219  0.3034 -2.0038 -2.2101
 2408SOL    HW2 7803   8.174   1.845   8.217 -0.8140 -0.0787 -2.3015
 2409SOL     OW 7804   0.646   9.222   0.669 -0.6227 -0.1978  0.3240
 2409SOL    HW1 7805   0.609   9.239   0.582  1.4562 -0.2963 -0.6648
 2409SOL    HW2 7806   0.635   9.304   0.717  1.4189  1.1712 -1.3512
 2410SOL     OW 7807   0.515   8.294   6.885 -0.3825 -0.2556  0.2264
 2410SOL    HW1 7808   0.450   8.303   6.814 -0.7194 -0.9559  0.4414
 2410SOL    HW2 7809   0.595   8.267   6.841 -1.0399 -2.4715  0.2596
 2411SOL     OW 7810   8.323   9.765   5.001  0.1362 -0.4441 -0.2790
 2411SOL    HW1 7811   8.327   9.670   5.013 -0.3744 -0.2812  1.6020
 2411SOL    HW2 7812   8.364   9.800   5.080 -0.2316  0.8947 -0.6639
 2412SOL     OW 7813   6.573   6.183   3.008  0.3414  0.6335  0.2919
 2412SOL    HW1 7814   6.547   6.094   3.030  2.2950  0.2212  1.1541
 2412SOL    HW2 7815   6.598   6.179   2.916 -1.1537  0.7129 -0.1421
 2413SOL     OW 7816   7.406   9.547   7.321 -0.2487 -0.8869  0.2323
 2413SOL    HW1 7817   7.320   9.567   7.359  0.0812  1.3973 -0.0709
 2413SOL    HW2 7818   7.402   9.583   7.233  1.9165  2.0029  1.1640
 2414SOL     OW 7819   2.196   2.334   8.266 -0.0476  0.0694  0.4668
 2414SOL    HW1 7820   2.191   2.423   8.301 -1.3546  0.6070 -0.9712
 2414SOL    HW2 7821   2.280   2.331   8.221 -0.2523  0.7813  0.0180
 2415SOL     OW 7822   1.536   9.060   1.200  0.6164 -0.0924  0.1467
 2415SOL    HW1 7823   1.506   9.037   1.288 -0.1727  0.1220 -0.0590
 2415SOL    HW2 7824   1.506   8.987   1.145 -0.4982  0.6305 -0.2412
 2416SOL     OW 7825   6.062   2.313   9.328  0.0529 -0.1357 -0.1657
 2416SOL    HW1 7826   5.977   2.274   9.311  0.3699 -0.6816 -0.5166
 2416SOL    HW2 7827   6.120   2.239   9.344  0.3064  0.2617  0.8202
 2417SOL     OW 7828   1.520   0.598   4.793 -0.3126 -0.8848 -0.1279
 2417SOL    HW1 7829   1.494   0.578   4.702 -0.7115 -1.0896  0.0295
 2417SOL    HW2 7830   1.493   0.521   4.843 -0.1542 -0.7423  0.1786
 2418SOL     OW 7831   6.455   5.002   9.547 -0.2287 -0.5218  0.0334
 2418SOL    HW1 7832   6.379   4.946   9.562  1.0973 -2.4845 -0.1902
 2418SOL    HW2 7833   6.519   4.944   9.504  1.1490  1.2322 -0.3770
 2419SOL     OW 7834   8.511   2.237   1.036 -0.0969  0.1328 -0.3911
 2419SOL    HW1 7835   8.583   2.176   1.024 -1.4912 -1.1310 -3.1765
 2419SOL    HW2 7836   8.547   2.322   1.011  0.7163 -0.2867 -0.6645
 2420SOL     OW 7837   9.773   7.735   6.792 -0.0781  0.5488 -0.0086
 2420SOL    HW1 7838   9.777   7.741   6.887 -0.7415  1.0749 -0.0075
 2420SOL    HW2 7839   9.850   7.783   6.761  0.5384 -0.2304  0.2647
 2421SOL     OW 7840   3.333   8.743   3.387 -0.2367  0.2329  0.3812
 2421SOL    HW1 7841   3.287   8.802   3.326 -0.8296  1.1920  1.6937
 2421SOL    HW2 7842   3.349   8.798   3.464  1.0979 -0.7588  0.8300
 2422SOL     OW 7843   6.447   6.548   2.339 -0.1509  0.0485  0.3579
 2422SOL    HW1 7844   6.479   6.504   2.261 -1.2521  0.6597 -0.4675
 2422SOL    HW2 7845   6.409   6.478   2.393 -2.0104 -0.0668 -0.9939
 2423SOL     OW 7846   1.403   5.347   4.401 -0.1875 -0.2397  0.4063
 2423SOL    HW1 7847   1.446   5.262   4.390  0.5034  0.0772  0.6026
 2423SOL    HW2 7848   1.454   5.391   4.469 -0.2282  0.5335 -0.0529
 2424SOL     OW 7849   6.705   8.656   4.434  0.1661  0.1090  0.2205
 2424SOL    HW1 7850   6.609   8.661   4.429  0.2190  0.3725 -0.6569
 2424SOL    HW2 7851   6.735   8.691   4.350  1.0256 -0.2467  0.3728
 2425SOL     OW 7852   7.546   4.213   9.571  0.0225  0.1611 -0.6275
 2425SOL    HW1 7853   7.575   4.138   9.624 -3.3025 -0.4562  0.5503
 2425SOL    HW2 7854   7.594   4.288   9.607 -0.3060 -0.6505  1.6334
 2426SOL     OW 7855   2.886   6.807   0.490  0.3276 -0.3351  0.2498
 2426SOL    HW1 7856   2.852   6.811   0.579  1.0633  0.1596  0.5217
 2426SOL    HW2 7857   2.832   6.869   0.441  1.6275  1.4787  0.9817
 2427SOL     OW 7858   8.580   7.877   2.426  0.3001 -0.5221 -0.0591
 2427SOL    HW1 7859   8.616   7.883   2.338  1.8318  1.6530  0.6442
 2427SOL    HW2 7860   8.655   7.862   2.483 -0.5829 -1.1983  0.9895
 2428SOL     OW 7861   3.497   5.488   3.198  0.2293  0.1854  0.6174
 2428SOL    HW1 7862   3.415   5.500   3.150  1.8750  1.5318 -2.0814
 2428SOL    HW2 7863   3.509   5.393   3.203  0.0141 -0.0259 -1.8432
 2429SOL     OW 7864   8.101   1.604   0.361  0.0753 -0.0697  0.5649
 2429SOL    HW1 7865   8.054   1.573   0.438  0.2502 -0.8394  0.3699
 2429SOL    HW2 7866   8.032   1.634   0.302 -0.0055  2.1430  1.6535
 2430SOL     OW 7867   1.407   1.693   8.857 -0.3649  0.0524 -0.4663
 2430SOL    HW1 7868   1.380   1.782   8.881  0.3384 -0.1187  1.0832
 2430SOL    HW2 7869   1.336   1.638   8.890  0.6806 -0.1982  1.5460
 2431SOL     OW 7870   9.416   8.193   8.308  0.0419 -0.7061  0.0602
 2431SOL    HW1 7871   9.354   8.238   8.250 -0.6434  1.1987  2.1202
 2431SOL    HW2 7872   9.501   8.232   8.286  0.1709 -1.6387 -1.1750
 2432SOL     OW 7873   1.387   7.629   7.357 -0.0222  0.2276 -0.0602
 2432SOL    HW1 7874   1.322   7.681   7.311 -1.4576 -1.1522  0.3151
 2432SOL    HW2 7875   1.446   7.598   7.289 -0.2908  0.7472 -0.5376
 2433SOL     OW 7876   4.725   8.779   9.250  0.0446 -0.1186 -0.7220
 2433SOL    HW1 7877   4.816   8.750   9.234  0.4972  0.9548 -0.1563
 2433SOL    HW2 7878   4.673   8.699   9.239  1.1710 -0.9991  0.0318
 2434SOL     OW 7879   7.445   1.296   3.177 -0.2755 -0.2875  0.3985
 2434SOL    HW1 7880   7.427   1.230   3.243 -0.3141  0.6492  1.3612
 2434SOL    HW2 7881   7.513   1.351   3.216  0.1965 -0.1119 -0.6246
 2435SOL     OW 7882   3.979   9.056   2.915 -0.0302  0.2566  0.3763
 2435SOL    HW1 7883   4.009   9.145   2.899  1.1798  0.1708  1.9035
 2435SOL    HW2 7884   3.886   9.065   2.933  0.2059  1.3192  1.1739
 2436SOL     OW 7885   8.399   0.049   1.276 -0.0465 -0.5706 -0.3224
 2436SOL    HW1 7886   8.330   0.051   1.343 -1.4290  0.7293 -1.7089
 2436SOL    HW2 7887   8.469   0.103   1.312 -0.4073 -0.6127  0.4565
 2437SOL     OW 7888   4.134   5.838   1.787 -0.0846 -0.1708  0.2999
 2437SOL    HW1 7889   4.158   5.881   1.869  1.5008 -0.1248 -0.1633
 2437SOL    HW2 7890   4.152   5.745   1.803 -0.2392 -0.2266  0.1562
 2438SOL     OW 7891   4.749   6.275   8.456  0.0439 -0.0035  0.4150
 2438SOL    HW1 7892   4.721   6.201   8.403  1.3930  0.2936 -0.7959
 2438SOL    HW2 7893   4.797   6.235   8.529 -1.1698 -0.3859  1.0250
 2439SOL     OW 7894   0.525   7.865   8.352  0.1103  0.3359 -0.1882
 2439SOL    HW1 7895   0.549   7.874   8.444 -0.6423  2.0779 -0.1244
 2439SOL    HW2 7896   0.437   7.901   8.346  0.0268 -0.0223 -1.5483
 2440SOL     OW 7897   1.058   5.736   2.790  0.0791  0.0098  0.4880
 2440SOL    HW1 7898   1.104   5.779   2.862 -0.5815 -0.2013  1.0484
 2440SOL    HW2 7899   0.993   5.799   2.761  0.9860  0.4782 -0.5969
 2441SOL     OW 7900   8.161   9.757   3.815 -0.1064 -0.3493 -0.5291
 2441SOL    HW1 7901   8.112   9.759   3.733 -1.3097 -2.4749  0.0594
 2441SOL    HW2 7902   8.206   9.841   3.818  0.7483 -0.5576 -3.7938
 2442SOL     OW 7903   7.436   9.307   0.109 -0.1444  0.2513  0.3699
 2442SOL    HW1 7904   7.506   9.369   0.091 -1.0624  1.1688 -0.1320
 2442SOL    HW2 7905   7.474   9.221   0.090  1.6058  0.4823  2.4340
 2443SOL     OW 7906   9.146   0.717   6.680  0.2039 -0.3514 -0.3898
 2443SOL    HW1 7907   9.163   0.697   6.589  1.0638  1.1205 -0.5861
 2443SOL    HW2 7908   9.231   0.742   6.716 -0.2000 -0.4618  0.6949
 2444SOL     OW 7909   3.845   9.014   1.896  0.2765 -0.5823 -0.3158
 2444SOL    HW1 7910   3.871   8.923   1.902  2.8748  0.1190  0.1378
 2444SOL    HW2 7911   3.882   9.044   1.813 -0.6054  0.0815 -0.4933
 2445SOL     OW 7912   7.445   8.157   0.888  0.1231 -0.3076 -0.0275
 2445SOL    HW1 7913   7.462   8.082   0.945  1.1016  0.5349  0.8378
 2445SOL    HW2 7914   7.434   8.231   0.948 -1.0377  0.2281 -0.8495
 2446SOL     OW 7915   6.880   0.663   5.451  0.9189 -0.1299  0.2315
 2446SOL    HW1 7916   6.833   0.591   5.408 -0.4332  0.6702  0.3208
 2446SOL    HW2 7917   6.924   0.621   5.526 -0.9756 -0.6563  1.0981
 2447SOL     OW 7918   9.297   0.130   2.280 -0.0231  0.0679 -0.1656
 2447SOL    HW1 7919   9.364   0.062   2.275  1.3633  1.4629 -2.2450
 2447SOL    HW2 7920   9.221   0.094   2.234  0.6209 -0.1795 -1.0562
 2448SOL     OW 7921   2.103   4.783   9.359 -0.0295 -0.4718 -0.1384
 2448SOL    HW1 7922   2.092   4.853   9.424 -1.1842  0.9974 -1.8208
 2448SOL    HW2 7923   2.177   4.812   9.306 -0.9628 -0.1091 -1.2852
 2449SOL     OW 7924   1.934   5.790   6.584 -0.4526 -0.1630  0.0610
 2449SOL    HW1 7925   1.867   5.774   6.518 -1.3278 -0.8306  1.0635
 2449SOL    HW2 7926   2.002   5.725   6.565 -0.1058  0.4674 -0.9183
 2450SOL     OW 7927   8.046   8.102   5.467 -0.0602  0.2967  0.2456
 2450SOL    HW1 7928   8.071   8.137   5.382 -1.1179 -1.8970 -1.0193
 2450SOL    HW2 7929   8.102   8.026   5.480 -0.6640 -0.0284  1.0235
 2451SOL     OW 7930   4.345   0.914   4.321 -0.2498  0.1298  0.4234
 2451SOL    HW1 7931   4.412   0.905   4.254 -0.3179 -0.6938  0.4612
 2451SOL    HW2 7932   4.285   0.840   4.307 -3.6082  2.9815 -2.2911
 2452SOL     OW 7933   0.921   6.775   1.011  0.0199 -0.0571  0.5273
 2452SOL    HW1 7934   0.883   6.691   1.033 -2.1157  0.4728 -0.8972
 2452SOL    HW2 7935   0.946   6.767   0.919 -1.5146  1.2736 -0.0428
 2453SOL     OW 7936   3.406   1.626   0.975 -0.5736 -0.3124  0.1510
 2453SOL    HW1 7937   3.490   1.628   1.021 -0.7843 -0.1222  0.5393
 2453SOL    HW2 7938   3.388   1.533   0.962  0.2143 -0.3299 -0.9156
 2454SOL     OW 7939   9.965   1.698   6.684 -0.0122 -0.4794 -0.3072
 2454SOL    HW1 7940  10.002   1.777   6.725 -0.8963 -1.0784  1.8058
 2454SOL    HW2 7941   9.888   1.730   6.638 -0.7735 -0.1398  1.1213
 2455SOL     OW 7942   0.475   3.185   5.035 -0.3330 -0.2529  0.2664
 2455SOL    HW1 7943   0.531   3.120   5.077  1.1466  1.1401  0.5793
 2455SOL    HW2 7944   0.533   3.261   5.022 -1.6374  0.5260 -1.2753
 2456SOL     OW 7945   3.316   4.384   9.816 -0.5966 -0.1260 -0.0124
 2456SOL    HW1 7946   3.400   4.427   9.799 -0.2580 -0.3680  0.9876
 2456SOL    HW2 7947   3.262   4.453   9.855 -1.6497  0.6627 -2.6264
 2457SOL     OW 7948   2.305   2.130   4.809 -0.2219 -0.5339 -0.2575
 2457SOL    HW1 7949   2.361   2.054   4.823  1.5847  0.6256 -0.8853
 2457SOL    HW2 7950   2.298   2.171   4.895  0.9491 -0.0176 -0.3869
 2458SOL     OW 7951   4.745   2.692   8.548  0.5041  0.0612 -0.3299
 2458SOL    HW1 7952   4.790   2.769   8.583  0.6068 -0.4873  0.7641
 2458SOL    HW2 7953   4.658   2.694   8.589  0.1638  0.1037 -1.0297
 2459SOL     OW 7954   2.055   8.716   2.127 -0.0362  0.1373 -0.1460
 2459SOL    HW1 7955   2.074   8.622   2.132 -1.3285 -0.0961  1.9589
 2459SOL    HW2 7956   2.074   8.740   2.037 -0.9026 -2.4375 -1.1032
 2460SOL     OW 7957   3.047   7.366   4.524  0.6208  0.7158 -0.0644
 2460SOL    HW1 7958   3.037   7.433   4.591  0.7516 -0.5133  1.2108
 2460SOL    HW2 7959   3.013   7.407   4.444 -0.7266  1.7590  1.0035
 2461SOL     OW 7960   7.165   4.616   3.179  0.2787  0.0392  0.7189
 2461SOL    HW1 7961   7.107   4.680   3.137  1.3822 -0.5156 -1.8404
 2461SOL    HW2 7962   7.214   4.667   3.244 -0.2381  1.3659  0.1110
 2462SOL     OW 7963   5.977   3.912   4.420  0.5277 -0.2000 -0.3198
 2462SOL    HW1 7964   5.951   3.918   4.328 -0.1764  1.1123 -0.0612
 2462SOL    HW2 7965   5.931   3.984   4.462  0.4429 -1.0936  1.1677
 2463SOL     OW 7966   8.184   7.415   8.437  0.1202 -0.2287  0.2653
 2463SOL    HW1 7967   8.176   7.439   8.345  2.3739 -2.2063 -0.5776
 2463SOL    HW2 7968   8.175   7.319   8.437  1.1586 -0.3662  1.9446
 2464SOL     OW 7969   8.046   8.878   1.653  0.0937 -0.0600 -0.0238
 2464SOL    HW1 7970   8.010   8.789   1.657 -2.4466  0.8654 -0.8092
 2464SOL    HW2 7971   8.013   8.914   1.571  0.8127  1.7321  0.4271
 2465SOL     OW 7972   0.161   9.092   5.574  0.1130 -0.2154  0.3817
 2465SOL    HW1 7973   0.210   9.067   5.496 -0.4934  0.6352 -0.2960
 2465SOL    HW2 7974   0.222   9.080   5.647  0.6429 -1.1430 -0.2049
 2466SOL     OW 7975   7.999   5.718   5.292 -0.1747  0.1730 -0.0270
 2466SOL    HW1 7976   7.950   5.637   5.282 -1.4612  0.9608 -0.3552
 2466SOL    HW2 7977   7.963   5.759   5.370 -0.3993  0.9921 -0.5416
 2467SOL     OW 7978   6.556   0.849   5.658 -0.0009  0.1410 -0.4785
 2467SOL    HW1 7979   6.521   0.767   5.624  2.0916 -1.1020  0.1728
 2467SOL    HW2 7980   6.559   0.836   5.753  0.6660  0.8282 -0.3993
 2468SOL     OW 7981   9.553   4.471   6.746  0.0690  0.1827 -0.0461
 2468SOL    HW1 7982   9.497   4.394   6.747  0.7220 -0.3523 -1.4968
 2468SOL    HW2 7983   9.508   4.535   6.801 -1.1926 -0.7465  0.0272
 2469SOL     OW 7984   1.391   5.133   2.158  0.2700  0.3446 -0.1928
 2469SOL    HW1 7985   1.436   5.140   2.074  2.8757  0.7830  1.1662
 2469SOL    HW2 7986   1.362   5.042   2.162  2.0248 -0.2735 -0.6875
 2470SOL     OW 7987   7.522   5.206   6.488  0.2917 -0.0607 -0.0610
 2470SOL    HW1 7988   7.561   5.122   6.512 -2.1399 -0.8524  1.4847
 2470SOL    HW2 7989   7.427   5.190   6.492 -0.2587  2.2080 -1.8498
 2471SOL     OW 7990   8.426   0.321   6.603 -0.3689  0.0887  0.4440
 2471SOL    HW1 7991   8.453   0.250   6.662 -1.3805  0.3150  1.2004
 2471SOL    HW2 7992   8.494   0.387   6.612  0.9261 -1.0089 -0.7403
 2472SOL     OW 7993   7.131   7.407   0.536 -0.2511  0.4332  0.1898
 2472SOL    HW1 7994   7.173   7.347   0.597 -0.9309  0.6379  0.8696
 2472SOL    HW2 7995   7.162   7.379   0.450 -1.1561 -1.3843  0.4193
 2473SOL     OW 7996   6.008   4.012   0.094  0.0000 -0.5170 -0.5262
 2473SOL    HW1 7997   5.971   3.933   0.056  0.0970 -1.4270  1.1937
 2473SOL    HW2 7998   5.932   4.062   0.125  0.0026 -0.4915 -0.5610
 2474SOL     OW 7999   9.091   2.584   0.545  0.2873 -0.1266  0.1955
 2474SOL    HW1 8000   9.104   2.506   0.599 -1.5636 -0.5138  0.1174
 2474SOL    HW2 8001   9.170   2.588   0.490  1.1697 -0.9860  1.3520
 2475SOL     OW 8002   3.757   2.385   7.475  0.2092 -0.3428 -0.0945
 2475SOL    HW1 8003   3.662   2.387   7.484  0.0850 -0.9303 -1.1850
 2475SOL    HW2 8004   3.777   2.455   7.412  0.6092  0.4720  0.9066
 2476SOL     OW 8005   2.884   6.229   5.038  0.0072 -0.3891  0.1257
 2476SOL    HW1 8006   2.945   6.172   4.991 -1.1331 -0.7269 -0.9963
 2476SOL    HW2 8007   2.879   6.308   4.983  0.1044  0.0024  0.6727
 2477SOL     OW 8008   3.457   0.858   3.625 -0.7393 -0.1772 -0.3840
 2477SOL    HW1 8009   3.453   0.953   3.630 -3.2095 -0.2672  0.3692
 2477SOL    HW2 8010   3.396   0.835   3.554 -0.8942 -1.2404  0.0724
 2478SOL     OW 8011   0.179   1.575   4.587 -0.2484  0.4514 -0.0800
 2478SOL    HW1 8012   0.143   1.489   4.608 -0.0111  0.2293 -0.5543
 2478SOL    HW2 8013   0.235   1.559   4.511  1.3768  0.6716  1.0444
 2479SOL     OW 8014   1.690   0.554   8.834 -0.4785 -0.2963  0.1422
 2479SOL    HW1 8015   1.649   0.534   8.918 -1.0691 -2.1688 -0.5276
 2479SOL    HW2 8016   1.755   0.484   8.822 -0.6201 -0.2375 -1.0938
 2480SOL     OW 8017   9.542   9.196   3.118 -0.4677  0.1372  0.2782
 2480SOL    HW1 8018   9.554   9.263   3.051 -2.3163 -0.4634 -0.7084
 2480SOL    HW2 8019   9.607   9.217   3.185  0.2722  1.7635 -0.8973
 2481SOL     OW 8020   9.201   6.021   8.102 -0.3893  0.1113  0.0674
 2481SOL    HW1 8021   9.254   6.061   8.170 -0.7888 -1.9119  1.6739
 2481SOL    HW2 8022   9.138   6.088   8.077 -0.5993  0.7221  2.1200
 2482SOL     OW 8023   3.860   8.453   3.032  0.2392  0.3611  0.0589
 2482SOL    HW1 8024   3.842   8.541   2.998 -1.0924 -0.6588 -2.1746
 2482SOL    HW2 8025   3.773   8.418   3.055  0.6350 -0.6581  0.0638
 2483SOL     OW 8026   4.854   4.320   7.247 -0.3249  0.3316  0.2793
 2483SOL    HW1 8027   4.799   4.242   7.246 -0.4745  0.4376 -0.6240
 2483SOL    HW2 8028   4.930   4.296   7.300  0.8386 -1.2880 -1.9562
 2484SOL     OW 8029   9.703   7.952   7.016 -0.4650 -0.3663 -0.0848
 2484SOL    HW1 8030   9.742   7.959   7.103 -0.4741 -1.4771  0.0229
 2484SOL    HW2 8031   9.738   8.027   6.968  2.4169 -1.6624 -0.2211
 2485SOL     OW 8032   5.223   5.735   3.974 -0.4694  0.0924 -0.5296
 2485SOL    HW1 8033   5.174   5.657   3.998  0.2061  0.3659  2.0339
 2485SOL    HW2 8034   5.310   5.722   4.013  0.6429  0.8308 -2.6091
 2486SOL     OW 8035   8.894   4.679   5.131  0.0098 -0.3344 -0.3462
 2486SOL    HW1 8036   8.930   4.745   5.071 -1.1059  0.6739  0.0564
 2486SOL    HW2 8037   8.885   4.725   5.214  0.7431 -1.4867  0.4001
 2487SOL     OW 8038   3.147   6.444   8.836 -0.3791 -0.0505 -0.4742
 2487SOL    HW1 8039   3.195   6.361   8.836  0.9695  0.6218  1.9521
 2487SOL    HW2 8040   3.213   6.509   8.809  0.2435  0.8891  2.8706
 2488SOL     OW 8041   5.778   5.966   6.502  0.0649 -0.0769  0.5231
 2488SOL    HW1 8042   5.705   5.934   6.449  0.5296 -0.2761 -0.0052
 2488SOL    HW2 8043   5.821   5.887   6.533 -0.9657  0.0107  2.3057
 2489SOL     OW 8044   5.931   1.712   0.568 -0.2601  0.0605 -0.1595
 2489SOL    HW1 8045   5.841   1.743   0.578  0.2300  1.3972  0.4554
 2489SOL    HW2 8046   5.942   1.646   0.636  0.0343  1.9314  1.7128
 2490SOL     OW 8047   4.052   8.076   0.750 -0.0341  0.0452 -0.1055
 2490SOL    HW1 8048   4.003   8.108   0.674  0.0566  1.7108  0.4949
 2490SOL    HW2 8049   4.121   8.142   0.763 -0.3283  0.0449  1.6857
 2491SOL     OW 8050   0.226   4.546   0.496 -0.0007  0.0277  0.5679
 2491SOL    HW1 8051   0.313   4.573   0.526 -0.0965  1.6302 -0.5373
 2491SOL    HW2 8052   0.167   4.615   0.525 -0.4287  0.5111 -1.3261
 2492SOL     OW 8053   9.010   7.777   5.510 -0.7034 -0.2328 -0.2085
 2492SOL    HW1 8054   8.965   7.703   5.469  1.6312 -0.7526 -2.0412
 2492SOL    HW2 8055   9.100   7.772   5.477 -0.7104  4.1973 -1.5402
 2493SOL     OW 8056   4.237   5.611   9.139 -0.5629 -0.3952  0.5963
 2493SOL    HW1 8057   4.285   5.629   9.058  0.0993 -0.5067  0.9585
 2493SOL    HW2 8058   4.289   5.545   9.184  0.9954  2.0969  2.7485
 2494SOL     OW 8059   1.450   1.639  10.005 -0.2366  0.5139 -0.1778
 2494SOL    HW1 8060   1.423   1.709   9.946  2.6271  2.4518  0.6074
 2494SOL    HW2 8061   1.506   1.582   9.952  0.0774  0.6837 -0.0329
 2495SOL     OW 8062   6.013   9.385   0.943 -0.2249  0.0532 -0.4246
 2495SOL    HW1 8063   6.080   9.324   0.913 -0.0108  0.5868 -1.0459
 2495SOL    HW2 8064   6.051   9.472   0.929 -0.0185  0.3500  1.5873
 2496SOL     OW 8065   6.243   9.534   4.387  0.5239  0.1182  0.1542
 2496SOL    HW1 8066   6.172   9.592   4.360 -1.0195 -1.5060  0.5598
 2496SOL    HW2 8067   6.283   9.578   4.461  0.3367  1.3489 -0.4601
 2497SOL     OW 8068   6.341   5.832   1.049 -0.2357  0.2599  0.0141
 2497SOL    HW1 8069   6.333   5.790   1.135  0.9297 -2.5432 -1.1313
 2497SOL    HW2 8070   6.274   5.789   0.995  0.0595  0.8726 -0.8596
 2498SOL     OW 8071   6.442   8.004   8.566 -0.1112 -0.6052  0.2305
 2498SOL    HW1 8072   6.536   7.992   8.580 -0.1838  0.7118  2.2546
 2498SOL    HW2 8073   6.404   7.919   8.587  0.6889 -1.6651 -2.2103
 2499SOL     OW 8074   5.558   2.132   3.155  0.3148 -0.3956 -0.3032
 2499SOL    HW1 8075   5.539   2.129   3.062 -2.0718  0.6223  0.0604
 2499SOL    HW2 8076   5.602   2.215   3.169 -0.8357  0.2508 -0.3527
 2500SOL     OW 8077   1.521   1.165   5.010  0.2610 -0.5712 -0.2764
 2500SOL    HW1 8078   1.543   1.195   5.098 -0.3903  0.9761 -0.6158
 2500SOL    HW2 8079   1.603   1.128   4.976  0.7418 -0.3727  0.6417
 2501SOL     OW 8080   5.014   3.415   3.498 -0.3454  0.0079 -0.1729
 2501SOL    HW1 8081   5.055   3.452   3.419 -1.0787 -1.6101 -1.3779
 2501SOL    HW2 8082   4.948   3.480   3.523 -0.6010  0.2343 -1.3460
 2502SOL     OW 8083   6.066   5.106   0.592  0.0397 -0.2373  0.0496
 2502SOL    HW1 8084   5.973   5.103   0.615  0.0020  0.6108  0.0519
 2502SOL    HW2 8085   6.109   5.052   0.658 -0.1714  1.3762  1.5863
 2503SOL     OW 8086   8.817   3.184   2.212 -0.0414 -0.5752  0.5423
 2503SOL    HW1 8087   8.878   3.246   2.253 -0.1985  1.1433 -1.6224
 2503SOL    HW2 8088   8.874   3.120   2.169  0.2152 -0.0471  0.0818
 2504SOL     OW 8089   3.771   7.990   4.761  0.3457 -0.2464 -0.5026
 2504SOL    HW1 8090   3.682   7.969   4.788  1.0381  0.5096  2.8717
 2504SOL    HW2 8091   3.823   7.916   4.792  1.0872  0.0670 -0.9775
 2505SOL     OW 8092   5.417   7.628   0.301 -0.2193 -0.1369  0.3368
 2505SOL    HW1 8093   5.326   7.656   0.311 -0.0618  0.6723 -0.3904
 2505SOL    HW2 8094   5.422   7.598   0.210 -0.1810 -1.8280  0.8601
 2506SOL     OW 8095   0.209   3.259   4.949  0.1895  0.0848  0.0495
 2506SOL    HW1 8096   0.179   3.253   4.859  1.3685 -0.2873 -0.3350
 2506SOL    HW2 8097   0.302   3.234   4.946  0.2731  0.1396  1.3452
 2507SOL     OW 8098   0.957   0.654   7.666  0.1295 -0.1639 -1.0744
 2507SOL    HW1 8099   0.943   0.749   7.673  1.8204  0.0876 -0.6973
 2507SOL    HW2 8100   0.977   0.640   7.574 -0.2448 -0.1747 -1.1548
 2508SOL     OW 8101   9.372   4.493   0.868 -0.2300  0.2625  0.2749
 2508SOL    HW1 8102   9.401   4.565   0.924  3.3642 -0.9441  0.2830
 2508SOL    HW2 8103   9.364   4.531   0.781 -2.3504  1.4096  0.9104
 2509SOL     OW 8104   7.893   6.303   3.850 -0.6504  0.1611  0.2737
 2509SOL    HW1 8105   7.924   6.302   3.941 -0.4326 -0.7778  0.2006
 2509SOL    HW2 8106   7.973   6.310   3.798 -0.8001  1.0698  0.1546
 2510SOL     OW 8107   6.996   8.087   6.999 -0.4053 -0.1362  0.2744
 2510SOL    HW1 8108   6.928   8.021   6.991 -0.9179  0.4623 -0.5099
 2510SOL    HW2 8109   7.031   8.076   7.087  0.0213 -1.9135 -0.0865
 2511SOL     OW 8110   6.544   3.267   8.251  0.1729 -0.0586 -0.2465
 2511SOL    HW1 8111   6.456   3.305   8.248 -0.3603 -1.2621 -0.5104
 2511SOL    HW2 8112   6.596   3.330   8.301 -0.8293  0.6927 -0.1273
 2512SOL     OW 8113   8.567   6.663   7.940  0.0716 -0.4383 -0.9403
 2512SOL    HW1 8114   8.619   6.584   7.927  0.6564 -0.1804 -0.2547
 2512SOL    HW2 8115   8.587   6.718   7.864  0.1969 -0.6615 -1.0694
 2513SOL     OW 8116   6.167   8.396   1.870 -0.2680 -0.5535 -0.0237
 2513SOL    HW1 8117   6.137   8.447   1.945  2.2046  0.2976  0.5061
 2513SOL    HW2 8118   6.256   8.369   1.894  1.2467  1.0385 -3.1567
 2514SOL     OW 8119   8.588   8.342   1.477 -0.3750 -0.2265  0.8911
 2514SOL    HW1 8120   8.618   8.259   1.439  0.5375  0.9615 -1.1351
 2514SOL    HW2 8121   8.592   8.327   1.572  0.5159 -2.2293  0.6015
 2515SOL     OW 8122   8.307   7.836   3.567 -0.1897 -0.7844  0.4469
 2515SOL    HW1 8123   8.313   7.743   3.550  0.8409 -0.7389  0.5146
 2515SOL    HW2 8124   8.232   7.865   3.516 -1.4383 -1.8995  1.5649
 2516SOL     OW 8125   2.682   0.717   9.531 -0.2730 -1.4795  0.3851
 2516SOL    HW1 8126   2.748   0.763   9.478  0.2128  0.9842  2.9017
 2516SOL    HW2 8127   2.611   0.700   9.469  1.3389 -1.2293 -1.6717
 2517SOL     OW 8128   8.963   9.346   7.192  0.0868 -0.3202  0.2497
 2517SOL    HW1 8129   8.934   9.266   7.236 -0.3552  0.3837  1.2849
 2517SOL    HW2 8130   9.056   9.353   7.215 -0.0928 -0.0654  0.9201
 2518SOL     OW 8131   0.573   2.037   3.743 -0.0250  0.3615 -0.1371
 2518SOL    HW1 8132   0.632   2.112   3.741 -0.6569  0.8510 -1.1584
 2518SOL    HW2 8133   0.602   1.986   3.819  1.5107  0.7351 -0.4360
 2519SOL     OW 8134   0.755   9.141   2.315  0.2336 -0.6397  0.1178
 2519SOL    HW1 8135   0.849   9.124   2.321  0.4021  0.5592  1.2754
 2519SOL    HW2 8136   0.749   9.230   2.281 -0.3968  0.1960  2.2722
 2520SOL     OW 8137   3.621   0.392   4.502 -0.0424  0.0554  0.4673
 2520SOL    HW1 8138   3.700   0.441   4.527  0.0617  2.0857 -3.2137
 2520SOL    HW2 8139   3.645   0.300   4.512  1.6475  0.6357  2.4093
 2521SOL     OW 8140   4.637   0.166   2.095 -0.2337  0.1118 -0.2203
 2521SOL    HW1 8141   4.621   0.214   2.014  0.9955  2.1138  0.6624
 2521SOL    HW2 8142   4.615   0.227   2.165  0.0709 -1.0762  0.9668
 2522SOL     OW 8143   0.648   7.734   5.233  0.1023 -0.3633  0.0836
 2522SOL    HW1 8144   0.626   7.706   5.144 -1.6963  1.6158 -0.1880
 2522SOL    HW2 8145   0.727   7.787   5.223 -0.3843  0.2882 -0.4598
 2523SOL     OW 8146   3.334   0.866   8.178  0.3268  0.7212 -0.8814
 2523SOL    HW1 8147   3.394   0.936   8.152 -0.6288  0.8873 -2.8068
 2523SOL    HW2 8148   3.381   0.785   8.157  0.7755  0.8051 -0.2148
 2524SOL     OW 8149   9.200   8.191   3.361  0.0017 -0.0096  0.1833
 2524SOL    HW1 8150   9.132   8.229   3.416 -0.0491 -2.3378  1.8676
 2524SOL    HW2 8151   9.283   8.216   3.404 -0.0626 -2.6489  2.0399
 2525SOL     OW 8152   0.832   3.036   4.784 -0.8087 -0.0454 -1.0533
 2525SOL    HW1 8153   0.924   3.023   4.807 -0.5413 -0.7237 -2.4224
 2525SOL    HW2 8154   0.819   3.130   4.796 -0.3592 -0.1429  0.5345
 2526SOL     OW 8155   5.106   2.847   0.842 -0.0299  0.3918 -0.0697
 2526SOL    HW1 8156   5.126   2.902   0.917 -0.5598 -0.1264  0.4661
 2526SOL    HW2 8157   5.191   2.813   0.813  0.1044 -0.0200  0.7843
 2527SOL     OW 8158   1.910   4.749   6.104  0.2216 -0.8397  0.5810
 2527SOL    HW1 8159   1.837   4.688   6.108 -1.5086  0.7804 -2.8922
 2527SOL    HW2 8160   1.870   4.836   6.097  2.5660  0.5172  2.3002
 2528SOL     OW 8161   3.684   9.188   2.727  0.2065  0.5273 -0.0297
 2528SOL    HW1 8162   3.736   9.173   2.805  0.5007 -1.1192 -0.5053
 2528SOL    HW2 8163   3.745   9.174   2.654 -0.7147 -0.7812 -0.5864
 2529SOL     OW 8164   0.490   9.549   9.444  0.2953 -0.1905 -0.3453
 2529SOL    HW1 8165   0.539   9.574   9.365 -0.2318 -0.9391 -0.9233
 2529SOL    HW2 8166   0.553   9.560   9.515  1.5323 -1.7048 -1.1386
 2530SOL     OW 8167   0.797   0.808   4.308  0.4270 -0.0795 -1.0162
 2530SOL    HW1 8168   0.842   0.838   4.387 -0.2731 -1.0115 -0.2395
 2530SOL    HW2 8169   0.704   0.814   4.330  0.2493 -1.5851 -1.2798
 2531SOL     OW 8170   4.730   1.562   4.052  0.3435 -0.0340 -0.3199
 2531SOL    HW1 8171   4.702   1.500   3.986  0.6338  0.8413 -1.2930
 2531SOL    HW2 8172   4.803   1.519   4.097 -1.8484 -1.9719  1.6665
 2532SOL     OW 8173   1.379   4.396   2.052  0.1380  0.4603 -0.2830
 2532SOL    HW1 8174   1.371   4.487   2.080 -1.3485  0.4855 -0.6777
 2532SOL    HW2 8175   1.464   4.368   2.084 -0.3021  1.3307  1.7736
 2533SOL     OW 8176   4.575   3.687   9.133  0.2681 -0.0440  0.0202
 2533SOL    HW1 8177   4.541   3.739   9.061 -1.7792 -1.5406 -0.1793
 2533SOL    HW2 8178   4.497   3.656   9.180  1.4928  0.3056  2.4935
 2534SOL     OW 8179   1.708   8.835   0.228  0.0853 -0.1495  0.0629
 2534SOL    HW1 8180   1.615   8.810   0.221  0.2572 -0.3955 -2.2356
 2534SOL    HW2 8181   1.711   8.896   0.302 -2.0231  0.3376 -0.1848
 2535SOL     OW 8182   7.146   1.810   9.067  0.3689 -0.5600  0.0010
 2535SOL    HW1 8183   7.188   1.896   9.072 -0.3755 -0.2264  0.8258
 2535SOL    HW2 8184   7.219   1.748   9.062  0.9152  0.1120 -0.4674
 2536SOL     OW 8185   6.842   3.830   9.480  0.0324  0.1115  0.1299
 2536SOL    HW1 8186   6.764   3.881   9.504  0.1742 -0.0229  0.8888
 2536SOL    HW2 8187   6.889   3.817   9.562  1.3892  1.0595 -0.4449
 2537SOL     OW 8188   8.409   2.782   5.056 -0.4578  0.4986 -0.3592
 2537SOL    HW1 8189   8.401   2.877   5.046 -0.4607  0.3059 -2.7665
 2537SOL    HW2 8190   8.501   2.767   5.076 -0.4786  0.9967  0.1344
 2538SOL     OW 8191   7.027   5.925   1.147 -0.2395  0.0109  0.0471
 2538SOL    HW1 8192   6.934   5.904   1.136 -0.4441  0.8152  0.2037
 2538SOL    HW2 8193   7.059   5.935   1.057 -1.2067  3.5078 -0.0593
 2539SOL     OW 8194   9.775   2.803   9.200 -0.0582  0.4808  0.0364
 2539SOL    HW1 8195   9.794   2.814   9.106 -1.7271  0.4032 -0.3396
 2539SOL    HW2 8196   9.834   2.865   9.243  1.3183 -0.0445 -0.9817
 2540SOL     OW 8197   4.605   8.611   8.047 -0.1738 -0.0150 -0.2374
 2540SOL    HW1 8198   4.545   8.628   7.974 -0.5790 -1.4910 -0.2991
 2540SOL    HW2 8199   4.649   8.694   8.062 -1.0966  0.6939 -1.2426
 2541SOL     OW 8200   4.277   7.779   0.453  0.3291  0.1696 -0.0440
 2541SOL    HW1 8201   4.315   7.745   0.372  1.4893 -1.1566  0.9983
 2541SOL    HW2 8202   4.352   7.793   0.511 -0.4780  0.9693  0.8542
 2542SOL     OW 8203   9.173   6.733   6.692 -0.4213  0.1908 -0.5798
 2542SOL    HW1 8204   9.253   6.682   6.682 -1.2487 -1.1847 -0.3635
 2542SOL    HW2 8205   9.107   6.687   6.640 -1.1645  1.0922 -0.4703
 2543SOL     OW 8206   4.822   7.797   6.724  0.2046  0.1883  0.4543
 2543SOL    HW1 8207   4.763   7.871   6.709  0.9353  0.7343  0.1877
 2543SOL    HW2 8208   4.821   7.784   6.819 -0.6902 -0.1018  0.4053
 2544SOL     OW 8209   5.021   3.147   0.554  0.7374  0.2931  0.1515
 2544SOL    HW1 8210   5.036   3.129   0.647  0.0965  0.2959  0.2547
 2544SOL    HW2 8211   4.944   3.203   0.552  0.9845  0.6240 -0.3601
 2545SOL     OW 8212   3.091   6.301   1.562  0.6361 -0.2371  0.3578
 2545SOL    HW1 8213   3.166   6.266   1.611  1.0872  0.9365  0.5352
 2545SOL    HW2 8214   3.025   6.317   1.629  0.6458 -0.1923  0.3564
 2546SOL     OW 8215   8.932   3.042   7.789  0.6186  0.7362 -0.0851
 2546SOL    HW1 8216   8.886   3.106   7.843 -0.3333 -0.4744  0.6029
 2546SOL    HW2 8217   8.870   2.970   7.780  1.2167  0.3880 -1.8104
 2547SOL     OW 8218   2.569   9.325   3.513 -0.2784 -0.2522 -0.1628
 2547SOL    HW1 8219   2.544   9.416   3.496 -2.9651 -0.3634  2.3571
 2547SOL    HW2 8220   2.624   9.330   3.591 -0.2478 -0.7522 -0.1538
 2548SOL     OW 8221   4.540   3.346   2.588 -0.2387  0.0337  0.3744
 2548SOL    HW1 8222   4.554   3.265   2.540  0.6455  0.9497 -0.9857
 2548SOL    HW2 8223   4.464   3.386   2.546  0.1150  0.5090  0.1777
 2549SOL     OW 8224   6.719   8.349   2.223 -0.3037  0.3279 -0.3768
 2549SOL    HW1 8225   6.781   8.420   2.210 -0.6559  0.2127 -3.0983
 2549SOL    HW2 8226   6.771   8.278   2.260  0.6944  0.9877 -0.4790
 2550SOL     OW 8227   4.488   0.482   6.179  0.1976  0.3703 -0.3514
 2550SOL    HW1 8228   4.464   0.497   6.271  2.7645 -1.5505  0.7596
 2550SOL    HW2 8229   4.572   0.527   6.169  1.3957 -1.8012 -0.8044
 2551SOL     OW 8230   9.720   9.809   5.086  0.0014 -0.0264  0.2137
 2551SOL    HW1 8231   9.631   9.834   5.113 -0.1682  0.1244 -0.4549
 2551SOL    HW2 8232   9.718   9.816   4.990  1.3464  2.0975  0.2646
 2552SOL     OW 8233   8.664   1.973   1.081 -0.0256 -0.3381  0.0710
 2552SOL    HW1 8234   8.673   2.005   1.171 -0.0879  0.7488 -0.3028
 2552SOL    HW2 8235   8.740   1.916   1.068 -0.2377 -0.8306  0.9461
 2553SOL     OW 8236   9.578   0.145   5.805 -0.6489  0.1241 -0.0986
 2553SOL    HW1 8237   9.599   0.053   5.791 -0.6618  0.1247 -0.1219
 2553SOL    HW2 8238   9.620   0.167   5.888  2.1423  0.9623 -1.6055
 2554SOL     OW 8239   6.243   2.807   9.062  0.4308  0.1412 -0.1372
 2554SOL    HW1 8240   6.184   2.737   9.092 -0.5618  0.9710 -0.0916
 2554SOL    HW2 8241   6.321   2.761   9.033  0.0631 -0.9436  0.5098
 2555SOL     OW 8242   4.714   5.621   1.814 -0.3307 -0.0925  0.4375
 2555SOL    HW1 8243   4.726   5.529   1.791 -0.9308  0.3630 -2.0453
 2555SOL    HW2 8244   4.619   5.634   1.810 -0.3270  0.4519  1.6651
 2556SOL     OW 8245   1.266   7.626   3.932 -1.0828  0.2531  0.2676
 2556SOL    HW1 8246   1.358   7.603   3.945 -1.2826 -0.6543  0.1153
 2556SOL    HW2 8247   1.243   7.675   4.012 -0.2761  1.1585 -0.0275
 2557SOL     OW 8248   2.667   5.053   9.277 -0.2561 -0.2518  0.4232
 2557SOL    HW1 8249   2.578   5.037   9.309  0.1319 -1.0819  1.1093
 2557SOL    HW2 8250   2.672   5.148   9.268 -1.2121 -0.1963  0.3650
 2558SOL     OW 8251   5.138   7.227   0.770 -0.4886  0.1138  0.3161
 2558SOL    HW1 8252   5.190   7.306   0.785 -0.0006  0.1353 -1.3086
 2558SOL    HW2 8253   5.048   7.257   0.766 -0.1537  0.9789 -2.4016
 2559SOL     OW 8254   9.084   4.019   2.929  0.1409 -0.3669  0.2926
 2559SOL    HW1 8255   8.998   4.027   2.968 -0.9559  0.6420 -2.1218
 2559SOL    HW2 8256   9.084   3.933   2.888 -0.3443  0.2013 -0.9649
 2560SOL     OW 8257   7.801   9.040   4.070  0.5635 -0.1721  0.8118
 2560SOL    HW1 8258   7.763   8.960   4.106 -0.3314 -0.1039  0.0466
 2560SOL    HW2 8259   7.733   9.107   4.084  0.8070  0.1773  0.3282
 2561SOL     OW 8260   1.920   2.927   4.804 -0.4803  0.1746  0.0725
 2561SOL    HW1 8261   1.968   2.942   4.723  1.2596  1.6073  1.2916
 2561SOL    HW2 8262   1.834   2.966   4.789 -0.8748 -1.2279 -1.6830
 2562SOL     OW 8263   4.499   1.410   7.038  0.3759  0.3292 -0.6217
 2562SOL    HW1 8264   4.420   1.395   6.986  0.5213  0.1489 -0.7916
 2562SOL    HW2 8265   4.501   1.337   7.100  1.5468 -0.8973 -2.0151
 2563SOL     OW 8266   2.623   4.505   1.101  0.4285  0.4881  1.1056
 2563SOL    HW1 8267   2.542   4.529   1.145  0.4310 -0.5411  1.7073
 2563SOL    HW2 8268   2.625   4.559   1.022 -1.8073 -0.7731  0.0918
 2564SOL     OW 8269   6.221   4.569   1.664 -0.0138 -0.1317  0.2789
 2564SOL    HW1 8270   6.172   4.652   1.656 -0.6942 -0.6814 -3.1316
 2564SOL    HW2 8271   6.158   4.509   1.704 -0.1007  0.5502  1.2126
 2565SOL     OW 8272   4.675   1.666   1.810 -0.3080  0.1605 -0.0375
 2565SOL    HW1 8273   4.726   1.743   1.834 -0.0828 -0.0299  0.0925
 2565SOL    HW2 8274   4.681   1.608   1.885 -0.6123  0.0835 -0.0717
 2566SOL     OW 8275   8.436   7.159   6.087  0.3790  0.2329 -0.4637
 2566SOL    HW1 8276   8.415   7.145   5.995 -1.4276 -0.2400 -0.0118
 2566SOL    HW2 8277   8.365   7.213   6.120  1.7514  1.6148  0.3542
 2567SOL     OW 8278   1.435   8.474   0.549  0.4524  0.1323 -0.4341
 2567SOL    HW1 8279   1.354   8.509   0.512 -0.5467 -0.2531  1.2420
 2567SOL    HW2 8280   1.408   8.394   0.594  1.9857 -0.6341 -0.8073
 2568SOL     OW 8281   0.982   1.614   5.669  0.0080 -0.4760  0.0416
 2568SOL    HW1 8282   0.941   1.700   5.663  0.5002 -0.0900  1.6617
 2568SOL    HW2 8283   0.924   1.556   5.621 -0.4581  0.7079 -0.8780
 2569SOL     OW 8284   2.090   1.042   7.068 -0.6101  0.6885 -0.4315
 2569SOL    HW1 8285   2.148   1.027   6.994  0.1153  0.0848  0.2318
 2569SOL    HW2 8286   2.090   0.959   7.116 -3.2188  0.1447 -1.1946
 2570SOL     OW 8287   9.366   3.460   9.719  0.0809  0.1773  0.1442
 2570SOL    HW1 8288   9.456   3.480   9.744  0.1229  0.3078 -0.1060
 2570SOL    HW2 8289   9.319   3.543   9.732 -0.2343 -0.1595  1.2986
 2571SOL     OW 8290   4.739   6.239   1.155 -0.3544  0.4761  0.1143
 2571SOL    HW1 8291   4.694   6.174   1.101  1.0672 -0.7593  0.3757
 2571SOL    HW2 8292   4.773   6.190   1.230  0.8442  1.4890  0.2669
 2572SOL     OW 8293   3.087   5.159   3.672 -0.1072  0.2623  0.2679
 2572SOL    HW1 8294   3.171   5.194   3.702  0.3867  0.3316 -1.1293
 2572SOL    HW2 8295   3.110   5.097   3.603 -1.2804  2.0632 -1.8562
 2573SOL     OW 8296   7.660   0.527   6.177 -0.7123 -0.1028  0.5336
 2573SOL    HW1 8297   7.623   0.600   6.226  3.0317  1.0663  1.9847
 2573SOL    HW2 8298   7.656   0.453   6.237 -1.7566 -0.3580  0.1801
 2574SOL     OW 8299   2.016   9.796   5.219  0.0214  0.5739  0.6250
 2574SOL    HW1 8300   2.026   9.813   5.125 -0.4844 -1.1475  0.2156
 2574SOL    HW2 8301   2.106   9.785   5.251  0.1850 -3.5398 -0.6982
 2575SOL     OW 8302   3.940   3.446   6.954  0.2848 -0.3373  0.1005
 2575SOL    HW1 8303   3.991   3.401   6.886  1.8982  0.1126  0.9494
 2575SOL    HW2 8304   3.965   3.402   7.035 -1.4597 -0.7323  0.4609
 2576SOL     OW 8305   5.278   0.597   2.333  0.2723  0.2715 -0.9251
 2576SOL    HW1 8306   5.287   0.552   2.417  1.5458 -0.3780 -1.3823
 2576SOL    HW2 8307   5.189   0.633   2.334  0.2667  0.2697  0.6902
 2577SOL     OW 8308   6.308   9.006   7.687  1.1794  0.2138  0.3542
 2577SOL    HW1 8309   6.236   9.054   7.729  1.1220  0.2475  0.2199
 2577SOL    HW2 8310   6.369   8.986   7.758  1.3331  0.7234  0.3700
 2578SOL     OW 8311   3.425   3.731   0.706 -0.6693 -0.3348 -0.2961
 2578SOL    HW1 8312   3.472   3.696   0.782 -1.3843 -0.4880  0.0865
 2578SOL    HW2 8313   3.375   3.656   0.673 -0.0247 -0.3828 -1.1927
 2579SOL     OW 8314   7.951   9.328   8.666  0.3291 -0.4588  0.0487
 2579SOL    HW1 8315   8.021   9.311   8.729  0.3702 -1.2142 -0.1846
 2579SOL    HW2 8316   7.912   9.242   8.650  0.3428 -0.2855 -0.9818
 2580SOL     OW 8317   8.340   1.622   4.683 -0.2006  1.0052 -0.5217
 2580SOL    HW1 8318   8.380   1.566   4.750 -1.9176  0.7165  0.3201
 2580SOL    HW2 8319   8.344   1.570   4.603  0.1256  0.5518 -0.2191
 2581SOL     OW 8320   6.380   6.857   7.165 -0.0271  0.1129  0.2945
 2581SOL    HW1 8321   6.309   6.794   7.156 -0.4145  0.4164  1.1459
 2581SOL    HW2 8322   6.428   6.829   7.242  1.2238 -0.4979 -0.6688
 2582SOL     OW 8323   9.109   4.950   6.819 -0.3360 -0.6658 -0.0317
 2582SOL    HW1 8324   9.179   5.013   6.805 -0.8712 -0.4358 -1.9186
 2582SOL    HW2 8325   9.139   4.897   6.893  0.8838  0.7054  0.5020
 2583SOL     OW 8326   5.942   7.750   4.588  0.0301 -0.1699 -0.1022
 2583SOL    HW1 8327   5.916   7.841   4.598  1.5895  0.2153  0.9286
 2583SOL    HW2 8328   5.944   7.716   4.677 -2.1710 -1.7613 -0.5828
 2584SOL     OW 8329   6.630   0.793   0.553  0.0190  0.7196 -0.0260
 2584SOL    HW1 8330   6.561   0.849   0.589 -0.6085  0.9506 -1.4955
 2584SOL    HW2 8331   6.593   0.705   0.554  0.1210  0.6791  0.1810
 2585SOL     OW 8332   4.624   5.220   8.668 -0.1692 -0.2954  0.3740
 2585SOL    HW1 8333   4.653   5.255   8.584 -1.5279  0.1778  0.0778
 2585SOL    HW2 8334   4.623   5.125   8.656 -0.0563 -0.2466 -0.0419
 2586SOL     OW 8335   1.733   7.736   1.393  0.1491 -0.4926 -0.1792
 2586SOL    HW1 8336   1.755   7.688   1.313  2.5667  0.7953 -0.3919
 2586SOL    HW2 8337   1.774   7.685   1.463 -0.1818 -0.5093  0.0052
 2587SOL     OW 8338   3.989   4.504   7.007  0.3005 -0.0258 -0.4122
 2587SOL    HW1 8339   3.963   4.436   7.069  1.1136 -0.0724 -0.1095
 2587SOL    HW2 8340   4.006   4.581   7.061 -0.3075  0.3289 -0.7206
 2588SOL     OW 8341   9.843   5.216   2.664 -0.0475  0.6570  0.4871
 2588SOL    HW1 8342   9.805   5.151   2.605 -1.1488  0.3414  1.5055
 2588SOL    HW2 8343   9.918   5.172   2.704 -0.8076 -0.0398  1.1997
 2589SOL     OW 8344   6.848   5.572   2.466 -0.2143 -0.1507  0.2670
 2589SOL    HW1 8345   6.852   5.620   2.383 -0.1396  0.3207  0.5367
 2589SOL    HW2 8346   6.787   5.500   2.450 -2.1787  1.3638  0.5210
 2590SOL     OW 8347   9.022   5.974   9.160  0.1906  0.3148  0.5710
 2590SOL    HW1 8348   9.036   6.062   9.195  2.3231 -0.0159  0.6936
 2590SOL    HW2 8349   9.108   5.948   9.126 -0.0298 -2.2045  1.7146
 2591SOL     OW 8350   1.038   1.892   3.376 -0.2480  0.2925  0.7012
 2591SOL    HW1 8351   1.106   1.917   3.439  1.0300  2.6272 -1.4112
 2591SOL    HW2 8352   1.071   1.811   3.337  0.0246  0.0223  1.4584
 2592SOL     OW 8353   2.911   4.426   3.440  0.0399 -0.0695  0.2272
 2592SOL    HW1 8354   2.953   4.357   3.389  1.7009  0.7389  0.4210
 2592SOL    HW2 8355   2.963   4.431   3.520 -1.3547 -0.0083  1.1720
 2593SOL     OW 8356   3.785   3.585   6.579  0.1852 -0.4361  0.3415
 2593SOL    HW1 8357   3.756   3.665   6.622 -1.6484  0.1419 -1.7724
 2593SOL    HW2 8358   3.724   3.518   6.609  0.5731 -0.6403  0.6841
 2594SOL     OW 8359   2.200   1.464   3.559  0.3423 -0.8427  0.2112
 2594SOL    HW1 8360   2.227   1.507   3.478 -1.5722  0.5712  0.2482
 2594SOL    HW2 8361   2.217   1.529   3.628  0.1014 -1.2529  0.6675
 2595SOL     OW 8362   7.032   3.404   6.878 -0.1216  0.0417 -0.0384
 2595SOL    HW1 8363   7.121   3.373   6.894 -0.0727 -0.9992 -1.9770
 2595SOL    HW2 8364   7.042   3.496   6.853  0.2072  0.4208  1.4370
 2596SOL     OW 8365   3.860   0.524   8.905 -0.4332 -0.6945 -0.3178
 2596SOL    HW1 8366   3.937   0.481   8.943  1.1538  2.3087  0.1027
 2596SOL    HW2 8367   3.872   0.516   8.810 -0.0715 -0.9784 -0.2503
 2597SOL     OW 8368   8.738   5.606   5.501 -0.0850 -0.0834  0.0856
 2597SOL    HW1 8369   8.711   5.628   5.590 -0.9700  2.6624 -0.7642
 2597SOL    HW2 8370   8.657   5.579   5.458  0.3000 -1.1692  0.0217
 2598SOL     OW 8371   0.186   1.288   8.311  0.1305 -0.1784  0.3663
 2598SOL    HW1 8372   0.258   1.227   8.327  0.0968 -0.2214  0.3538
 2598SOL    HW2 8373   0.134   1.285   8.392 -0.9976 -1.6855 -0.3637
 2599SOL     OW 8374   4.004   9.776   6.677 -0.4135  0.2810 -0.3380
 2599SOL    HW1 8375   4.084   9.756   6.725 -1.3317 -1.7758  0.4489
 2599SOL    HW2 8376   4.016   9.734   6.592 -0.7339 -0.2329 -0.1336
 2600SOL     OW 8377   1.827   5.692   5.430 -0.0864  0.3524 -0.3371
 2600SOL    HW1 8378   1.806   5.716   5.520 -2.3800  0.6120 -0.8827
 2600SOL    HW2 8379   1.813   5.598   5.425  1.1635  0.1323 -0.1818
 2601SOL     OW 8380   6.313   7.198   3.236  0.7476  0.0171 -0.1312
 2601SOL    HW1 8381   6.351   7.277   3.275  0.0250  0.6205 -0.6303
 2601SOL    HW2 8382   6.353   7.192   3.149  0.7386 -0.1145 -0.1266
 2602SOL     OW 8383   0.997   2.489   1.222  0.5469 -0.2809 -0.0739
 2602SOL    HW1 8384   0.908   2.525   1.224  0.6719  0.0630 -0.5669
 2602SOL    HW2 8385   0.988   2.406   1.176  0.8439  0.8478 -2.3016
 2603SOL     OW 8386   2.672   3.230   3.880  0.4595  0.0275  0.3944
 2603SOL    HW1 8387   2.745   3.257   3.936  0.1227 -1.4435  1.6053
 2603SOL    HW2 8388   2.597   3.279   3.913  0.5874  0.3889  0.1523
 2604SOL     OW 8389   8.642   1.850   4.253 -0.0012 -0.0682 -0.2631
 2604SOL    HW1 8390   8.649   1.884   4.342 -0.9974  1.2577 -0.6540
 2604SOL    HW2 8391   8.648   1.928   4.197  0.1204 -0.8248 -1.3308
 2605SOL     OW 8392   6.420   9.161   2.673 -0.3418 -0.0542 -0.0428
 2605SOL    HW1 8393   6.420   9.148   2.768 -1.4311 -0.0465 -0.0368
 2605SOL    HW2 8394   6.490   9.103   2.642  1.0777  1.0760  0.8832
 2606SOL     OW 8395   7.723   7.829   7.450  0.6006 -0.8686  0.5690
 2606SOL    HW1 8396   7.716   7.899   7.515 -1.2926 -0.1728 -0.2941
 2606SOL    HW2 8397   7.762   7.871   7.373  1.3854 -1.2998  0.7210
 2607SOL     OW 8398   3.840   7.875   2.440  0.4707 -0.1800  0.0750
 2607SOL    HW1 8399   3.819   7.883   2.347  0.2577 -0.4404  0.0995
 2607SOL    HW2 8400   3.886   7.791   2.447 -0.5799 -0.7506  0.3837
 2608SOL     OW 8401   3.998   3.534   4.713  0.3233  0.1961 -0.5867
 2608SOL    HW1 8402   4.079   3.484   4.723  0.8560  1.0484 -0.5662
 2608SOL    HW2 8403   3.992   3.587   4.793 -0.2113  0.2055 -0.6259
 2609SOL     OW 8404   2.559   5.531   1.495  0.3463 -0.0918  0.0835
 2609SOL    HW1 8405   2.539   5.583   1.573  0.7819  1.2720 -0.6839
 2609SOL    HW2 8406   2.646   5.495   1.513  0.7359  0.7670 -0.0383
 2610SOL     OW 8407   1.681   8.219   7.841 -0.0719  0.5550  0.1299
 2610SOL    HW1 8408   1.629   8.200   7.763 -0.3688  3.0355 -0.3618
 2610SOL    HW2 8409   1.765   8.250   7.807 -0.0737  1.3233  0.8056
 2611SOL     OW 8410   5.232   4.819   3.532  0.4457  0.1705  0.5008
 2611SOL    HW1 8411   5.231   4.914   3.522  0.4416  0.0640 -0.5369
 2611SOL    HW2 8412   5.267   4.786   3.450 -0.8269 -0.7903  0.3216
 2612SOL     OW 8413   4.599   9.406   3.734  0.0753 -0.2022 -0.7626
 2612SOL    HW1 8414   4.618   9.499   3.718 -1.7327  0.0099 -2.1113
 2612SOL    HW2 8415   4.503   9.401   3.729 -0.0853 -1.6933  2.0723
 2613SOL     OW 8416   1.001   2.794   1.452 -0.0948 -0.1108  1.0077
 2613SOL    HW1 8417   1.034   2.846   1.379 -0.6104  0.7122  1.3346
 2613SOL    HW2 8418   1.074   2.739   1.479  0.3365  0.1500  0.3765
 2614SOL     OW 8419   3.820   4.398   2.407 -0.0836  0.3919  0.0287
 2614SOL    HW1 8420   3.895   4.408   2.348  0.0848  2.4517  0.5055
 2614SOL    HW2 8421   3.747   4.374   2.349 -0.0012  2.7038 -1.1572
 2615SOL     OW 8422   6.060   5.962   5.805  0.8341  0.4409  0.0707
 2615SOL    HW1 8423   6.130   6.005   5.755 -0.6821  1.3763 -1.3437
 2615SOL    HW2 8424   6.010   5.913   5.740  1.4792 -2.1692  1.3970
 2616SOL     OW 8425   2.868   3.364   8.248  0.0483 -0.2998  0.4052
 2616SOL    HW1 8426   2.929   3.307   8.295  0.3443 -0.3229 -0.0116
 2616SOL    HW2 8427   2.862   3.327   8.161  0.1043  0.2045  0.1842
 2617SOL     OW 8428   6.614   0.189   6.840 -0.7993  0.0954 -0.2240
 2617SOL    HW1 8429   6.637   0.114   6.785  0.7834  0.1509  0.3014
 2617SOL    HW2 8430   6.695   0.240   6.847 -1.8539  1.9177 -0.6167
 2618SOL     OW 8431   7.326   5.131   3.961 -0.3142 -0.0283 -0.2469
 2618SOL    HW1 8432   7.357   5.219   3.985  1.0121 -0.7252  0.7534
 2618SOL    HW2 8433   7.269   5.145   3.886 -0.0287  1.6782 -0.1841
 2619SOL     OW 8434   6.016   8.041   7.853 -0.5269 -0.4178  0.6669
 2619SOL    HW1 8435   6.079   7.970   7.857  0.4820  0.4366  0.3189
 2619SOL    HW2 8436   5.996   8.051   7.760 -0.2388  0.1235  0.6641
 2620SOL     OW 8437   3.592   2.433   7.955  0.3008  0.7939 -0.1541
 2620SOL    HW1 8438   3.629   2.518   7.979  0.3002  0.3565  1.5250
 2620SOL    HW2 8439   3.498   2.450   7.945  0.2698  0.9645  0.3754
 2621SOL     OW 8440   4.555   8.329   6.545  0.3484  0.3807 -0.0917
 2621SOL    HW1 8441   4.582   8.420   6.542 -0.4927  0.8745  3.0395
 2621SOL    HW2 8442   4.634   8.279   6.527  0.9286  1.7117 -1.3237
 2622SOL     OW 8443   4.244   8.396   7.461  0.4917 -0.0776  0.0244
 2622SOL    HW1 8444   4.200   8.368   7.380  1.5274 -1.8948  0.0260
 2622SOL    HW2 8445   4.194   8.472   7.490  0.3763  0.9368 -2.5645
 2623SOL     OW 8446   9.276   2.207   9.535  0.0585  0.4311  0.1180
 2623SOL    HW1 8447   9.251   2.115   9.530  1.6978  0.0141 -1.5353
 2623SOL    HW2 8448   9.273   2.237   9.444  1.5590  1.4288  0.3648
 2624SOL     OW 8449   4.014   7.841   9.361  0.5658  0.2699 -0.1786
 2624SOL    HW1 8450   4.099   7.811   9.393  0.2185 -0.0089  0.5076
 2624SOL    HW2 8451   4.001   7.794   9.278 -0.1593 -1.8707  1.0780
 2625SOL     OW 8452   4.299   4.887   5.956  0.0809 -0.5283 -0.4649
 2625SOL    HW1 8453   4.310   4.947   5.882  0.8551 -1.1013 -0.8264
 2625SOL    HW2 8454   4.253   4.939   6.022  0.3050  0.3111 -0.9536
 2626SOL     OW 8455   2.509   8.108   4.851  0.6395 -0.6595 -0.4346
 2626SOL    HW1 8456   2.428   8.157   4.836  0.2519 -0.8332  0.9583
 2626SOL    HW2 8457   2.549   8.151   4.926  1.4874 -1.0194 -0.6728
 2627SOL     OW 8458   9.768   3.040   8.159 -0.2453 -0.2718  0.3310
 2627SOL    HW1 8459   9.726   3.116   8.119  0.0881 -0.4874 -0.4274
 2627SOL    HW2 8460   9.852   3.032   8.115 -0.9822 -2.1284 -0.8495
 2628SOL     OW 8461   1.899   6.064   5.327  0.7856  0.4676  0.1182
 2628SOL    HW1 8462   1.847   5.988   5.302  0.0166  1.1690 -0.4284
 2628SOL    HW2 8463   1.842   6.115   5.384  1.7399  0.0228  1.5227
 2629SOL     OW 8464   3.542   7.198   0.362  0.3543  0.1519 -0.2123
 2629SOL    HW1 8465   3.463   7.177   0.313  0.9027 -0.3426 -0.9157
 2629SOL    HW2 8466   3.605   7.226   0.295  0.8761  0.2173  0.2932
 2630SOL     OW 8467   3.639   0.604   4.277 -0.3740  1.0149 -0.2546
 2630SOL    HW1 8468   3.655   0.542   4.347  2.3573  2.1053  0.2080
 2630SOL    HW2 8469   3.609   0.684   4.321 -1.0318  0.9536 -0.5762
 2631SOL     OW 8470   6.369   8.970   8.728  0.0911  0.8293 -0.2807
 2631SOL    HW1 8471   6.372   8.900   8.663  1.4365  1.8461 -1.3698
 2631SOL    HW2 8472   6.456   8.970   8.768 -0.6956  0.2651  1.5315
 2632SOL     OW 8473   5.487   7.878   9.087 -0.2577 -0.0156 -0.6891
 2632SOL    HW1 8474   5.407   7.870   9.139  0.5409 -1.9321  0.3109
 2632SOL    HW2 8475   5.503   7.790   9.053  2.2251 -0.0376  0.3472
 2633SOL     OW 8476   8.335   8.892   8.300  0.1685 -0.2586 -0.4554
 2633SOL    HW1 8477   8.334   8.919   8.392 -0.0479 -0.0937 -0.5052
 2633SOL    HW2 8478   8.375   8.805   8.301 -0.0757 -0.3713 -0.1733
 2634SOL     OW 8479   1.908   4.834   5.253 -0.2864  0.0766 -1.0426
 2634SOL    HW1 8480   1.972   4.888   5.299 -0.0430  0.4591 -1.8326
 2634SOL    HW2 8481   1.871   4.778   5.322 -0.9080  1.5710 -0.1020
 2635SOL     OW 8482   4.288   1.721   3.219 -0.0665 -0.0689 -0.3688
 2635SOL    HW1 8483   4.349   1.653   3.191 -0.8435 -0.5079 -1.0444
 2635SOL    HW2 8484   4.344   1.791   3.252  0.7432 -0.9945  0.2730
 2636SOL     OW 8485   6.396   1.203   3.416 -0.2889 -0.2791 -0.0596
 2636SOL    HW1 8486   6.421   1.127   3.468  1.4241 -0.7562 -1.5015
 2636SOL    HW2 8487   6.423   1.278   3.469 -0.3874 -0.6990  0.5948
 2637SOL     OW 8488   0.376   4.525   9.901  0.1956 -0.4472  0.6321
 2637SOL    HW1 8489   0.458   4.493   9.861  0.1639 -0.0390  0.2320
 2637SOL    HW2 8490   0.351   4.456   9.962 -0.5274 -1.8020 -1.0983
 2638SOL     OW 8491   0.291   0.824   5.454 -0.2489  0.7236  0.2730
 2638SOL    HW1 8492   0.226   0.873   5.404 -2.7145  1.4013  3.7297
 2638SOL    HW2 8493   0.241   0.755   5.497  1.9782 -0.8033  0.5817
 2639SOL     OW 8494   4.868   2.195   6.324 -0.5498  0.8747  0.1195
 2639SOL    HW1 8495   4.795   2.251   6.350 -2.1710 -1.6556  1.3924
 2639SOL    HW2 8496   4.915   2.178   6.406 -1.2901 -1.1961  0.1553
 2640SOL     OW 8497   5.644   3.752   9.936  0.6075  0.1318 -0.5278
 2640SOL    HW1 8498   5.703   3.739  10.010  0.1870 -1.0420 -0.3691
 2640SOL    HW2 8499   5.575   3.686   9.950 -0.2145  0.8367 -1.2126
 2641SOL     OW 8500   0.409   6.311   7.495 -0.3302 -0.0148  0.4949
 2641SOL    HW1 8501   0.373   6.223   7.482  1.9642 -0.7953 -1.2747
 2641SOL    HW2 8502   0.504   6.298   7.496  0.0818  2.4553  0.0074
 2642SOL     OW 8503   9.147   8.866   1.269 -0.5611 -0.2428 -0.1431
 2642SOL    HW1 8504   9.161   8.958   1.289  0.5405 -0.5422  0.5388
 2642SOL    HW2 8505   9.066   8.844   1.315 -1.9004  0.8241 -1.8555
 2643SOL     OW 8506   5.109   8.417   8.014  0.5089 -0.0209 -0.0687
 2643SOL    HW1 8507   5.150   8.343   8.058  1.7437  1.3034  1.0904
 2643SOL    HW2 8508   5.096   8.482   8.083  1.8813  1.8657 -1.4762
 2644SOL     OW 8509   9.067   0.641   2.710 -0.0797 -0.2667 -0.6751
 2644SOL    HW1 8510   8.981   0.622   2.671 -0.9941 -1.1237  1.5851
 2644SOL    HW2 8511   9.048   0.660   2.801  2.1002  0.1771 -0.2645
 2645SOL     OW 8512   1.802   3.300   9.027 -0.1292  0.2480  0.1926
 2645SOL    HW1 8513   1.726   3.332   9.075 -0.6102  0.0620 -0.4382
 2645SOL    HW2 8514   1.787   3.205   9.018 -0.7135  0.4685 -1.4725
 2646SOL     OW 8515   8.834   0.583   7.349  0.7518 -0.0755  0.2915
 2646SOL    HW1 8516   8.803   0.560   7.261 -2.1819 -0.2064  1.2424
 2646SOL    HW2 8517   8.875   0.669   7.337 -2.1361  1.2974 -0.8667
 2647SOL     OW 8518   1.002   1.533   4.626 -0.1346 -0.4328 -0.0898
 2647SOL    HW1 8519   0.923   1.507   4.579  0.3083  1.0592 -1.7516
 2647SOL    HW2 8520   1.000   1.629   4.627  1.9197 -0.3252 -0.6911
 2648SOL     OW 8521   2.876   9.141   9.724  0.5051 -0.0683  0.4572
 2648SOL    HW1 8522   2.955   9.188   9.699 -0.5220  0.6872 -1.6145
 2648SOL    HW2 8523   2.854   9.088   9.647 -2.6523  2.0890 -0.3135
 2649SOL     OW 8524   6.717   1.742   3.037 -0.4072  0.2324 -0.0820
 2649SOL    HW1 8525   6.787   1.738   3.102 -0.6393  0.7713  0.2056
 2649SOL    HW2 8526   6.640   1.706   3.083 -0.6193  0.7955  0.0120
 2650SOL     OW 8527   9.524   8.128   9.205 -0.0574 -0.3468 -0.4393
 2650SOL    HW1 8528   9.519   8.142   9.110  1.5676 -0.0901 -0.5163
 2650SOL    HW2 8529   9.471   8.199   9.241  0.0562  0.1141 -1.1383
 2651SOL     OW 8530   6.948   3.460   0.397 -0.1749 -0.1932  0.3238
 2651SOL    HW1 8531   6.924   3.468   0.304 -0.4718 -2.7924  0.1194
 2651SOL    HW2 8532   7.043   3.471   0.398 -0.3150  1.3349 -0.0479
 2652SOL     OW 8533   3.948   9.448   3.231 -0.1637 -0.2612 -0.1233
 2652SOL    HW1 8534   3.901   9.422   3.152 -0.4174  0.5893 -0.2651
 2652SOL    HW2 8535   3.974   9.365   3.272 -0.7176 -0.7237 -0.6828
 2653SOL     OW 8536   0.899   9.135   1.133 -0.4207  0.3341  0.0397
 2653SOL    HW1 8537   0.935   9.194   1.200 -0.5466 -1.2929  1.6234
 2653SOL    HW2 8538   0.973   9.079   1.109 -1.1971 -1.4448  1.5404
 2654SOL     OW 8539   7.710   6.063   7.548 -0.2084 -0.5755  0.2396
 2654SOL    HW1 8540   7.670   6.116   7.480 -1.8202  1.5613  2.6563
 2654SOL    HW2 8541   7.641   6.004   7.577  0.2538 -1.0155  0.4707
 2655SOL     OW 8542   4.327   8.198   6.604  0.1930  0.4250 -0.1359
 2655SOL    HW1 8543   4.310   8.142   6.528 -0.5567  0.9872 -0.3973
 2655SOL    HW2 8544   4.403   8.250   6.579  0.9839 -0.5553  0.1637
 2656SOL     OW 8545   0.294   9.505   3.659  0.0259 -0.4373  0.6795
 2656SOL    HW1 8546   0.386   9.528   3.677  0.2579  1.5130 -2.3118
 2656SOL    HW2 8547   0.296   9.412   3.640  1.2579 -0.5653  1.3272
 2657SOL     OW 8548   2.054   7.387   8.198 -0.1074 -0.1925 -0.5938
 2657SOL    HW1 8549   2.023   7.418   8.283 -1.7929  0.0585 -1.2574
 2657SOL    HW2 8550   2.073   7.294   8.212  0.4627  0.0381  0.2536
 2658SOL     OW 8551   0.523   1.120   7.039  0.0462  0.0389  0.9851
 2658SOL    HW1 8552   0.611   1.087   7.059  0.5750  0.4334 -0.5762
 2658SOL    HW2 8553   0.517   1.202   7.088 -0.0747 -0.7702  2.3657
 2659SOL     OW 8554   9.538   2.553   0.468 -0.0228 -0.0170  1.1694
 2659SOL    HW1 8555   9.501   2.471   0.503 -0.2299 -0.0132  0.9617
 2659SOL    HW2 8556   9.630   2.533   0.452 -0.3582 -0.6451 -0.1724
 2660SOL     OW 8557   1.307   5.714   7.989  0.2365 -0.7582 -0.4663
 2660SOL    HW1 8558   1.287   5.640   8.046 -1.0284 -0.4633 -0.5010
 2660SOL    HW2 8559   1.229   5.725   7.935  0.9427 -0.2644 -1.4330
 2661SOL     OW 8560   1.529   7.656   7.613  0.3605 -0.1552 -0.7091
 2661SOL    HW1 8561   1.456   7.626   7.667  0.9202 -1.0842 -0.4450
 2661SOL    HW2 8562   1.491   7.666   7.526 -0.4111  0.7869 -0.2745
 2662SOL     OW 8563   1.173   3.414   7.886 -0.4216  0.5479 -0.0935
 2662SOL    HW1 8564   1.100   3.353   7.878  1.3201 -1.4351 -2.0387
 2662SOL    HW2 8565   1.184   3.450   7.798  2.5772 -1.3430 -0.6404
 2663SOL     OW 8566   7.571   9.241   4.994 -0.2546  0.0877 -0.0388
 2663SOL    HW1 8567   7.644   9.303   4.999 -1.6958  1.9008 -0.4014
 2663SOL    HW2 8568   7.506   9.274   5.056 -0.9924 -1.1988 -0.0813
 2664SOL     OW 8569   5.907   6.911   1.600  0.1422  0.4871  0.3631
 2664SOL    HW1 8570   5.849   6.864   1.659 -0.3287  1.0277  0.3341
 2664SOL    HW2 8571   5.849   6.959   1.541  0.4748 -2.2420 -2.4695
 2665SOL     OW 8572   1.808   6.298   9.902  0.6954 -0.6135  0.4101
 2665SOL    HW1 8573   1.717   6.329   9.904  1.0999  0.6620 -0.1511
 2665SOL    HW2 8574   1.858   6.371   9.865  2.0030 -1.1803  0.9874
 2666SOL     OW 8575   6.450   7.393   3.429  0.3773 -0.1184 -0.0916
 2666SOL    HW1 8576   6.433   7.332   3.501 -1.3960 -2.2602 -2.1440
 2666SOL    HW2 8577   6.439   7.480   3.467 -3.3151 -1.1766  1.6841
 2667SOL     OW 8578   7.088   9.538   3.589 -0.0287 -0.2377  0.2288
 2667SOL    HW1 8579   7.024   9.487   3.539 -0.1240  0.1619 -0.0661
 2667SOL    HW2 8580   7.036   9.583   3.655  0.3756 -2.5793  2.2514
 2668SOL     OW 8581   7.214   1.666   8.583  0.0354 -0.5164 -0.4851
 2668SOL    HW1 8582   7.148   1.598   8.569  0.4035 -0.6872 -1.4351
 2668SOL    HW2 8583   7.277   1.626   8.643 -0.7849 -0.2894  0.5837
 2669SOL     OW 8584   9.676   0.854   9.377 -0.0920 -0.2116  0.3560
 2669SOL    HW1 8585   9.745   0.844   9.442 -0.0630 -1.9148  0.1150
 2669SOL    HW2 8586   9.620   0.777   9.389 -2.9726  1.9080  1.6833
 2670SOL     OW 8587   5.208   7.772   1.731 -0.6527 -0.1430  0.2253
 2670SOL    HW1 8588   5.249   7.816   1.805  1.8329 -1.6153 -0.1865
 2670SOL    HW2 8589   5.187   7.685   1.764  0.2394 -0.7283 -0.7080
 2671SOL     OW 8590   4.461   7.977   7.126  0.2941  0.0009  0.6629
 2671SOL    HW1 8591   4.517   7.905   7.153 -1.1370 -0.4444  2.7007
 2671SOL    HW2 8592   4.457   7.970   7.030  0.2709 -2.5873  0.7824
 2672SOL     OW 8593   4.761   7.941   7.217  0.3472  0.4697  0.0743
 2672SOL    HW1 8594   4.807   7.861   7.189  2.1971  1.5784 -0.2399
 2672SOL    HW2 8595   4.784   7.950   7.310 -1.0919 -0.1311  0.5143
 2673SOL     OW 8596   0.172   3.898   0.491 -0.2788 -0.0888 -0.2110
 2673SOL    HW1 8597   0.212   3.918   0.406  0.9573 -0.7738  0.1779
 2673SOL    HW2 8598   0.155   3.804   0.488 -1.0495  0.0428 -0.0268
 2674SOL     OW 8599   6.032   8.016   4.823 -0.0967  0.3269 -0.1321
 2674SOL    HW1 8600   6.000   8.032   4.912  1.6842  0.1265  0.5836
 2674SOL    HW2 8601   6.087   8.092   4.804 -0.2646  0.2419 -0.9772
 2675SOL     OW 8602   1.062   5.203   6.420 -0.0448 -0.0941  0.4539
 2675SOL    HW1 8603   1.113   5.123   6.409 -0.3880 -0.4695  1.4165
 2675SOL    HW2 8604   1.106   5.268   6.366  0.4695 -0.8329 -0.0285
 2676SOL     OW 8605   9.182   1.621   4.392 -0.8018 -0.2210  0.2105
 2676SOL    HW1 8606   9.159   1.692   4.451  0.6363 -0.7649  1.5201
 2676SOL    HW2 8607   9.276   1.634   4.375 -0.3203 -2.1807  1.0917
 2677SOL     OW 8608   3.770   4.607   2.799 -0.1109  0.0610  0.0554
 2677SOL    HW1 8609   3.678   4.621   2.776  0.1934  0.2247 -1.1634
 2677SOL    HW2 8610   3.790   4.520   2.764  0.1980  0.0164  0.3389
 2678SOL     OW 8611   9.907   0.388   7.489 -0.2227  0.2024  0.0382
 2678SOL    HW1 8612   9.961   0.434   7.425 -0.4782  0.2569 -0.1405
 2678SOL    HW2 8613   9.955   0.307   7.506  0.2885  0.5860  0.4460
 2679SOL     OW 8614   7.598   8.929   1.960  0.2691 -0.3467 -0.0750
 2679SOL    HW1 8615   7.572   8.987   2.031 -0.0699 -1.1171  0.4358
 2679SOL    HW2 8616   7.555   8.966   1.882  0.4319  0.3416  0.1526
 2680SOL     OW 8617   8.353   3.684   3.783 -0.0813  0.0335  0.3200
 2680SOL    HW1 8618   8.295   3.669   3.708 -0.5650  0.5155  0.5932
 2680SOL    HW2 8619   8.302   3.738   3.843  1.0176  1.3865  0.0907
 2681SOL     OW 8620   0.093   9.390   6.543  0.9971  0.3071  0.2359
 2681SOL    HW1 8621   0.096   9.428   6.456 -0.4399 -0.0118  0.0277
 2681SOL    HW2 8622   0.005   9.407   6.574  0.9349 -1.1089  0.9251
 2682SOL     OW 8623   9.932   5.832   1.108  0.4699  0.2171  0.1939
 2682SOL    HW1 8624   9.938   5.924   1.136  2.2484  0.2032 -0.0019
 2682SOL    HW2 8625   9.916   5.837   1.014 -0.8742  0.2917  0.4063
 2683SOL     OW 8626   2.364   9.684   9.710 -0.2052 -0.5168 -0.2278
 2683SOL    HW1 8627   2.279   9.655   9.743  0.5494 -1.1402  1.2369
 2683SOL    HW2 8628   2.350   9.695   9.616 -1.9093 -0.5771 -0.0148
 2684SOL     OW 8629   0.012   2.117   1.643  0.0650  0.3405  0.1635
 2684SOL    HW1 8630   0.069   2.194   1.637  0.2853  0.0784 -1.6792
 2684SOL    HW2 8631   0.033   2.065   1.565  0.3013 -1.8802  1.6172
 2685SOL     OW 8632   7.144   7.818   5.686  0.0755  0.1710  0.2929
 2685SOL    HW1 8633   7.149   7.824   5.781 -2.0338 -1.2641  0.5569
 2685SOL    HW2 8634   7.051   7.830   5.665  0.6834  2.0291 -1.7572
 2686SOL     OW 8635   5.610   3.578   8.463 -0.7163 -0.1031  0.4596
 2686SOL    HW1 8636   5.528   3.537   8.488  0.7408 -2.1015  2.2530
 2686SOL    HW2 8637   5.636   3.630   8.539 -0.5750  0.9468 -0.2915
 2687SOL     OW 8638   0.813   8.193   3.972  0.2592  0.1497  0.3579
 2687SOL    HW1 8639   0.874   8.124   3.944 -1.2601 -0.7466 -0.9257
 2687SOL    HW2 8640   0.851   8.228   4.053  1.4643 -1.6760  0.6356
 2688SOL     OW 8641   4.187   2.111   2.900  0.5732  0.4866  0.1778
 2688SOL    HW1 8642   4.194   2.118   2.995  0.6400 -0.5846  0.2681
 2688SOL    HW2 8643   4.275   2.129   2.867  0.7905 -0.1699  0.3956
 2689SOL     OW 8644   5.546   3.466   1.549 -0.4545  0.0469 -0.2767
 2689SOL    HW1 8645   5.517   3.409   1.478 -0.2161 -2.4671  1.4978
 2689SOL    HW2 8646   5.523   3.554   1.520 -1.5313 -0.9795 -2.8638
 2690SOL     OW 8647   5.135   0.765   4.393  0.8349 -0.3964  0.3768
 2690SOL    HW1 8648   5.112   0.852   4.361  0.1963 -0.5907  0.2890
 2690SOL    HW2 8649   5.209   0.738   4.340  0.6525 -0.1501 -0.0092
 2691SOL     OW 8650   7.339   9.182   1.281 -0.6319 -0.2182  0.1943
 2691SOL    HW1 8651   7.428   9.170   1.312 -1.7647 -1.8398  3.3178
 2691SOL    HW2 8652   7.299   9.242   1.344 -2.6313 -2.3003  1.0455
 2692SOL     OW 8653   5.970   1.856   3.961  0.1460  0.0208  0.2514
 2692SOL    HW1 8654   5.940   1.770   3.990  0.0159 -0.0128  0.0199
 2692SOL    HW2 8655   6.065   1.846   3.952  0.5416  0.6889  2.9150
 2693SOL     OW 8656   5.845   4.286   1.471 -0.3702 -0.4415  0.4218
 2693SOL    HW1 8657   5.762   4.317   1.508  0.6124  0.2861  2.1130
 2693SOL    HW2 8658   5.862   4.345   1.398  0.2421  1.5604  2.0816
 2694SOL     OW 8659   1.415   7.262   8.775  0.5317  0.9334  0.8654
 2694SOL    HW1 8660   1.366   7.302   8.703  0.8001  2.9971  1.7475
 2694SOL    HW2 8661   1.495   7.231   8.735 -1.8041 -3.7658 -0.8986
 2695SOL     OW 8662   8.565   0.703   5.078  0.1681  0.1855  0.3640
 2695SOL    HW1 8663   8.550   0.647   5.154 -0.7085  1.4027  1.1196
 2695SOL    HW2 8664   8.610   0.779   5.112  0.9017  0.1861 -0.5678
 2696SOL     OW 8665   4.463   0.317   0.913  0.5092  0.3172 -0.7006
 2696SOL    HW1 8666   4.502   0.401   0.937 -0.2238  0.9118 -1.5467
 2696SOL    HW2 8667   4.466   0.266   0.994 -0.5282  1.7320  0.2765
 2697SOL     OW 8668   1.968   3.283   8.787 -0.2322  0.2839  0.2393
 2697SOL    HW1 8669   1.960   3.325   8.873  1.4938 -1.4132  1.3106
 2697SOL    HW2 8670   1.911   3.206   8.793 -1.0284  0.7858 -0.6074
 2698SOL     OW 8671   6.825   4.877   2.458  0.1128  0.4849 -0.2501
 2698SOL    HW1 8672   6.843   4.971   2.466  0.2773  0.3949  0.5135
 2698SOL    HW2 8673   6.785   4.853   2.542  0.5735 -0.2400 -0.2338
 2699SOL     OW 8674   1.266   5.632   1.123 -0.0970  0.6810  0.0505
 2699SOL    HW1 8675   1.353   5.662   1.150  0.5436 -1.6424  0.7903
 2699SOL    HW2 8676   1.264   5.649   1.029 -0.1892  3.7711  0.4859
 2700SOL     OW 8677   0.737   6.532   3.950  0.3209 -0.5034  0.6282
 2700SOL    HW1 8678   0.709   6.560   3.863 -1.9602 -0.0222  1.4554
 2700SOL    HW2 8679   0.767   6.613   3.992  0.0084 -0.4651  0.7814
 2701SOL     OW 8680   7.979   5.068   7.283 -0.1082  0.0831  0.0368
 2701SOL    HW1 8681   8.016   5.089   7.197  1.0062  1.0000  0.7123
 2701SOL    HW2 8682   7.888   5.099   7.278 -0.2024 -0.2947 -0.9476
 2702SOL     OW 8683   4.888   9.619   1.651  0.8229  0.1075  0.0969
 2702SOL    HW1 8684   4.982   9.600   1.649  1.4956  2.3737  2.7874
 2702SOL    HW2 8685   4.848   9.542   1.690  1.7113 -0.4585 -0.0897
 2703SOL     OW 8686   9.570   1.280   7.060 -0.3372  0.0295 -0.0813
 2703SOL    HW1 8687   9.659   1.295   7.029 -0.1924  0.0112  0.3123
 2703SOL    HW2 8688   9.578   1.277   7.156 -1.0125  1.8098  0.0838
 2704SOL     OW 8689   1.241   0.331   2.169  0.0533 -0.2833 -0.0312
 2704SOL    HW1 8690   1.313   0.270   2.152  1.2500  0.5569  1.6880
 2704SOL    HW2 8691   1.234   0.384   2.090  0.3636 -1.2915 -0.7528
 2705SOL     OW 8692   0.895   9.442   6.746  0.1129 -0.2069  0.1809
 2705SOL    HW1 8693   0.970   9.485   6.703 -0.7004  1.0572 -0.0422
 2705SOL    HW2 8694   0.863   9.379   6.681  0.7689 -0.5135  0.1472
 2706SOL     OW 8695   7.149   5.849   4.426 -0.4427 -0.1145 -0.2672
 2706SOL    HW1 8696   7.142   5.796   4.506 -2.6789  2.7017  1.6231
 2706SOL    HW2 8697   7.181   5.934   4.457 -0.8170  0.8908 -2.4631
 2707SOL     OW 8698   3.603   7.304   4.284  0.2103  0.2749  0.5454
 2707SOL    HW1 8699   3.667   7.326   4.217  1.1848  0.7931  1.6075
 2707SOL    HW2 8700   3.520   7.340   4.252  0.1546 -1.4289 -1.4048
 2708SOL     OW 8701   9.620   4.389   4.891  0.1199 -0.2666 -0.6706
 2708SOL    HW1 8702   9.622   4.348   4.804  2.3435 -2.2470  0.1974
 2708SOL    HW2 8703   9.606   4.315   4.951  0.8873  0.7332  0.7798
 2709SOL     OW 8704   9.017   6.157   5.894 -0.5444  0.3076 -0.2119
 2709SOL    HW1 8705   9.030   6.089   5.961 -0.1885  0.4042 -0.1832
 2709SOL    HW2 8706   9.103   6.196   5.883 -0.1570 -0.9283 -2.0574
 2710SOL     OW 8707   7.110   6.227   2.292 -0.2427 -0.0910  0.0570
 2710SOL    HW1 8708   7.176   6.279   2.244  0.3391  0.3766  1.3167
 2710SOL    HW2 8709   7.138   6.136   2.279 -1.4993 -0.2103 -2.5160
 2711SOL     OW 8710   7.265   9.026   0.861  0.1548 -0.7923 -0.4288
 2711SOL    HW1 8711   7.272   8.957   0.927 -0.7228 -0.4667  0.0219
 2711SOL    HW2 8712   7.308   8.990   0.783  3.5154 -0.2867  0.9980
 2712SOL     OW 8713   4.301   2.747   0.350  0.1780  0.7017 -0.4736
 2712SOL    HW1 8714   4.297   2.652   0.355  1.1392  0.7059  1.0962
 2712SOL    HW2 8715   4.223   2.773   0.301  0.2852 -0.9216 -1.5685
 2713SOL     OW 8716   5.240   7.645   8.980 -0.0769 -0.3280  0.0862
 2713SOL    HW1 8717   5.242   7.592   9.060 -0.0124 -1.0297 -0.3679
 2713SOL    HW2 8718   5.221   7.734   9.010 -1.1125 -0.7662  0.7937
 2714SOL     OW 8719   1.639   8.575   3.430 -0.1617  0.0522  0.2573
 2714SOL    HW1 8720   1.606   8.531   3.351  0.9476  0.6121 -0.5450
 2714SOL    HW2 8721   1.664   8.504   3.489 -1.9342 -0.3870  0.5516
 2715SOL     OW 8722   0.391   0.799   8.498  0.2923  0.1886 -0.2047
 2715SOL    HW1 8723   0.342   0.718   8.484  1.5503 -1.1404  2.1827
 2715SOL    HW2 8724   0.324   0.866   8.514 -0.7863 -1.0166  0.5307
 2716SOL     OW 8725   6.139   6.489   8.086 -0.6815 -0.4405  0.2187
 2716SOL    HW1 8726   6.089   6.570   8.071 -0.2062 -0.1403  0.2472
 2716SOL    HW2 8727   6.221   6.519   8.125 -0.3595 -0.9116 -0.0961
 2717SOL     OW 8728   0.303   7.969   8.879 -0.0039  0.2778  0.5658
 2717SOL    HW1 8729   0.356   8.046   8.856 -0.1048 -0.0943 -0.9677
 2717SOL    HW2 8730   0.368   7.903   8.905  0.2762  0.0001 -0.7821
 2718SOL     OW 8731   9.645   5.611   8.479 -0.3462 -0.2388  0.4142
 2718SOL    HW1 8732   9.601   5.527   8.466 -2.4888  0.9503 -0.5322
 2718SOL    HW2 8733   9.658   5.645   8.391  0.9018  0.2456  0.7684
 2719SOL     OW 8734   5.334   3.136   5.482  0.1737  0.3135  0.2236
 2719SOL    HW1 8735   5.408   3.188   5.515  1.0055 -0.8079  0.1854
 2719SOL    HW2 8736   5.265   3.147   5.547  0.4261  1.2391  0.3486
 2720SOL     OW 8737   6.839   8.160   7.420  0.0649  0.2795  0.2723
 2720SOL    HW1 8738   6.866   8.175   7.511  0.0152 -2.0293  0.7323
 2720SOL    HW2 8739   6.897   8.216   7.369  1.5898  0.0211  1.6214
 2721SOL     OW 8740   7.747   0.749   4.119  0.2144 -0.5172  0.0297
 2721SOL    HW1 8741   7.672   0.744   4.061 -0.5871  0.3881  0.9528
 2721SOL    HW2 8742   7.768   0.657   4.139 -0.5303 -0.7843 -0.3703
 2722SOL     OW 8743   9.576   6.165   9.549 -0.3764  0.4095 -0.4393
 2722SOL    HW1 8744   9.481   6.159   9.547 -0.4493  1.1411  0.1702
 2722SOL    HW2 8745   9.607   6.088   9.501 -1.2498 -0.4962  0.4364
 2723SOL     OW 8746   1.595   7.426   5.584 -0.1003  0.2550 -0.3288
 2723SOL    HW1 8747   1.515   7.450   5.538  0.8991  2.8509 -0.8837
 2723SOL    HW2 8748   1.586   7.332   5.602 -3.3567  0.5262 -0.0847
 2724SOL     OW 8749   6.781   2.887   1.919 -0.1052  0.1402  0.2642
 2724SOL    HW1 8750   6.874   2.873   1.938 -0.3146 -0.9119  0.5967
 2724SOL    HW2 8751   6.746   2.926   1.999 -0.4309 -1.7553  1.0917
 2725SOL     OW 8752   1.424   1.078   7.838 -0.0253 -0.1397 -0.1461
 2725SOL    HW1 8753   1.346   1.089   7.784  0.5876  0.9358 -0.8531
 2725SOL    HW2 8754   1.466   1.164   7.838  1.5122 -0.8521 -0.3330
 2726SOL     OW 8755   2.563   5.366   8.271  0.2957 -0.5447  0.2412
 2726SOL    HW1 8756   2.545   5.440   8.330 -1.6419  0.8716 -1.9575
 2726SOL    HW2 8757   2.658   5.366   8.262  0.4215  1.0106  1.1519
 2727SOL     OW 8758   8.687   9.688   3.190 -0.2075 -0.1953 -0.4186
 2727SOL    HW1 8759   8.617   9.667   3.251  0.1731 -1.2066 -0.3157
 2727SOL    HW2 8760   8.641   9.713   3.110 -0.7297  2.0345  0.5125
 2728SOL     OW 8761   5.055   2.444   8.953  0.5744 -0.2031  0.6666
 2728SOL    HW1 8762   5.024   2.501   9.025 -0.4133 -1.2983  1.1362
 2728SOL    HW2 8763   4.978   2.430   8.899  1.1567  0.0483 -0.2420
 2729SOL     OW 8764   0.866   6.021   3.038  0.2707  0.6773  0.2966
 2729SOL    HW1 8765   0.931   6.002   3.105 -0.4317 -0.1699  0.7689
 2729SOL    HW2 8766   0.876   6.115   3.020  1.6872  0.5365  0.2587
 2730SOL     OW 8767   6.089   0.710   8.929  0.4590  0.2677 -0.7481
 2730SOL    HW1 8768   6.037   0.693   8.851  1.9312  0.3231 -1.7873
 2730SOL    HW2 8769   6.134   0.792   8.910 -0.5771  1.3147  0.9638
 2731SOL     OW 8770   0.290   9.643   2.620 -0.0189  0.4103  0.0195
 2731SOL    HW1 8771   0.349   9.685   2.557 -0.3937  1.4242  0.3312
 2731SOL    HW2 8772   0.213   9.622   2.568  0.2185 -0.0263 -0.1659
 2732SOL     OW 8773   2.039   0.589   1.128 -0.2113 -0.2246 -0.1003
 2732SOL    HW1 8774   1.992   0.522   1.079  0.1506  0.8237 -1.9825
 2732SOL    HW2 8775   2.131   0.562   1.123  0.0394  0.7335 -1.5502
 2733SOL     OW 8776   7.722   7.609   8.912 -0.3132 -0.0321  0.1955
 2733SOL    HW1 8777   7.771   7.679   8.870 -0.8642  0.5075  0.4347
 2733SOL    HW2 8778   7.787   7.542   8.931  0.0048 -0.1557 -1.2107
 2734SOL     OW 8779   5.571   9.003   3.851  0.3321 -0.4305 -0.1950
 2734SOL    HW1 8780   5.547   8.927   3.904  1.1974 -1.7432 -1.6226
 2734SOL    HW2 8781   5.529   8.988   3.767  1.6500 -0.0219 -0.9479
 2735SOL     OW 8782   4.853   8.331   7.056 -0.1722  0.5202 -0.2101
 2735SOL    HW1 8783   4.837   8.424   7.036 -0.0146  0.3487 -1.1618
 2735SOL    HW2 8784   4.771   8.287   7.035  0.6964 -0.0027 -2.7843
 2736SOL     OW 8785   2.061   9.791   9.699 -0.0104  0.2070 -0.3687
 2736SOL    HW1 8786   2.030   9.881   9.711  0.9292  0.7380 -1.7313
 2736SOL    HW2 8787   2.112   9.794   9.618 -0.1961 -1.6211 -0.5827
 2737SOL     OW 8788   1.846   7.952   5.918  0.3367 -0.3951  0.3647
 2737SOL    HW1 8789   1.781   7.998   5.865  0.2245  0.9531  1.5844
 2737SOL    HW2 8790   1.835   7.860   5.896  0.0440  0.0735 -1.6224
 2738SOL     OW 8791   1.311   9.779   6.108 -0.1079 -0.0488 -0.3814
 2738SOL    HW1 8792   1.398   9.797   6.144 -0.4838 -1.1220  1.1715
 2738SOL    HW2 8793   1.326   9.761   6.015  1.2329  0.4715 -0.2792
 2739SOL     OW 8794   4.241   1.824   6.931 -0.3884 -0.8977 -0.5597
 2739SOL    HW1 8795   4.296   1.824   6.853 -1.3576 -2.7373 -1.3068
 2739SOL    HW2 8796   4.280   1.890   6.988 -0.4966  1.6276 -3.1757
 2740SOL     OW 8797   7.143   1.441   0.808  0.1933 -0.2920  0.3318
 2740SOL    HW1 8798   7.074   1.401   0.754  2.7527 -3.0894 -1.1372
 2740SOL    HW2 8799   7.181   1.508   0.751  1.1104 -1.3627 -0.3431
 2741SOL     OW 8800   9.357   4.692   3.901  0.0397  0.4007 -0.0312
 2741SOL    HW1 8801   9.267   4.702   3.932  0.1322 -2.5906  1.6627
 2741SOL    HW2 8802   9.410   4.696   3.981  0.8921 -2.0022 -0.3801
 2742SOL     OW 8803   1.482   3.394   8.600  0.3738  0.2065 -0.5370
 2742SOL    HW1 8804   1.479   3.404   8.505  1.6857  1.5394 -0.4775
 2742SOL    HW2 8805   1.561   3.341   8.616 -0.2789 -0.6930 -0.2163
 2743SOL     OW 8806   5.576   6.494   7.357 -0.0062  0.0797  0.3639
 2743SOL    HW1 8807   5.641   6.540   7.304 -0.4979 -0.8355 -1.0935
 2743SOL    HW2 8808   5.492   6.526   7.324 -0.3386  0.4934  1.5373
 2744SOL     OW 8809   8.286   4.036   9.578  0.2839 -0.7108  0.2645
 2744SOL    HW1 8810   8.241   4.022   9.661  2.7152 -2.4256  1.3774
 2744SOL    HW2 8811   8.375   4.003   9.591  1.9121  2.2666 -1.8879
 2745SOL     OW 8812   7.966   2.499   9.556  0.3126  0.2931 -0.3468
 2745SOL    HW1 8813   8.010   2.492   9.471  0.9962  0.2743  0.0102
 2745SOL    HW2 8814   8.011   2.570   9.601 -0.9895  1.2958 -0.5528
 2746SOL     OW 8815   0.559   8.885   6.710  0.0471  0.7304  0.0707
 2746SOL    HW1 8816   0.541   8.867   6.617  0.3055  0.8707 -0.0093
 2746SOL    HW2 8817   0.614   8.813   6.738  1.2010  1.4428 -0.2896
 2747SOL     OW 8818   7.256   1.642   4.293 -0.6901  0.1002  0.5108
 2747SOL    HW1 8819   7.323   1.679   4.235  1.1334 -1.7867  1.2769
 2747SOL    HW2 8820   7.185   1.616   4.235  0.0436  0.4628 -0.5838
 2748SOL     OW 8821   5.910   8.125   1.666  0.1567  0.3197 -0.2351
 2748SOL    HW1 8822   5.887   8.085   1.582 -0.5000 -2.7021  1.2474
 2748SOL    HW2 8823   5.986   8.076   1.696 -0.4051  0.4449  1.5072
 2749SOL     OW 8824   4.274   3.257   1.453  0.1854 -0.5709  0.5938
 2749SOL    HW1 8825   4.237   3.265   1.541 -0.5686 -0.9601  0.3186
 2749SOL    HW2 8826   4.369   3.257   1.467  0.0949  0.5446  1.2951
 2750SOL     OW 8827   9.329   2.343   2.858 -0.1848 -0.2864 -0.0024
 2750SOL    HW1 8828   9.413   2.385   2.840  0.6340 -0.4209  2.9659
 2750SOL    HW2 8829   9.266   2.415   2.856 -0.4414 -0.4125 -3.9055
 2751SOL     OW 8830   3.501   5.909   6.618 -0.2657 -0.0794  0.2467
 2751SOL    HW1 8831   3.442   5.883   6.688 -0.6260 -1.2388 -0.4749
 2751SOL    HW2 8832   3.456   5.885   6.537  0.2651  0.9805 -0.3964
 2752SOL     OW 8833   1.926   4.297   7.840 -0.1603 -0.4822  0.3934
 2752SOL    HW1 8834   1.863   4.233   7.809 -0.6665  0.2513 -0.0995
 2752SOL    HW2 8835   1.990   4.305   7.769 -0.1540 -0.3588  0.4128
 2753SOL     OW 8836   8.623   1.297   3.376  0.2609  0.6187 -0.8001
 2753SOL    HW1 8837   8.573   1.332   3.449  0.5627  0.0729 -0.3240
 2753SOL    HW2 8838   8.595   1.205   3.370 -1.0130  1.0563 -2.4391
 2754SOL     OW 8839   7.335   4.063   5.707 -0.4895 -0.6980  0.0263
 2754SOL    HW1 8840   7.360   4.099   5.622 -2.2946  0.0620 -0.2395
 2754SOL    HW2 8841   7.285   4.133   5.749 -1.7110 -1.9046  0.6848
 2755SOL     OW 8842   3.153   4.688   5.177  0.8224  0.2827  0.3257
 2755SOL    HW1 8843   3.142   4.783   5.176 -1.5794  0.0856  0.8278
 2755SOL    HW2 8844   3.070   4.655   5.210  1.1964 -2.0606 -0.8466
 2756SOL     OW 8845   7.945   9.080   9.258  0.3171  0.0635 -0.3917
 2756SOL    HW1 8846   7.850   9.068   9.251  0.3033  1.0325 -2.3005
 2756SOL    HW2 8847   7.979   8.991   9.268 -0.8566 -0.2037  2.3014
 2757SOL     OW 8848   2.833   1.371   1.881 -0.0171 -0.4829  0.2163
 2757SOL    HW1 8849   2.773   1.384   1.954  0.3283  1.1282  0.2513
 2757SOL    HW2 8850   2.916   1.347   1.922 -0.0240 -0.3394  0.3147
 2758SOL     OW 8851   3.275   8.452   8.257 -0.3833  0.3556  0.5185
 2758SOL    HW1 8852   3.280   8.475   8.164 -0.2025 -0.0094  0.4385
 2758SOL    HW2 8853   3.191   8.486   8.285 -0.1966  0.9705  0.3559
 2759SOL     OW 8854   9.782   2.343   4.903 -0.2853  0.3736  0.4168
 2759SOL    HW1 8855   9.817   2.272   4.957 -0.3273  0.5279  0.6459
 2759SOL    HW2 8856   9.832   2.420   4.930 -0.8349  0.6048  0.7784
 2760SOL     OW 8857   0.581   2.976   1.850  0.1455  0.3955 -0.2880
 2760SOL    HW1 8858   0.590   2.957   1.757  0.8593  0.2859 -0.2030
 2760SOL    HW2 8859   0.623   2.903   1.894 -2.2685 -0.8041  0.2144
 2761SOL     OW 8860   0.139   8.962   1.409  0.0233  0.7064  0.3495
 2761SOL    HW1 8861   0.101   8.909   1.339  1.0807  0.6259 -0.1852
 2761SOL    HW2 8862   0.065   9.013   1.443 -0.8659 -0.5891  0.4156
 2762SOL     OW 8863   5.073   9.852   6.736  0.7153  0.5053 -0.2933
 2762SOL    HW1 8864   5.100   9.783   6.676  1.5886 -0.9840  1.6667
 2762SOL    HW2 8865   4.988   9.823   6.769  0.3600  1.1723 -0.6258
 2763SOL     OW 8866   5.612   6.075   4.105 -0.0707 -0.1576  0.3569
 2763SOL    HW1 8867   5.573   6.007   4.051  2.0324 -1.1114 -0.0755
 2763SOL    HW2 8868   5.651   6.027   4.178 -1.5937  0.9744  1.9774
 2764SOL     OW 8869   4.904   1.692   6.578 -0.3513 -0.1712  0.2817
 2764SOL    HW1 8870   4.810   1.675   6.584 -0.5438  0.7181 -0.1110
 2764SOL    HW2 8871   4.911   1.787   6.571  0.6544 -0.0969  1.7747
 2765SOL     OW 8872   0.103   9.894   1.042  1.0582  0.0647  0.4390
 2765SOL    HW1 8873   0.142   9.818   0.998 -0.1139  0.1223 -0.7582
 2765SOL    HW2 8874   0.088   9.865   1.132 -0.2391 -1.4864 -0.2313
 2766SOL     OW 8875   9.221   7.160   0.318  0.0709 -0.4029 -0.2681
 2766SOL    HW1 8876   9.242   7.221   0.248 -2.2501 -1.5103 -2.0846
 2766SOL    HW2 8877   9.196   7.079   0.274  0.8877 -1.9843  1.9621
 2767SOL     OW 8878   9.882   9.052   4.730  0.7322 -0.2081  0.3074
 2767SOL    HW1 8879   9.824   9.124   4.754 -0.5092 -0.6465 -1.2283
 2767SOL    HW2 8880   9.828   8.974   4.740  1.4825 -0.7532  0.1471
 2768SOL     OW 8881   6.463   4.569   0.703  0.6523 -0.2140 -0.1595
 2768SOL    HW1 8882   6.373   4.577   0.733  1.2002 -0.6886  1.7588
 2768SOL    HW2 8883   6.472   4.477   0.678  0.5589 -0.1192 -0.5501
 2769SOL     OW 8884   5.728   6.062   0.205 -0.0578  0.0956 -0.4905
 2769SOL    HW1 8885   5.695   6.096   0.122  0.7807  0.5056 -0.6626
 2769SOL    HW2 8886   5.700   6.126   0.271 -1.1385 -0.4718 -0.3716
 2770SOL     OW 8887   1.792   3.528   1.192  0.0876  0.0298 -0.2720
 2770SOL    HW1 8888   1.758   3.617   1.206 -1.0616 -0.5768  0.9612
 2770SOL    HW2 8889   1.819   3.499   1.279  0.2046 -0.9288 -0.6242
 2771SOL     OW 8890   2.219   5.784   1.068 -0.0050  0.2421  0.1232
 2771SOL    HW1 8891   2.148   5.773   1.131  0.5810 -0.0121  0.7507
 2771SOL    HW2 8892   2.208   5.712   1.006 -0.3663  0.2817  0.1372
 2772SOL     OW 8893   9.648   2.908   9.756  0.8718  0.6057  0.3111
 2772SOL    HW1 8894   9.630   2.961   9.678 -0.5381 -0.4790 -0.1401
 2772SOL    HW2 8895   9.563   2.872   9.780  1.3152  0.8112  2.2920
 2773SOL     OW 8896   4.129   9.452   5.854  0.2463  0.1189 -0.2201
 2773SOL    HW1 8897   4.206   9.509   5.858  0.3075  0.0064  0.4153
 2773SOL    HW2 8898   4.056   9.509   5.876  0.1552  0.2075 -0.7452
 2774SOL     OW 8899   2.032   2.525   6.352  0.1554  0.1865 -0.0016
 2774SOL    HW1 8900   2.083   2.484   6.421 -1.2240 -1.1518  0.2707
 2774SOL    HW2 8901   2.003   2.608   6.390  1.6742  0.7553 -0.0002
 2775SOL     OW 8902   0.409   3.117   7.584  0.1878  0.2235 -0.2158
 2775SOL    HW1 8903   0.489   3.083   7.623  0.8280 -0.1480 -1.7723
 2775SOL    HW2 8904   0.386   3.193   7.638  3.1637  2.0464 -1.2868
 2776SOL     OW 8905   7.387   2.741   1.914  0.4034 -0.4185  0.6762
 2776SOL    HW1 8906   7.357   2.664   1.867 -0.3621  1.1319 -1.5435
 2776SOL    HW2 8907   7.310   2.773   1.961  0.0891  0.2611 -0.2766
 2777SOL     OW 8908   3.851   9.761   1.859  0.2057 -0.7289  0.1266
 2777SOL    HW1 8909   3.848   9.667   1.841  3.2246 -0.7875 -0.5594
 2777SOL    HW2 8910   3.932   9.774   1.907 -0.4911  1.4792  0.8272
 2778SOL     OW 8911   7.340   1.693   2.262 -0.0999  0.3202  0.1895
 2778SOL    HW1 8912   7.423   1.741   2.267 -0.4419  0.9343  0.0639
 2778SOL    HW2 8913   7.285   1.746   2.203 -0.8215  0.2919  0.8244
 2779SOL     OW 8914   9.455   1.123   8.553 -0.3807 -0.0715 -0.2093
 2779SOL    HW1 8915   9.414   1.167   8.479 -0.0313 -2.4714 -1.9501
 2779SOL    HW2 8916   9.488   1.041   8.517  3.0593  0.2247  1.8299
 2780SOL     OW 8917   7.935   0.940   5.585  0.4349  0.4584  0.0175
 2780SOL    HW1 8918   7.861   0.926   5.525  0.7512 -0.1933 -0.2306
 2780SOL    HW2 8919   8.010   0.902   5.540  0.8141  0.6121  0.5145
 2781SOL     OW 8920   7.322   2.101   2.301  0.2608 -0.1952  0.0326
 2781SOL    HW1 8921   7.260   2.053   2.356  0.4407 -1.0568 -0.4993
 2781SOL    HW2 8922   7.273   2.121   2.221 -0.4717  2.3276  1.0075
 2782SOL     OW 8923   1.793   1.499   0.102 -0.2310  0.2266  0.0629
 2782SOL    HW1 8924   1.823   1.442   0.173 -0.1609  0.4318  0.2004
 2782SOL    HW2 8925   1.827   1.458   0.023  0.0391  0.2166  0.1818
 2783SOL     OW 8926   7.350   6.025   0.596 -0.0429  0.1019  0.0843
 2783SOL    HW1 8927   7.326   5.934   0.614  0.1578  0.4360  2.3301
 2783SOL    HW2 8928   7.276   6.059   0.545 -0.2727 -1.1912 -0.5091
 2784SOL     OW 8929   6.022   7.511   9.670 -0.4332  0.1366 -0.2772
 2784SOL    HW1 8930   5.930   7.524   9.691 -0.1892 -0.6054  1.4099
 2784SOL    HW2 8931   6.029   7.419   9.645  0.3594 -0.9120  3.1918
 2785SOL     OW 8932   7.729   0.987   3.935 -0.7322 -0.2290  0.4255
 2785SOL    HW1 8933   7.700   1.058   3.992  0.1833  0.4809  0.0314
 2785SOL    HW2 8934   7.688   1.005   3.851 -0.3984 -0.0801  0.2905
 2786SOL     OW 8935   5.390   0.093   5.676 -0.4712 -0.7088  0.4879
 2786SOL    HW1 8936   5.350   0.125   5.756 -0.3814 -1.2301  0.7451
 2786SOL    HW2 8937   5.320   0.099   5.610 -1.1586 -2.1414  1.0578
 2787SOL     OW 8938   2.259   1.672   6.227  0.6397 -0.2979 -0.5738
 2787SOL    HW1 8939   2.229   1.760   6.249 -2.1261 -1.4526  0.7686
 2787SOL    HW2 8940   2.354   1.676   6.237  0.5011  2.2441  0.4706
 2788SOL     OW 8941   1.628   2.817   6.910  1.2174  0.0628 -0.1375
 2788SOL    HW1 8942   1.671   2.853   6.987  1.4054 -2.3104  0.9758
 2788SOL    HW2 8943   1.699   2.777   6.860  0.8106 -0.5443 -0.2515
 2789SOL     OW 8944   2.289   4.686   2.434  0.2030 -0.2795  0.4465
 2789SOL    HW1 8945   2.200   4.655   2.418 -0.2564  0.4565  1.4440
 2789SOL    HW2 8946   2.344   4.608   2.425 -0.6634 -0.9573  0.8351
 2790SOL     OW 8947   6.625   8.902   8.877 -0.4405  0.5530 -0.1591
 2790SOL    HW1 8948   6.664   8.819   8.851  0.7134  1.3931 -1.2692
 2790SOL    HW2 8949   6.592   8.888   8.966 -0.9848 -1.2982 -0.6163
 2791SOL     OW 8950   4.103   9.606   4.466  0.1686  0.5043  0.3540
 2791SOL    HW1 8951   4.040   9.617   4.394  0.6929  0.4084 -0.1245
 2791SOL    HW2 8952   4.117   9.694   4.499 -0.5095  0.4837  0.7181
 2792SOL     OW 8953   2.369   7.560   2.031  0.2067 -0.0904 -0.4344
 2792SOL    HW1 8954   2.428   7.623   1.991 -0.6107 -0.3273 -2.0976
 2792SOL    HW2 8955   2.379   7.574   2.125  0.5780  2.0079 -0.7377
 2793SOL     OW 8956   5.591   6.832   1.436 -0.2245  0.0856 -0.0021
 2793SOL    HW1 8957   5.599   6.757   1.494  1.8717 -0.0844 -0.4485
 2793SOL    HW2 8958   5.497   6.849   1.432 -0.6015 -1.4050  1.4874
 2794SOL     OW 8959   1.123   1.790   7.679  1.0226  0.3406 -0.1549
 2794SOL    HW1 8960   1.114   1.703   7.641  0.2281  0.7641 -0.9880
 2794SOL    HW2 8961   1.186   1.780   7.750  2.1057 -0.5990 -1.2247
 2795SOL     OW 8962   0.480   6.852   7.374  0.0639  0.1680  0.0417
 2795SOL    HW1 8963   0.407   6.913   7.384 -0.1488 -0.3382  1.9254
 2795SOL    HW2 8964   0.527   6.857   7.457  1.3178 -0.6247 -0.5864
 2796SOL     OW 8965   0.118   9.376   5.285 -0.0692 -0.1936 -0.5502
 2796SOL    HW1 8966   0.137   9.312   5.217  2.5178 -1.1137  0.8795
 2796SOL    HW2 8967   0.024   9.366   5.302  0.0103 -2.8151 -1.1746
 2797SOL     OW 8968   4.235   2.945   6.941  0.1053  0.0334  0.2966
 2797SOL    HW1 8969   4.186   3.007   6.995  1.9750 -0.5537  2.8737
 2797SOL    HW2 8970   4.294   3.000   6.889 -0.1853  0.5113  0.4606
 2798SOL     OW 8971   1.275   9.865   5.370  0.3793  0.0596  0.2490
 2798SOL    HW1 8972   1.202   9.926   5.364 -0.0569 -0.0960  2.7475
 2798SOL    HW2 8973   1.316   9.867   5.283 -0.5426  2.6959 -0.2048
 2799SOL     OW 8974   2.220   4.753   1.149 -0.2999 -0.4208 -0.4461
 2799SOL    HW1 8975   2.167   4.689   1.102 -0.8216  0.2114 -0.7372
 2799SOL    HW2 8976   2.222   4.830   1.091  0.9786 -0.4523 -0.4598
 2800SOL     OW 8977   8.248   7.903   2.862 -0.0143  0.0239  0.0374
 2800SOL    HW1 8978   8.272   7.850   2.938 -1.6140 -0.2284  0.4069
 2800SOL    HW2 8979   8.268   7.848   2.787  0.5025 -0.1778  0.3154
 2801SOL     OW 8980   1.332   7.591   9.069  0.2117  0.3940  0.5696
 2801SOL    HW1 8981   1.247   7.553   9.048  0.1413  0.1112  1.3203
 2801SOL    HW2 8982   1.395   7.526   9.039  0.2162  1.0635 -0.9331
 2802SOL     OW 8983   8.641   5.543   1.188 -0.6360 -0.6437  0.3312
 2802SOL    HW1 8984   8.563   5.595   1.209  0.3775  1.6398 -1.1264
 2802SOL    HW2 8985   8.642   5.539   1.092  0.8907 -0.8050  0.3216
 2803SOL     OW 8986   5.730   1.430   0.949 -0.0213  0.0203  0.1570
 2803SOL    HW1 8987   5.819   1.396   0.951 -0.5432 -1.4628 -0.5122
 2803SOL    HW2 8988   5.680   1.372   1.006 -0.6731  0.4792  0.0699
 2804SOL     OW 8989   7.296   0.839   4.885 -0.6258 -0.3964 -0.0330
 2804SOL    HW1 8990   7.363   0.805   4.944 -0.3663 -1.5618 -0.9528
 2804SOL    HW2 8991   7.224   0.864   4.942  0.5806  0.9157  0.9867
 2805SOL     OW 8992   9.100   1.612   5.117  0.2486 -0.0632 -0.3373
 2805SOL    HW1 8993   9.029   1.567   5.163 -0.2414 -0.4971 -1.4716
 2805SOL    HW2 8994   9.174   1.609   5.178 -0.9648  1.3209  1.2993
 2806SOL     OW 8995   6.734   4.116   6.454  0.0762  0.6785 -0.2015
 2806SOL    HW1 8996   6.701   4.031   6.484  0.1759  0.2683 -1.2017
 2806SOL    HW2 8997   6.687   4.132   6.372  0.8564  1.0725 -0.5770
 2807SOL     OW 8998   1.958   6.679   6.478 -0.1600 -0.7851 -0.3704
 2807SOL    HW1 8999   1.987   6.663   6.388 -1.0538 -0.6905 -0.6900
 2807SOL    HW2 9000   2.024   6.636   6.533  0.5627 -0.5725 -1.0604
 2808SOL     OW 9001   0.009   0.481   2.367  0.9035  0.2017  0.3729
 2808SOL    HW1 9002   0.021   0.575   2.380 -1.3957  0.2815  2.8748
 2808SOL    HW2 9003   0.034   0.442   2.450 -1.5879 -0.9604  0.6522
 2809SOL     OW 9004   9.732   0.350   7.284  0.1557  0.3283  0.0010
 2809SOL    HW1 9005   9.766   0.343   7.373  0.2377  1.2944  0.0562
 2809SOL    HW2 9006   9.639   0.328   7.292  0.0505  0.9081  0.4143
 2810SOL     OW 9007   6.494   4.096   3.452  0.6196 -0.5961 -0.5479
 2810SOL    HW1 9008   6.450   4.174   3.485  0.8203 -0.0139 -1.6004
 2810SOL    HW2 9009   6.424   4.043   3.414  0.6225 -0.3937 -0.8397
 2811SOL     OW 9010   0.855   1.760   2.538 -0.5178  0.0232 -0.3545
 2811SOL    HW1 9011   0.869   1.683   2.483  0.3335  1.0472 -1.6672
 2811SOL    HW2 9012   0.917   1.750   2.611  0.6425  0.1191 -1.2844
 2812SOL     OW 9013   4.063   9.030   1.631  0.0287  0.0901 -0.8412
 2812SOL    HW1 9014   4.135   9.089   1.610  2.3186 -1.9250  0.7964
 2812SOL    HW2 9015   4.040   8.989   1.548  1.6516 -0.0999 -1.2326
 2813SOL     OW 9016   2.240   6.337   6.440 -0.0739 -0.2994 -0.1881
 2813SOL    HW1 9017   2.184   6.385   6.502 -0.9257  1.5383 -2.2680
 2813SOL    HW2 9018   2.325   6.381   6.447  0.7907 -2.1080  1.8465
 2814SOL     OW 9019   7.113   8.462   7.548  0.0749  0.3249  0.2040
 2814SOL    HW1 9020   7.077   8.539   7.591 -0.5212 -0.7547  1.7303
 2814SOL    HW2 9021   7.179   8.429   7.609  0.3247 -0.3760 -0.4204
 2815SOL     OW 9022   9.355   3.639   7.380 -0.3718 -0.2450  0.0769
 2815SOL    HW1 9023   9.288   3.637   7.448  0.3730 -0.3915  0.8212
 2815SOL    HW2 9024   9.397   3.724   7.390  0.5363 -0.7382  0.6000
 2816SOL     OW 9025   2.497   4.860   3.960 -0.0033  0.0902  0.3801
 2816SOL    HW1 9026   2.514   4.955   3.962  0.8095  0.0290 -1.4228
 2816SOL    HW2 9027   2.549   4.825   4.031 -0.1769  0.9705  0.9670
 2817SOL     OW 9028   4.754   6.747   4.360  0.4894  0.2254  0.6675
 2817SOL    HW1 9029   4.789   6.756   4.449  1.0907 -0.3550  0.4885
 2817SOL    HW2 9030   4.670   6.703   4.372  0.5510  0.1838  0.9519
 2818SOL     OW 9031   9.727   9.970   8.355  0.4155 -0.1826  0.3727
 2818SOL    HW1 9032   9.804   9.987   8.302  0.6729 -1.7554  0.1997
 2818SOL    HW2 9033   9.761   9.929   8.435 -0.1995 -0.5151  0.4722
 2819SOL     OW 9034   4.193   8.492   4.640 -0.1383  0.2430  0.8133
 2819SOL    HW1 9035   4.220   8.477   4.730  1.3771 -0.8218  0.2204
 2819SOL    HW2 9036   4.106   8.452   4.633 -0.5981  0.9910  1.9600
 2820SOL     OW 9037   2.218   7.087   0.840  0.1425  0.8536 -0.3954
 2820SOL    HW1 9038   2.281   7.158   0.840 -0.6856  1.6084 -0.4170
 2820SOL    HW2 9039   2.182   7.086   0.752  1.8932 -1.2299 -1.1855
 2821SOL     OW 9040   6.406   1.996   9.750 -0.0547 -0.3549 -0.2794
 2821SOL    HW1 9041   6.437   2.058   9.684  1.9089 -0.2288  0.6742
 2821SOL    HW2 9042   6.452   1.914   9.730  0.4685 -0.3529  0.7868
 2822SOL     OW 9043   6.273   8.607   1.399  0.6536  0.3824  0.2401
 2822SOL    HW1 9044   6.364   8.590   1.422  0.6540  0.0088 -0.0170
 2822SOL    HW2 9045   6.270   8.596   1.304  0.9025  3.0259 -0.1355
 2823SOL     OW 9046   7.813   5.399   8.920 -0.3273  0.8859  0.1943
 2823SOL    HW1 9047   7.718   5.394   8.908 -0.5367  2.0747  1.1787
 2823SOL    HW2 9048   7.837   5.486   8.886  0.5040  0.3878 -0.5436
 2824SOL     OW 9049   5.493   9.564   2.650 -0.1297 -0.3580  0.6761
 2824SOL    HW1 9050   5.441   9.618   2.711  0.8931  0.9341  0.4459
 2824SOL    HW2 9051   5.434   9.548   2.577 -0.3936  0.6686  0.6447
 2825SOL     OW 9052   2.603   1.738   0.860 -0.1569  0.1725  0.1491
 2825SOL    HW1 9053   2.534   1.754   0.796 -0.2245  1.0423  0.4215
 2825SOL    HW2 9054   2.598   1.813   0.920  0.3495 -0.2755  0.7716
 2826SOL     OW 9055   5.154   0.733   8.897  0.0839 -0.7600  0.1904
 2826SOL    HW1 9056   5.244   0.744   8.864 -0.3208  1.2328 -0.4018
 2826SOL    HW2 9057   5.111   0.680   8.830 -0.0675  1.2082 -1.3735
 2827SOL     OW 9058   8.349   2.037   3.988 -0.0111  0.1245 -0.2942
 2827SOL    HW1 9059   8.264   2.006   4.019  0.4161  0.2688  1.1121
 2827SOL    HW2 9060   8.367   1.985   3.910 -1.3830  0.1020 -0.6227
 2828SOL     OW 9061   5.395   0.391   9.814 -0.5597  0.0392  0.0168
 2828SOL    HW1 9062   5.422   0.374   9.904 -0.6503 -1.2082 -0.1726
 2828SOL    HW2 9063   5.397   0.305   9.772 -0.6528  0.5851 -1.1379
 2829SOL     OW 9064   8.831   2.023   3.313 -0.4159  0.1793  0.3707
 2829SOL    HW1 9065   8.773   1.947   3.320  0.2188 -0.3977 -0.4929
 2829SOL    HW2 9066   8.883   2.007   3.235  1.2562  0.4604  1.3784
 2830SOL     OW 9067   7.325   6.564   6.029  0.5183 -0.5684 -0.0174
 2830SOL    HW1 9068   7.290   6.516   6.104  0.2532 -0.3509 -0.0007
 2830SOL    HW2 9069   7.252   6.618   5.999  0.9027  0.0612  0.1557
 2831SOL     OW 9070   6.059   5.605   5.305 -0.0504  0.0424 -0.1771
 2831SOL    HW1 9071   6.144   5.560   5.309 -0.1985 -0.1536  1.7960
 2831SOL    HW2 9072   5.999   5.548   5.353 -1.3116  0.2039 -1.5148
 2832SOL     OW 9073   2.366   7.978   0.514  0.8453 -0.0666  0.2125
 2832SOL    HW1 9074   2.434   7.954   0.451  0.7886  1.2542 -0.3785
 2832SOL    HW2 9075   2.404   7.958   0.600  2.3009  1.3501 -0.0583
 2833SOL     OW 9076   7.362   8.664   8.545 -0.2181  0.1584 -0.1204
 2833SOL    HW1 9077   7.371   8.727   8.474 -1.7234  0.8562  0.2691
 2833SOL    HW2 9078   7.452   8.635   8.564  0.5055  2.1953 -0.2770
 2834SOL     OW 9079   6.343   5.107   7.348  0.5825  0.5145 -0.5443
 2834SOL    HW1 9080   6.266   5.052   7.360 -0.5766  2.0213 -0.6727
 2834SOL    HW2 9081   6.415   5.056   7.384 -0.4750 -0.9368 -0.3969
 2835SOL     OW 9082   3.811   9.448   4.817 -0.1713 -0.2407  0.2083
 2835SOL    HW1 9083   3.864   9.369   4.826  1.0441  0.5596  0.2430
 2835SOL    HW2 9084   3.723   9.415   4.797  0.4218 -1.5814 -0.3469
 2836SOL     OW 9085   8.236   2.324   0.114 -0.0887  0.1801 -0.3284
 2836SOL    HW1 9086   8.203   2.277   0.190 -0.8769  0.7638 -0.2995
 2836SOL    HW2 9087   8.158   2.358   0.070  0.1488 -2.0366 -2.6853
 2837SOL     OW 9088   5.236   9.467   2.882 -0.2283  0.1544 -0.3904
 2837SOL    HW1 9089   5.242   9.434   2.792  1.1437  3.0464 -1.4790
 2837SOL    HW2 9090   5.321   9.507   2.899 -0.6289  0.1190  2.0483
 2838SOL     OW 9091   4.046   7.797   6.315  0.0674  0.1827  0.0812
 2838SOL    HW1 9092   4.051   7.709   6.353 -1.2502  0.5554  1.2256
 2838SOL    HW2 9093   3.992   7.787   6.237 -0.1902 -0.0141  0.2832
 2839SOL     OW 9094   7.027   6.893   1.049 -0.4730 -0.4696  0.2972
 2839SOL    HW1 9095   7.105   6.941   1.020 -0.8057 -0.3230 -0.3788
 2839SOL    HW2 9096   7.043   6.874   1.141  0.4713 -0.6529  0.1021
 2840SOL     OW 9097   2.650   9.713   4.464  0.4323  0.1610 -0.4536
 2840SOL    HW1 9098   2.564   9.744   4.433  0.5874 -0.5492 -1.6705
 2840SOL    HW2 9099   2.629   9.643   4.525  0.1152 -1.1889 -2.0352
 2841SOL     OW 9100   2.275   0.553   5.902  0.1732 -0.3764  0.0662
 2841SOL    HW1 9101   2.369   0.570   5.909 -0.0417  1.2583 -0.4456
 2841SOL    HW2 9102   2.241   0.566   5.990  0.5013 -1.6948  0.4115
 2842SOL     OW 9103   7.099   5.233   1.460 -0.7837  0.9152 -0.0576
 2842SOL    HW1 9104   7.188   5.268   1.450  0.5624 -1.8326  1.2300
 2842SOL    HW2 9105   7.100   5.152   1.408 -2.4104  0.6222  0.3276
 2843SOL     OW 9106   8.653   7.613   0.469 -0.2890  0.1057  0.8798
 2843SOL    HW1 9107   8.662   7.522   0.440  0.8889 -1.1291  4.5257
 2843SOL    HW2 9108   8.559   7.631   0.460 -0.2721 -0.6854 -1.7615
 2844SOL     OW 9109   8.926   0.451   2.984 -0.5444  0.3026 -0.2237
 2844SOL    HW1 9110   8.885   0.408   3.060  0.4358  1.3710  0.9506
 2844SOL    HW2 9111   9.007   0.403   2.970 -0.1125  0.8947  0.2181
 2845SOL     OW 9112   9.944   6.563   2.316 -0.9088 -0.2324  0.3064
 2845SOL    HW1 9113  10.037   6.584   2.308 -0.7803 -1.3046 -1.7494
 2845SOL    HW2 9114   9.940   6.497   2.385 -0.1165 -0.3339  0.2657
 2846SOL     OW 9115   4.335   4.618   2.742 -0.6186  0.8829 -0.2007
 2846SOL    HW1 9116   4.340   4.709   2.774  0.3579  0.3447  1.3051
 2846SOL    HW2 9117   4.379   4.620   2.657  0.4637  1.6171  0.3514
 2847SOL     OW 9118   8.152   0.397   0.793  0.9457  0.2209 -0.0570
 2847SOL    HW1 9119   8.167   0.407   0.887 -2.2366 -0.5050  0.6531
 2847SOL    HW2 9120   8.169   0.305   0.775 -0.3321 -0.1127  0.3009
 2848SOL     OW 9121   1.240   6.163   3.134 -0.3735 -0.1001  0.3188
 2848SOL    HW1 9122   1.277   6.099   3.195  0.7886 -0.5724 -0.8418
 2848SOL    HW2 9123   1.308   6.230   3.125 -0.3187 -0.2845 -0.8011
 2849SOL     OW 9124   8.526   1.120   9.090  0.5725  0.0336 -0.4191
 2849SOL    HW1 9125   8.587   1.126   9.017  2.1898  0.6791  0.9244
 2849SOL    HW2 9126   8.453   1.177   9.065  0.2396 -1.1169 -2.2601
 2850SOL     OW 9127   8.794   2.319   5.914  0.1420  0.2525  0.2015
 2850SOL    HW1 9128   8.842   2.402   5.917  5.0383 -2.2487  0.3660
 2850SOL    HW2 9129   8.810   2.286   5.826 -2.4536 -0.2964 -0.1492
 2851SOL     OW 9130   4.513   1.371   7.419  0.3755 -0.5637 -0.9906
 2851SOL    HW1 9131   4.589   1.313   7.426 -0.0767 -1.1511 -0.8638
 2851SOL    HW2 9132   4.550   1.459   7.422  0.9899 -0.8335 -0.0548
 2852SOL     OW 9133   0.764   5.950   4.003  0.3614 -0.1128  0.1953
 2852SOL    HW1 9134   0.704   5.937   3.929  2.2046 -0.8331 -1.2717
 2852SOL    HW2 9135   0.721   6.016   4.058 -0.8506  0.8609 -1.7939
 2853SOL     OW 9136   6.675   9.267   5.511  0.0023 -0.3696 -0.0560
 2853SOL    HW1 9137   6.597   9.240   5.461 -1.6488  2.2382  0.8923
 2853SOL    HW2 9138   6.738   9.197   5.497 -1.2976 -1.0517 -3.6305
 2854SOL     OW 9139   1.415   3.978   3.168  0.0520  0.0397 -0.1051
 2854SOL    HW1 9140   1.361   4.031   3.227 -1.2002 -0.4501 -0.7929
 2854SOL    HW2 9141   1.412   4.025   3.084  0.7328  0.0217 -0.1475
 2855SOL     OW 9142   6.623   1.251   4.554 -0.4153 -0.2275  0.4001
 2855SOL    HW1 9143   6.706   1.255   4.507 -0.3285 -0.8198  0.4922
 2855SOL    HW2 9144   6.557   1.276   4.489 -0.2397 -0.4712  0.1243
 2856SOL     OW 9145   2.519   9.822   8.963 -0.3295  0.1704 -0.1023
 2856SOL    HW1 9146   2.546   9.736   8.930  0.3565  0.7866 -1.1790
 2856SOL    HW2 9147   2.595   9.878   8.950 -0.4900  0.7724  1.3449
 2857SOL     OW 9148   8.479   8.697   5.367  0.1360 -0.6751  0.1688
 2857SOL    HW1 9149   8.515   8.689   5.279  0.3567 -1.8275  0.3553
 2857SOL    HW2 9150   8.553   8.684   5.425 -0.0933 -0.3846  0.5344
 2858SOL     OW 9151   8.577   8.924   2.131  0.2056  0.1321  0.5741
 2858SOL    HW1 9152   8.503   8.968   2.172 -0.7087 -1.4682  0.7005
 2858SOL    HW2 9153   8.552   8.832   2.128  2.3901 -0.5456  1.0691
 2859SOL     OW 9154   5.866   0.197   8.664  0.8736  0.5223  0.2805
 2859SOL    HW1 9155   5.775   0.202   8.694  1.3228  0.0824  1.8240
 2859SOL    HW2 9156   5.880   0.105   8.645  1.1795  0.4822  0.6848
 2860SOL     OW 9157   5.456   2.123   2.695 -0.2764  0.1858  0.3236
 2860SOL    HW1 9158   5.524   2.104   2.631 -0.2240  0.1202  0.3981
 2860SOL    HW2 9159   5.477   2.211   2.727 -0.8999  0.6408 -0.5020
 2861SOL     OW 9160   6.300   7.131   6.655  0.2651 -0.1126  0.3500
 2861SOL    HW1 9161   6.342   7.088   6.729  0.1351 -1.1834 -0.1868
 2861SOL    HW2 9162   6.332   7.085   6.578  1.1208  1.5769 -0.3695
 2862SOL     OW 9163   7.150   9.555   7.417  0.0282 -0.0628  0.0570
 2862SOL    HW1 9164   7.077   9.616   7.420 -0.0795 -0.1709 -0.3869
 2862SOL    HW2 9165   7.147   9.511   7.502 -0.1399  0.2578  0.2207
 2863SOL     OW 9166   3.439   9.397   5.541 -0.1148 -0.0287  0.1361
 2863SOL    HW1 9167   3.407   9.439   5.462  2.7642  0.8293 -0.6945
 2863SOL    HW2 9168   3.417   9.305   5.530 -1.2160  0.3358 -0.8746
 2864SOL     OW 9169   3.394   7.575   2.119 -0.4889 -0.0323 -0.0725
 2864SOL    HW1 9170   3.360   7.661   2.097  2.0823  0.9118 -0.6894
 2864SOL    HW2 9171   3.361   7.518   2.049 -1.7725  0.5339  0.0414
 2865SOL     OW 9172   2.054   2.766   7.552 -0.4183 -0.3459  0.0974
 2865SOL    HW1 9173   1.971   2.789   7.595  0.1996  1.1849  0.5151
 2865SOL    HW2 9174   2.066   2.673   7.573 -0.4159  0.1858  2.8427
 2866SOL     OW 9175   7.366   9.246   7.794  0.6106 -0.0640 -0.1583
 2866SOL    HW1 9176   7.328   9.332   7.808  1.1297 -0.0118  1.0649
 2866SOL    HW2 9177   7.361   9.232   7.699 -2.7093 -0.2093 -0.0749
 2867SOL     OW 9178   3.713   0.603   0.283  0.3707 -0.0214 -0.1454
 2867SOL    HW1 9179   3.640   0.664   0.271 -0.9323 -1.4840  0.0818
 2867SOL    HW2 9180   3.708   0.543   0.209 -0.2558 -1.6862  1.1923
 2868SOL     OW 9181   0.485   3.331   3.261 -0.0588 -0.0032  0.0600
 2868SOL    HW1 9182   0.510   3.393   3.193 -0.4754  1.6384  1.3334
 2868SOL    HW2 9183   0.446   3.258   3.214 -1.1782  1.4818 -1.4191
 2869SOL     OW 9184   1.950   9.170   2.249  0.1037  0.3396  0.0124
 2869SOL    HW1 9185   1.942   9.129   2.163  3.9932  0.2288 -0.4806
 2869SOL    HW2 9186   1.983   9.258   2.231  2.1940 -0.0975  1.3243
 2870SOL     OW 9187   7.085   7.052   2.516  0.0099  0.1172  0.3581
 2870SOL    HW1 9188   7.039   7.043   2.599  0.7624 -0.6044  0.7197
 2870SOL    HW2 9189   7.028   7.010   2.452  0.3773 -1.2547  0.8929
 2871SOL     OW 9190   5.170   9.436   4.877 -0.1787  0.0968  0.3477
 2871SOL    HW1 9191   5.126   9.351   4.880 -1.0841  0.4009 -2.0427
 2871SOL    HW2 9192   5.113   9.491   4.824  2.3738  0.8925 -1.8171
 2872SOL     OW 9193   9.533   0.330   2.187 -0.2172  0.0116 -0.2062
 2872SOL    HW1 9194   9.527   0.333   2.092 -0.4486  0.5993 -0.1765
 2872SOL    HW2 9195   9.466   0.267   2.214  0.7704 -1.1978 -0.5086
 2873SOL     OW 9196   7.013   0.726   7.355  0.2582 -0.5199  0.3298
 2873SOL    HW1 9197   6.927   0.746   7.393 -0.2401  0.0745 -1.0270
 2873SOL    HW2 9198   7.020   0.631   7.363 -0.8228 -0.6569 -0.1118
 2874SOL     OW 9199   9.306   2.484   3.170  0.3328  0.1318  0.1398
 2874SOL    HW1 9200   9.226   2.534   3.151 -0.5250 -0.9022  0.8557
 2874SOL    HW2 9201   9.282   2.430   3.246  1.8635  0.1145  0.6363
 2875SOL     OW 9202   3.416   5.597   8.836  0.1165 -0.0087 -0.0670
 2875SOL    HW1 9203   3.402   5.691   8.827 -1.1525 -0.1329  0.4894
 2875SOL    HW2 9204   3.358   5.570   8.906 -1.3854 -1.6146 -1.8060
 2876SOL     OW 9205   3.946   2.254   9.405 -0.7382  0.0870 -0.1199
 2876SOL    HW1 9206   3.920   2.302   9.483 -1.8900  0.2904 -0.6119
 2876SOL    HW2 9207   3.868   2.205   9.380  0.1855 -1.4777 -0.0535
 2877SOL     OW 9208   1.381   3.040   7.431  0.1050  0.0659 -0.4957
 2877SOL    HW1 9209   1.462   3.042   7.379 -0.2121  1.2592 -0.9722
 2877SOL    HW2 9210   1.411   3.054   7.521  0.4297  0.6648 -0.6872
 2878SOL     OW 9211   2.966   4.264   4.863  0.2679 -0.1036  0.4279
 2878SOL    HW1 9212   3.062   4.268   4.864  0.2257  1.3093  0.6582
 2878SOL    HW2 9213   2.946   4.188   4.810  1.5326 -1.6186  2.0017
 2879SOL     OW 9214   4.365   2.858   9.540  0.3362 -0.1641  0.0498
 2879SOL    HW1 9215   4.357   2.875   9.633 -0.2286 -0.9964  0.1629
 2879SOL    HW2 9216   4.276   2.868   9.506  0.7778  1.7319 -0.7075
 2880SOL     OW 9217   2.961   9.821   9.120 -0.5469  0.1121  0.2285
 2880SOL    HW1 9218   2.911   9.743   9.098 -0.7617  0.8343 -2.0322
 2880SOL    HW2 9219   2.981   9.862   9.036  1.7059  1.1906  1.2039
 2881SOL     OW 9220   3.051   3.233   9.783 -0.5437 -0.8570  0.1584
 2881SOL    HW1 9221   3.042   3.242   9.688 -2.1650  0.0000  0.3609
 2881SOL    HW2 9222   3.046   3.322   9.817  2.1618 -0.9183  0.9556
 2882SOL     OW 9223   7.758   3.614   5.194  0.5595 -0.6124 -0.2529
 2882SOL    HW1 9224   7.782   3.569   5.112  0.7154  1.6768 -1.5532
 2882SOL    HW2 9225   7.840   3.627   5.239  1.0465  1.3792 -1.5693
 2883SOL     OW 9226   4.498   3.867   5.782  0.1694 -0.4631  0.2930
 2883SOL    HW1 9227   4.538   3.864   5.869  0.0641 -0.5866  0.3369
 2883SOL    HW2 9228   4.567   3.902   5.726  0.2953 -0.5436  0.3959
 2884SOL     OW 9229   7.161   6.908   4.062  0.1680 -0.0986 -0.6550
 2884SOL    HW1 9230   7.095   6.919   4.131  1.0598  0.4897  0.1489
 2884SOL    HW2 9231   7.232   6.860   4.105  1.0630  0.9429 -0.9096
 2885SOL     OW 9232   6.194   4.999   1.970  0.1766 -0.2728 -0.2585
 2885SOL    HW1 9233   6.137   4.923   1.976 -0.1055 -0.1009 -0.6986
 2885SOL    HW2 9234   6.251   4.981   1.895 -0.7217  0.4938 -1.1462
 2886SOL     OW 9235   8.089   6.985   0.273 -0.1674 -0.0707 -0.3783
 2886SOL    HW1 9236   8.025   6.989   0.201  0.2388 -1.3325 -0.8220
 2886SOL    HW2 9237   8.150   6.916   0.248 -0.7293 -1.4255  1.7633
 2887SOL     OW 9238   7.276   3.028   0.459 -0.0324  0.4503 -0.1893
 2887SOL    HW1 9239   7.322   3.047   0.541 -0.5760 -1.3020  0.5582
 2887SOL    HW2 9240   7.340   2.979   0.407 -0.1677  0.3311 -0.2426
 2888SOL     OW 9241   9.032   7.608   3.364  0.1391 -0.3353  0.1357
 2888SOL    HW1 9242   9.099   7.676   3.352 -0.6110  0.3654 -0.1983
 2888SOL    HW2 9243   8.984   7.608   3.281 -1.2691  0.2862  0.9144
 2889SOL     OW 9244   8.719   1.742   1.387  0.1904 -0.2580 -0.3823
 2889SOL    HW1 9245   8.771   1.821   1.372  1.4701 -1.3314 -1.9999
 2889SOL    HW2 9246   8.784   1.674   1.405 -0.8874 -0.9587  1.0843
 2890SOL     OW 9247   2.195   7.392   6.100 -0.4762 -0.1475  0.1777
 2890SOL    HW1 9248   2.118   7.359   6.148 -1.3111  1.0801 -0.2881
 2890SOL    HW2 9249   2.176   7.372   6.008 -0.0656 -0.1422  0.0901
 2891SOL     OW 9250   2.904   8.097   4.744 -0.1227 -0.1985 -0.3223
 2891SOL    HW1 9251   2.862   8.012   4.756  1.5714 -0.7618  2.4558
 2891SOL    HW2 9252   2.922   8.102   4.650 -2.2686 -1.8767 -0.8857
 2892SOL     OW 9253   6.340   2.803   2.625  1.0113  0.3461  0.2843
 2892SOL    HW1 9254   6.252   2.767   2.638  0.6723  1.3762  0.9121
 2892SOL    HW2 9255   6.365   2.772   2.538 -0.3532  0.7956 -0.3096
 2893SOL     OW 9256   8.629   5.403   9.365 -0.4456  0.1294 -0.2838
 2893SOL    HW1 9257   8.608   5.456   9.442 -0.5283  0.8539 -0.7874
 2893SOL    HW2 9258   8.723   5.418   9.351 -0.5446  0.4339 -0.6391
 2894SOL     OW 9259   7.642   7.518   1.943 -0.0266  0.0424  0.2063
 2894SOL    HW1 9260   7.699   7.450   1.908 -0.9559 -0.2688 -0.7403
 2894SOL    HW2 9261   7.675   7.533   2.032 -0.2563 -2.1630  0.7188
 2895SOL     OW 9262   2.853   3.580   1.226  0.2248  0.3938  0.2016
 2895SOL    HW1 9263   2.808   3.651   1.271  1.4765  0.9465  0.6205
 2895SOL    HW2 9264   2.798   3.503   1.243 -0.1725  0.8965  1.3224
 2896SOL     OW 9265   3.690   2.034   5.506  0.5865 -0.0028  0.1904
 2896SOL    HW1 9266   3.634   2.096   5.459 -0.3111 -0.8458  0.0983
 2896SOL    HW2 9267   3.769   2.029   5.453 -0.0897 -0.3312 -0.8229
 2897SOL     OW 9268   2.472   7.139   2.596 -0.3565 -0.3887  0.1359
 2897SOL    HW1 9269   2.542   7.085   2.558  0.1700 -0.9657  1.8211
 2897SOL    HW2 9270   2.409   7.075   2.631 -0.6853  0.1098  0.4693
 2898SOL     OW 9271   2.138   6.907   6.531  0.3989  0.0788 -0.1708
 2898SOL    HW1 9272   2.194   6.949   6.466 -0.5407  0.5373 -0.7053
 2898SOL    HW2 9273   2.115   6.823   6.492 -0.6071  0.5815 -0.6931
 2899SOL     OW 9274   5.724   7.959   5.253 -0.1691  0.0489  0.0137
 2899SOL    HW1 9275   5.685   7.872   5.258  1.2316 -0.6388 -0.3634
 2899SOL    HW2 9276   5.703   7.991   5.165 -0.0438 -0.2273 -0.1163
 2900SOL     OW 9277   9.553   4.894   0.599  0.5579 -1.0684  0.9630
 2900SOL    HW1 9278   9.569   4.827   0.533  0.8539  0.8068 -0.9953
 2900SOL    HW2 9279   9.506   4.963   0.552  0.0985  0.0298  2.9187
 2901SOL     OW 9280   0.917   0.545   3.006  0.2964  0.2159  0.1538
 2901SOL    HW1 9281   0.880   0.484   2.942  1.7238  1.0146 -1.5139
 2901SOL    HW2 9282   0.941   0.490   3.080 -0.9892 -0.8164 -0.1563
 2902SOL     OW 9283   4.739   7.491   6.814 -0.0529 -0.1867 -0.5830
 2902SOL    HW1 9284   4.703   7.578   6.798  1.6848  0.5364 -0.6827
 2902SOL    HW2 9285   4.772   7.463   6.729  0.1385 -0.6033 -0.3720
 2903SOL     OW 9286   8.357   5.622   7.762 -0.1061 -0.0366  0.0149
 2903SOL    HW1 9287   8.375   5.716   7.759 -0.8814  0.2149  1.8658
 2903SOL    HW2 9288   8.429   5.586   7.813  0.9076 -0.6921 -1.7905
 2904SOL     OW 9289   8.622   9.028   6.227 -0.2219  0.0114 -0.5442
 2904SOL    HW1 9290   8.615   9.058   6.137  0.3653 -1.2544 -1.0340
 2904SOL    HW2 9291   8.650   8.936   6.220  4.0862  0.9965  0.9578
 2905SOL     OW 9292   3.233   6.016   1.387  0.0494 -0.2021 -0.4504
 2905SOL    HW1 9293   3.159   6.005   1.446  0.2652 -1.8833 -0.4617
 2905SOL    HW2 9294   3.264   5.927   1.369  0.0702  0.2282 -2.9878
 2906SOL     OW 9295   6.300   4.726   6.853 -0.3617 -0.0978  0.7329
 2906SOL    HW1 9296   6.321   4.697   6.764 -1.1492 -0.5233  0.6787
 2906SOL    HW2 9297   6.320   4.820   6.852 -3.1194  0.5926 -0.8111
 2907SOL     OW 9298   3.860   5.469   1.649  0.1839  0.6288  0.5442
 2907SOL    HW1 9299   3.885   5.396   1.707 -1.9456  0.7868  1.7726
 2907SOL    HW2 9300   3.844   5.428   1.564 -0.1911 -0.2088  1.0092
 2908SOL     OW 9301   8.063   0.442   5.896  0.2328 -0.0192  0.0820
 2908SOL    HW1 9302   8.049   0.517   5.838  0.7798 -0.6094 -0.8144
 2908SOL    HW2 9303   8.146   0.460   5.939 -0.5256  0.7928  1.3058
 2909SOL     OW 9304   4.079   6.499   6.482  0.2251 -0.5311 -0.1027
 2909SOL    HW1 9305   4.082   6.408   6.512 -0.5940 -0.6491 -0.3388
 2909SOL    HW2 9306   4.002   6.536   6.526  0.3097 -0.0763 -0.3335
 2910SOL     OW 9307   6.789   1.165   5.536  0.3945  0.1060  0.5118
 2910SOL    HW1 9308   6.832   1.080   5.542  0.0591  0.0149  2.1586
 2910SOL    HW2 9309   6.698   1.144   5.513  0.5215  0.0926  0.0097
 2911SOL     OW 9310   1.508   5.446   9.802 -0.4746  0.0673  0.0118
 2911SOL    HW1 9311   1.539   5.438   9.892  2.1149 -0.3797 -0.8446
 2911SOL    HW2 9312   1.532   5.536   9.777 -0.9624  0.1082 -0.3228
 2912SOL     OW 9313   7.004   2.794   4.455  0.0619  0.5773 -0.2953
 2912SOL    HW1 9314   6.984   2.875   4.408  3.3750  1.0418 -1.1664
 2912SOL    HW2 9315   7.079   2.758   4.408  0.6249 -1.3690  1.9441
 2913SOL     OW 9316   2.922   2.416   4.828  0.3898  0.1657  0.5527
 2913SOL    HW1 9317   2.879   2.372   4.901  1.7729  0.6394  1.7085
 2913SOL    HW2 9318   2.877   2.499   4.819  0.2068  0.0994  0.8621
 2914SOL     OW 9319   4.393   3.817   1.433 -0.2766 -0.5782  0.1410
 2914SOL    HW1 9320   4.474   3.866   1.424 -1.4019  1.9064  2.2206
 2914SOL    HW2 9321   4.325   3.877   1.402 -1.7037 -0.7670  2.6367
 2915SOL     OW 9322   8.496   1.568   1.397 -0.0444 -0.1675 -0.5009
 2915SOL    HW1 9323   8.570   1.629   1.401 -1.3469  1.4212  0.7399
 2915SOL    HW2 9324   8.435   1.609   1.336 -0.9394 -0.1832  0.3602
 2916SOL     OW 9325   3.270   2.905   1.085 -0.3928  0.2782 -0.2176
 2916SOL    HW1 9326   3.336   2.968   1.113 -0.3299  1.0741 -2.0350
 2916SOL    HW2 9327   3.320   2.835   1.042 -0.6965  0.7928 -1.4344
 2917SOL     OW 9328   6.853   6.165   5.248 -0.3455 -0.1080  0.4864
 2917SOL    HW1 9329   6.780   6.227   5.251  0.1338  0.4869  0.1606
 2917SOL    HW2 9330   6.922   6.207   5.299  0.9671  0.9548 -2.0204
 2918SOL     OW 9331   1.032   4.050   5.905  0.4596  0.7224 -0.1567
 2918SOL    HW1 9332   0.953   4.006   5.935 -1.6507  3.0375 -1.9290
 2918SOL    HW2 9333   1.035   4.130   5.956  0.2452  1.7915 -1.7626
 2919SOL     OW 9334   7.662   6.175   0.999 -0.0051 -0.2282 -0.4776
 2919SOL    HW1 9335   7.677   6.234   0.925 -0.4749  1.3978  0.6870
 2919SOL    HW2 9336   7.580   6.205   1.038 -2.0271 -3.6126 -1.6585
 2920SOL     OW 9337   3.679  -0.016   2.332 -0.3638  0.6723 -0.2476
 2920SOL    HW1 9338   3.598  -0.034   2.284 -0.8337  1.9111  0.0469
 2920SOL    HW2 9339   3.674   0.077   2.354 -0.5394  0.0479  2.8168
 2921SOL     OW 9340   0.861   6.110   0.644 -0.4654  0.1736  0.5960
 2921SOL    HW1 9341   0.770   6.084   0.660 -0.5790  0.5223  0.5282
 2921SOL    HW2 9342   0.902   6.033   0.605 -0.3769 -0.4435  1.8737
 2922SOL     OW 9343   7.245   0.466   9.666  0.0335 -0.1214 -0.4865
 2922SOL    HW1 9344   7.170   0.445   9.611 -0.6651  2.7608 -0.7747
 2922SOL    HW2 9345   7.222   0.431   9.752 -0.7558 -0.9229 -0.9989
 2923SOL     OW 9346   9.572   8.250   5.456  0.1039  0.4410 -0.0457
 2923SOL    HW1 9347   9.648   8.267   5.512 -0.1337 -0.0919  0.4515
 2923SOL    HW2 9348   9.497   8.269   5.512 -0.1339  0.3906 -0.3473
 2924SOL     OW 9349   0.228   7.486   3.160 -0.0234  0.6309 -0.0116
 2924SOL    HW1 9350   0.247   7.537   3.238 -0.3030 -0.6506  0.9266
 2924SOL    HW2 9351   0.144   7.444   3.178 -0.2135  0.4998 -1.1041
 2925SOL     OW 9352   6.288   6.267   3.900  0.4433  0.4649  0.0137
 2925SOL    HW1 9353   6.362   6.239   3.847 -0.3554 -0.0200 -0.8738
 2925SOL    HW2 9354   6.237   6.324   3.842 -0.6348 -0.3604  0.1165
 2926SOL     OW 9355   1.193   1.517   7.591  0.0751 -1.1874  0.6696
 2926SOL    HW1 9356   1.204   1.531   7.497  0.7237  1.3742  1.0603
 2926SOL    HW2 9357   1.282   1.511   7.625 -0.0658  0.1940  1.3637
 2927SOL     OW 9358   7.429   7.626   0.969 -0.1720  0.1558 -0.3341
 2927SOL    HW1 9359   7.440   7.531   0.966  1.6620  0.3356 -0.1385
 2927SOL    HW2 9360   7.511   7.659   1.005 -0.5400  1.8675 -0.9667
 2928SOL     OW 9361   6.120   3.669   2.512  0.2424 -0.5241  0.6457
 2928SOL    HW1 9362   6.125   3.755   2.554  0.6680 -0.0483 -0.3428
 2928SOL    HW2 9363   6.203   3.627   2.533  1.2755  0.4602 -1.2313
 2929SOL     OW 9364   1.528   7.088   3.762  0.1827 -0.3975 -0.2909
 2929SOL    HW1 9365   1.533   7.042   3.679 -0.0212 -0.7048 -0.1344
 2929SOL    HW2 9366   1.617   7.086   3.796  0.2787 -0.2208 -0.5255
 2930SOL     OW 9367   9.047   3.408   4.412  0.5293  0.2387  0.2102
 2930SOL    HW1 9368   9.125   3.408   4.467  0.8246  0.4955 -0.2018
 2930SOL    HW2 9369   9.028   3.501   4.398 -0.5979  0.2085  1.3485
 2931SOL     OW 9370   7.725   7.079   2.015 -0.6230  0.1058 -0.0801
 2931SOL    HW1 9371   7.693   7.094   2.104  0.1929  3.5121 -0.2410
 2931SOL    HW2 9372   7.809   7.034   2.026 -0.1408  1.2201  0.9612
 2932SOL     OW 9373   7.811   5.494   5.162 -0.7634  0.0362 -0.3315
 2932SOL    HW1 9374   7.749   5.424   5.181  0.4315 -0.7563  0.8598
 2932SOL    HW2 9375   7.823   5.492   5.067 -0.0193 -2.0720 -0.2394
 2933SOL     OW 9376   0.965   4.281   5.309 -0.4727  0.0519 -0.1343
 2933SOL    HW1 9377   0.921   4.199   5.334  0.9144 -0.4647  0.7018
 2933SOL    HW2 9378   0.920   4.349   5.359 -1.3510 -0.2470 -0.5008
 2934SOL     OW 9379   0.254   6.490   1.918  0.5207  0.7530  0.2901
 2934SOL    HW1 9380   0.292   6.525   1.999 -2.0067  0.3919  1.7306
 2934SOL    HW2 9381   0.209   6.410   1.945 -2.6642  1.9992 -0.8832
 2935SOL     OW 9382   6.216   3.076   2.743 -0.7328 -0.6006 -0.1491
 2935SOL    HW1 9383   6.248   3.048   2.657  2.3114 -1.3545  1.1070
 2935SOL    HW2 9384   6.210   3.171   2.736  1.9608 -0.3700 -0.5677
 2936SOL     OW 9385   5.186   0.356   8.383 -1.2212  0.3470 -0.3930
 2936SOL    HW1 9386   5.224   0.340   8.296  1.6815 -1.2755  1.0212
 2936SOL    HW2 9387   5.123   0.285   8.396  0.6627 -1.3407 -0.0191
 2937SOL     OW 9388   9.857   0.143   4.723 -0.7502  0.2693 -0.0967
 2937SOL    HW1 9389   9.825   0.185   4.643  1.7000  0.3286 -1.1231
 2937SOL    HW2 9390   9.872   0.215   4.784  1.0609  0.6902 -0.9807
 2938SOL     OW 9391   7.583   7.450   4.468 -0.3538  0.4501 -0.5224
 2938SOL    HW1 9392   7.534   7.474   4.546 -0.1022  1.6545 -0.7239
 2938SOL    HW2 9393   7.674   7.466   4.490 -0.3554  1.7656 -1.3798
 2939SOL     OW 9394   2.464   6.654   4.038  0.2002 -0.4837 -0.0857
 2939SOL    HW1 9395   2.387   6.708   4.055  2.2353  2.2567  1.3427
 2939SOL    HW2 9396   2.431   6.565   4.034 -3.0629  0.5902 -0.0146
 2940SOL     OW 9397   4.477   2.078   4.474  0.1522 -0.3596  0.0359
 2940SOL    HW1 9398   4.541   2.075   4.544  1.0382  0.0358 -0.7365
 2940SOL    HW2 9399   4.527   2.056   4.395 -0.2249  1.8574 -0.8790
 2941SOL     OW 9400   4.356   0.891   6.235  0.1431  0.5762  0.0957
 2941SOL    HW1 9401   4.355   0.847   6.150  1.0129 -1.9412  1.2993
 2941SOL    HW2 9402   4.317   0.827   6.295 -0.2058  2.1910  1.6549
 2942SOL     OW 9403   0.185   7.005   0.890  0.1715 -0.1827 -0.1535
 2942SOL    HW1 9404   0.120   7.068   0.859  0.6616  1.5928  2.1484
 2942SOL    HW2 9405   0.267   7.033   0.850  0.1029 -0.4852 -0.5224
 2943SOL     OW 9406   3.540   3.707   5.183  0.0404  0.2997  0.4067
 2943SOL    HW1 9407   3.478   3.778   5.205 -0.2556  0.0822  0.2834
 2943SOL    HW2 9408   3.617   3.726   5.236 -0.2492  0.4017  0.8018
 2944SOL     OW 9409   7.731   5.687   7.672 -0.4841 -0.1838  0.0376
 2944SOL    HW1 9410   7.811   5.732   7.645 -0.5370 -0.4385 -0.5615
 2944SOL    HW2 9411   7.660   5.737   7.631 -0.5214 -1.0325 -0.9737
 2945SOL     OW 9412   9.155   1.245   9.917 -0.3143 -0.8888  0.1117
 2945SOL    HW1 9413   9.138   1.337   9.939 -0.8133 -1.3117  1.6541
 2945SOL    HW2 9414   9.215   1.215   9.985 -1.6420 -2.1898  0.7629
 2946SOL     OW 9415   2.028   4.550   2.474 -0.6930  0.5257  0.0061
 2946SOL    HW1 9416   2.038   4.485   2.406  1.5785  1.1968 -0.3855
 2946SOL    HW2 9417   1.934   4.555   2.490 -1.2390  0.0104 -2.7169
 2947SOL     OW 9418   2.741   4.050   2.989  0.0736  0.0723 -0.0245
 2947SOL    HW1 9419   2.658   4.083   2.955  0.2123  1.6666  1.0719
 2947SOL    HW2 9420   2.793   4.030   2.911 -0.8283  0.3942 -0.7222
 2948SOL     OW 9421   9.152   6.054   7.093 -0.1443  0.5259  0.2983
 2948SOL    HW1 9422   9.195   5.969   7.103 -1.1423 -0.3298 -2.0095
 2948SOL    HW2 9423   9.210   6.116   7.138  1.2378 -1.1734  0.9789
 2949SOL     OW 9424   7.834   0.490   9.397 -0.1908  0.0347 -0.1508
 2949SOL    HW1 9425   7.930   0.490   9.396 -0.1936  0.4797 -1.3971
 2949SOL    HW2 9426   7.809   0.562   9.339 -1.2887  0.6762  1.0560
 2950SOL     OW 9427   2.682   0.160   5.165  0.2969  0.2643 -0.0213
 2950SOL    HW1 9428   2.660   0.210   5.244  0.5633 -0.7816  0.7345
 2950SOL    HW2 9429   2.597   0.143   5.124 -0.0401 -0.7988  1.0595
 2951SOL     OW 9430   3.481   2.051   7.747 -0.2707  0.2345 -0.4353
 2951SOL    HW1 9431   3.527   1.968   7.741 -0.6578 -0.1332  1.2234
 2951SOL    HW2 9432   3.550   2.117   7.756  0.0402  0.1245 -1.8356
 2952SOL     OW 9433   0.967   7.603   8.617 -0.2895 -0.8304  0.5463
 2952SOL    HW1 9434   1.047   7.619   8.666 -0.8581  0.1014  1.2137
 2952SOL    HW2 9435   0.995   7.553   8.541  0.7767 -1.3395  1.2493
 2953SOL     OW 9436   4.329   1.336   9.917 -0.6367  0.9415  0.0173
 2953SOL    HW1 9437   4.247   1.383   9.926 -1.1739 -0.2904  2.3161
 2953SOL    HW2 9438   4.372   1.345  10.002  0.8530  0.1884 -0.6029
 2954SOL     OW 9439   4.514   2.481   4.981  0.4270  0.6071  0.0321
 2954SOL    HW1 9440   4.481   2.447   5.064 -0.5836  0.8179 -0.2694
 2954SOL    HW2 9441   4.597   2.435   4.967  0.4683  0.3674  1.0168
 2955SOL     OW 9442   5.187   5.599   1.689 -0.2426  0.0700  0.5170
 2955SOL    HW1 9443   5.096   5.601   1.661 -0.3824  0.8620  1.0235
 2955SOL    HW2 9444   5.232   5.551   1.619 -0.8648  0.5677 -0.2342
 2956SOL     OW 9445   4.216   5.448   2.606 -0.4027  0.4115  0.0216
 2956SOL    HW1 9446   4.179   5.400   2.532 -0.1256 -0.7772  0.6137
 2956SOL    HW2 9447   4.289   5.498   2.569  1.1207 -1.8200 -0.2425
 2957SOL     OW 9448   0.471   6.276   1.705 -0.0943 -0.8804 -0.1080
 2957SOL    HW1 9449   0.536   6.340   1.735 -1.0653  0.4597 -0.7655
 2957SOL    HW2 9450   0.420   6.323   1.639 -3.0442 -1.1937  1.7886
 2958SOL     OW 9451   3.374   3.319   0.123 -0.0536  0.2646  0.5115
 2958SOL    HW1 9452   3.372   3.274   0.038 -1.0702 -2.4942  1.8931
 2958SOL    HW2 9453   3.377   3.249   0.188 -1.6945  2.1998  2.8717
 2959SOL     OW 9454   9.266   2.766   0.107  0.0333  0.3588 -0.0224
 2959SOL    HW1 9455   9.250   2.742   0.198 -0.4338 -0.4027 -0.2873
 2959SOL    HW2 9456   9.332   2.702   0.077 -0.3367  0.1487 -0.4058
 2960SOL     OW 9457   4.600   6.793   7.329  0.1918  0.1834 -0.8174
 2960SOL    HW1 9458   4.688   6.758   7.346  0.8085  2.9422  2.9321
 2960SOL    HW2 9459   4.613   6.858   7.260  1.1236  0.4633 -0.3965
 2961SOL     OW 9460   6.581   7.459   3.180  0.1814  0.1715  0.2019
 2961SOL    HW1 9461   6.673   7.459   3.204 -0.2801 -0.1062  2.1782
 2961SOL    HW2 9462   6.535   7.438   3.262 -1.4603 -3.4851 -1.4353
 2962SOL     OW 9463   7.523   1.323   9.386  0.2820  0.1902 -0.0583
 2962SOL    HW1 9464   7.573   1.254   9.341  0.6944  1.8880 -2.4205
 2962SOL    HW2 9465   7.590   1.374   9.432  0.5987  1.3882 -1.7355
 2963SOL     OW 9466   1.761   6.800   7.214 -0.0853 -0.3782  0.5404
 2963SOL    HW1 9467   1.815   6.858   7.161  1.2964 -0.7793  1.4714
 2963SOL    HW2 9468   1.791   6.712   7.191 -0.9585 -0.6550  0.4295
 2964SOL     OW 9469   5.293   0.837   0.528  0.8321  0.3128 -0.4511
 2964SOL    HW1 9470   5.378   0.799   0.551  1.5242  1.7813 -0.5128
 2964SOL    HW2 9471   5.284   0.820   0.434 -0.1143 -2.0109 -0.0279
 2965SOL     OW 9472   9.892   2.731   9.613  0.4393 -0.2372  0.1526
 2965SOL    HW1 9473   9.856   2.816   9.638  1.6310 -0.0618  1.3713
 2965SOL    HW2 9474   9.853   2.670   9.675  0.2785 -0.4465 -0.1525
 2966SOL     OW 9475   8.558   3.641   5.284  0.8816 -0.2592 -0.0504
 2966SOL    HW1 9476   8.468   3.630   5.313  0.2773  0.6841 -1.4436
 2966SOL    HW2 9477   8.566   3.734   5.264  1.3694 -0.7111 -2.3111
 2967SOL     OW 9478   7.085   7.768   6.373  0.0675  0.0998 -0.5136
 2967SOL    HW1 9479   7.098   7.727   6.288  0.9580  0.2952 -0.4815
 2967SOL    HW2 9480   7.100   7.861   6.358  3.1654 -0.1435  0.3734
 2968SOL     OW 9481   6.084   9.218   7.092 -0.4190 -0.6838  0.1859
 2968SOL    HW1 9482   6.010   9.277   7.079  0.4366  0.3408 -0.1784
 2968SOL    HW2 9483   6.076   9.154   7.021 -0.8663 -0.4943  0.0641
 2969SOL     OW 9484   7.660   4.637   1.647 -0.3639 -0.5689  0.2771
 2969SOL    HW1 9485   7.582   4.646   1.701  1.1403 -0.5456  2.6188
 2969SOL    HW2 9486   7.691   4.726   1.634 -0.6812 -0.5797 -0.6175
 2970SOL     OW 9487   9.181   9.277   6.310  0.0848  0.4218  0.7297
 2970SOL    HW1 9488   9.184   9.368   6.340  0.7125  0.4447  0.6139
 2970SOL    HW2 9489   9.272   9.247   6.314 -0.1980 -0.4099  1.4049
 2971SOL     OW 9490   2.876   0.678   4.533  0.2646 -0.3240 -0.2371
 2971SOL    HW1 9491   2.963   0.639   4.538 -0.1356 -1.3616 -1.1932
 2971SOL    HW2 9492   2.890   0.764   4.492  0.8972 -0.2602  0.1077
 2972SOL     OW 9493   9.186   5.329   1.490  0.3002  0.1715 -0.7520
 2972SOL    HW1 9494   9.179   5.342   1.585  1.4680  1.1892 -0.7889
 2972SOL    HW2 9495   9.097   5.307   1.463 -0.0310 -0.2859  0.5928
 2973SOL     OW 9496   6.304   2.388   3.658  0.2692 -0.3789 -0.1328
 2973SOL    HW1 9497   6.290   2.426   3.571 -0.0885 -1.4237 -0.5380
 2973SOL    HW2 9498   6.396   2.407   3.678  0.1187  0.6414 -0.3454
 2974SOL     OW 9499   6.950   3.110   0.172 -0.4063  0.0136 -0.2789
 2974SOL    HW1 9500   6.966   3.036   0.114 -0.9423  0.6891 -1.3148
 2974SOL    HW2 9501   6.881   3.079   0.231 -2.3537  0.4034 -2.2079
 2975SOL     OW 9502   2.755   7.305   2.477 -0.1088 -0.3418  0.1355
 2975SOL    HW1 9503   2.794   7.257   2.550 -0.7825 -1.7425 -0.3906
 2975SOL    HW2 9504   2.824   7.310   2.411  0.3504  0.5142  0.6642
 2976SOL     OW 9505   7.840   7.682   9.263 -0.7567 -0.1153  0.2710
 2976SOL    HW1 9506   7.749   7.677   9.234 -0.6120  1.2365 -0.5227
 2976SOL    HW2 9507   7.835   7.733   9.344 -0.7050  0.1037  0.1397
 2977SOL     OW 9508   6.037   5.018   5.876  0.2444  0.0747 -0.2145
 2977SOL    HW1 9509   6.012   5.093   5.930  0.6511 -0.1360  0.2804
 2977SOL    HW2 9510   5.958   4.994   5.828  0.2065  1.0451 -0.6456
 2978SOL     OW 9511   3.439   1.440   3.001 -0.9095  0.1095 -0.2737
 2978SOL    HW1 9512   3.382   1.496   3.054 -0.5011  0.9787 -0.7450
 2978SOL    HW2 9513   3.384   1.409   2.930 -1.0649  0.1244 -0.1599
 2979SOL     OW 9514   1.807   9.614   0.079  0.1151 -0.3993  0.1704
 2979SOL    HW1 9515   1.730   9.643   0.127  1.6357  4.0060  0.3984
 2979SOL    HW2 9516   1.876   9.610   0.146  1.2215  1.1528 -0.8154
 2980SOL     OW 9517   1.574   7.465   8.217  0.1680 -0.0158  0.3605
 2980SOL    HW1 9518   1.611   7.491   8.301 -0.6602  1.5649  0.2806
 2980SOL    HW2 9519   1.602   7.535   8.157 -0.0437 -0.6303 -0.4706
 2981SOL     OW 9520   7.892   8.287   3.549  0.4637 -0.1039 -0.3309
 2981SOL    HW1 9521   7.890   8.194   3.528 -2.3066  0.0007 -0.9475
 2981SOL    HW2 9522   7.964   8.322   3.497 -0.9400 -1.2728 -3.2465
 2982SOL     OW 9523   3.135   1.473   4.962 -0.0873  0.3905 -0.1111
 2982SOL    HW1 9524   3.215   1.427   4.986 -1.5737 -1.3421  1.9000
 2982SOL    HW2 9525   3.153   1.565   4.981  1.9701  0.3035 -1.3882
 2983SOL     OW 9526   2.515   8.101   7.303 -0.3998 -0.2946 -0.1145
 2983SOL    HW1 9527   2.425   8.134   7.309 -0.6381 -1.0644  0.8334
 2983SOL    HW2 9528   2.529   8.056   7.386  0.7713 -0.4205 -0.3716
 2984SOL     OW 9529   5.977   3.730   9.978 -0.1613 -0.6017  0.0227
 2984SOL    HW1 9530   6.006   3.649  10.021  0.5314 -0.7824 -0.7624
 2984SOL    HW2 9531   6.056   3.765   9.937 -0.3790  0.6747  0.6543
 2985SOL     OW 9532   8.139   4.398   6.877  1.0661  0.2594 -0.0501
 2985SOL    HW1 9533   8.076   4.349   6.930  1.5674  1.7059  1.9495
 2985SOL    HW2 9534   8.156   4.340   6.802  0.2931 -1.8197  1.2952
 2986SOL     OW 9535   8.789   4.993   8.278 -0.5854 -0.0596  0.1716
 2986SOL    HW1 9536   8.827   4.906   8.263  1.8438  1.0118 -0.3325
 2986SOL    HW2 9537   8.697   4.983   8.253 -0.0695 -2.1599 -1.1810
 2987SOL     OW 9538   6.026   3.803   0.655  0.3215  0.1356  0.1166
 2987SOL    HW1 9539   6.041   3.711   0.635 -0.5189  0.0314 -0.0464
 2987SOL    HW2 9540   5.993   3.841   0.573 -0.3918  0.3341  0.4881
 2988SOL     OW 9541   2.956   8.885   4.959  0.1727 -0.1212  0.2701
 2988SOL    HW1 9542   3.004   8.849   4.885 -0.0965 -0.3126  0.1851
 2988SOL    HW2 9543   2.868   8.902   4.925 -0.0777 -0.6125  0.6526
 2989SOL     OW 9544   2.867   2.232   5.056 -0.4293 -0.1869 -0.0116
 2989SOL    HW1 9545   2.879   2.158   5.115  0.9708 -0.2608 -0.3564
 2989SOL    HW2 9546   2.799   2.286   5.098  0.1868 -0.4781  1.4157
 2990SOL     OW 9547   3.056   0.205   6.022 -0.3527  0.0324  0.5189
 2990SOL    HW1 9548   2.974   0.250   6.043 -2.4287 -2.9584 -0.5146
 2990SOL    HW2 9549   3.101   0.197   6.106 -1.3433  1.2415  1.2102
 2991SOL     OW 9550   9.213   2.949   9.666 -0.0939  0.1617  0.3021
 2991SOL    HW1 9551   9.272   2.975   9.595 -0.1462  2.0538  0.8861
 2991SOL    HW2 9552   9.155   3.024   9.677 -2.0876 -1.3154  0.3291
 2992SOL     OW 9553   4.242   6.809   5.120  0.1310  0.6170 -0.1587
 2992SOL    HW1 9554   4.198   6.733   5.157  0.9152  0.1005 -0.2807
 2992SOL    HW2 9555   4.175   6.879   5.123 -1.2456 -0.5412 -1.8780
 2993SOL     OW 9556   9.127   4.164   6.745  0.0220 -0.0678 -0.3957
 2993SOL    HW1 9557   9.068   4.199   6.679 -0.4298 -0.4892 -0.2195
 2993SOL    HW2 9558   9.086   4.185   6.829 -0.2851 -1.0588 -0.2881
 2994SOL     OW 9559   9.319   2.537   4.034  0.3464 -0.4787 -0.1071
 2994SOL    HW1 9560   9.362   2.614   3.995  0.3450 -0.5065 -0.1637
 2994SOL    HW2 9561   9.259   2.573   4.099  1.1286 -0.4755  0.6329
 2995SOL     OW 9562   6.926   1.499   3.890  0.0308 -0.1489  0.3019
 2995SOL    HW1 9563   6.907   1.590   3.868  0.9566 -0.4885 -2.2243
 2995SOL    HW2 9564   6.844   1.465   3.926 -0.8384  1.2528 -0.2747
 2996SOL     OW 9565   6.817   5.616   6.541 -0.2643  0.1290 -0.1088
 2996SOL    HW1 9566   6.847   5.706   6.552  0.1965  0.0328 -0.5308
 2996SOL    HW2 9567   6.790   5.611   6.450 -1.3133  0.1334  0.1936
 2997SOL     OW 9568   1.573   0.830   6.950  0.5116 -0.0618  0.3463
 2997SOL    HW1 9569   1.575   0.873   6.864  1.7436 -2.7217 -1.0794
 2997SOL    HW2 9570   1.659   0.847   6.988  1.7796 -2.7215 -1.1036
 2998SOL     OW 9571   8.090   1.724   4.770 -0.1598  0.1204  1.0552
 2998SOL    HW1 9572   8.170   1.682   4.737 -0.8836  0.5611 -1.4822
 2998SOL    HW2 9573   8.026   1.654   4.773 -0.2855  0.2221  0.7999
 2999SOL     OW 9574   8.055   0.939   7.684  0.9966 -0.4562  0.4088
 2999SOL    HW1 9575   8.034   0.961   7.593 -0.6853 -0.3106  0.8024
 2999SOL    HW2 9576   8.052   0.844   7.687 -0.5058 -0.4265  0.6231
 3000SOL     OW 9577   7.195   4.456   8.475  0.2864  0.2786  0.1531
 3000SOL    HW1 9578   7.177   4.374   8.522 -0.2542 -0.3071 -1.0441
 3000SOL    HW2 9579   7.258   4.431   8.407  1.4962  1.2354  0.8836
 3001SOL     OW 9580   3.299   3.207   4.069 -0.4512 -0.0513  0.1569
 3001SOL    HW1 9581   3.369   3.214   4.005  0.1460  1.7163  0.9459
 3001SOL    HW2 9582   3.339   3.161   4.143 -0.5260 -0.2445  0.0776
 3002SOL     OW 9583   2.955   7.754   5.961 -0.1768  0.2168 -0.5249
 3002SOL    HW1 9584   2.961   7.669   5.916 -0.6383 -0.1635  0.1141
 3002SOL    HW2 9585   2.868   7.787   5.939 -0.2169  0.2545 -0.3137
 3003SOL     OW 9586   7.663   4.561   2.246 -0.1175  0.4977  0.1722
 3003SOL    HW1 9587   7.658   4.604   2.331 -1.5511  1.0969 -0.1822
 3003SOL    HW2 9588   7.620   4.622   2.186  0.7337  0.0162 -0.9647
 3004SOL     OW 9589   2.429   3.884   6.274 -0.2822 -0.3232  0.6055
 3004SOL    HW1 9590   2.521   3.897   6.253 -0.1421 -2.5730 -0.3968
 3004SOL    HW2 9591   2.420   3.915   6.364  1.2902  0.5157  0.4970
 3005SOL     OW 9592   6.585   1.933   5.381 -0.3075 -1.0216  0.4558
 3005SOL    HW1 9593   6.510   1.958   5.327 -1.3376  0.4451  2.4138
 3005SOL    HW2 9594   6.659   1.930   5.321 -1.7515 -1.6701 -1.3898
 3006SOL     OW 9595   6.450   7.132   0.738  0.1235 -0.8492  0.2423
 3006SOL    HW1 9596   6.493   7.208   0.699  0.0546  0.6039  2.8157
 3006SOL    HW2 9597   6.518   7.065   0.741  1.1298  0.1532  0.7498
 3007SOL     OW 9598   4.118   8.947   7.890 -0.6051 -0.6152  0.0042
 3007SOL    HW1 9599   4.210   8.934   7.914 -0.6486 -0.9394  0.0008
 3007SOL    HW2 9600   4.095   9.032   7.928 -0.6263 -1.0463  1.0003
 3008SOL     OW 9601   0.414   7.228   2.256 -0.1053  0.2103  0.0250
 3008SOL    HW1 9602   0.466   7.301   2.222  0.0520 -0.4719 -1.2761
 3008SOL    HW2 9603   0.478   7.170   2.297 -0.1735  0.5615  0.6452
 3009SOL     OW 9604   5.232   7.414   0.457  0.3802  1.0292 -0.0202
 3009SOL    HW1 9605   5.191   7.483   0.510  0.4654  0.4182  0.8479
 3009SOL    HW2 9606   5.324   7.415   0.483  0.6500  1.4401 -0.9424
 3010SOL     OW 9607   0.125   2.037   0.628  0.0016  0.0626 -0.0508
 3010SOL    HW1 9608   0.178   2.102   0.674 -1.0088  0.9270 -0.0584
 3010SOL    HW2 9609   0.050   2.021   0.687  0.8212 -2.0400  0.5231
 3011SOL     OW 9610   5.625   4.980   4.384  0.8207 -0.1921  0.3145
 3011SOL    HW1 9611   5.673   4.974   4.467 -0.1905 -0.8535  0.8719
 3011SOL    HW2 9612   5.666   5.053   4.338  1.6980 -0.0994  1.1982
 3012SOL     OW 9613   9.070   4.864   9.222  0.1092 -0.0873  0.4018
 3012SOL    HW1 9614   9.103   4.777   9.201 -0.0760  0.1044 -0.7689
 3012SOL    HW2 9615   9.052   4.904   9.137 -3.5304 -0.3287  0.8896
 3013SOL     OW 9616   1.792   7.342   2.435  0.4065 -0.1509  1.0963
 3013SOL    HW1 9617   1.834   7.406   2.493 -0.1493  0.1658  1.1529
 3013SOL    HW2 9618   1.722   7.304   2.487  0.5434 -0.5964  0.9622
 3014SOL     OW 9619   3.057   2.486   5.350  0.0849 -0.8529  0.3070
 3014SOL    HW1 9620   3.049   2.545   5.275  0.7490 -1.2414 -0.0856
 3014SOL    HW2 9621   2.968   2.475   5.382 -0.1964 -0.6026 -0.3657
 3015SOL     OW 9622   6.957   4.060   9.177 -0.1218 -0.6249 -0.0469
 3015SOL    HW1 9623   6.880   4.107   9.145 -0.1512 -0.7446 -0.1536
 3015SOL    HW2 9624   6.954   3.976   9.131  0.0418 -0.6513 -0.0083
 3016SOL     OW 9625   6.629   9.482   8.972 -0.6270  0.1058  0.1017
 3016SOL    HW1 9626   6.621   9.568   9.011 -0.6037  1.0525 -1.8655
 3016SOL    HW2 9627   6.544   9.466   8.931  0.7203  1.3263 -3.5226
 3017SOL     OW 9628   9.812   9.247   0.988 -0.2044 -0.0508 -0.7675
 3017SOL    HW1 9629   9.813   9.257   0.892  1.1770 -1.5423 -0.9407
 3017SOL    HW2 9630   9.801   9.153   1.002 -0.8682  0.2070  0.5767
 3018SOL     OW 9631   9.738   8.044   7.284  0.4967 -0.2673 -0.2886
 3018SOL    HW1 9632   9.752   8.058   7.377  2.1703 -0.0446 -0.5409
 3018SOL    HW2 9633   9.647   8.071   7.269  0.2394 -0.2036  1.2437
 3019SOL     OW 9634   6.847   4.808   4.089  0.4625  0.7494 -0.1370
 3019SOL    HW1 9635   6.819   4.885   4.039  0.4925  1.1640  0.4806
 3019SOL    HW2 9636   6.846   4.737   4.025  1.0912  1.3938 -0.8767
 3020SOL     OW 9637   4.403   2.123   3.577 -0.3248  0.3493 -0.4430
 3020SOL    HW1 9638   4.388   2.133   3.671 -0.7711  0.7396 -0.5509
 3020SOL    HW2 9639   4.395   2.029   3.561 -1.7631  0.4284 -0.3286
 3021SOL     OW 9640   5.142   4.054   8.395  0.2264  0.3707 -0.1910
 3021SOL    HW1 9641   5.218   4.026   8.446  0.1923  0.4892 -0.0730
 3021SOL    HW2 9642   5.110   3.974   8.353 -1.0076 -0.1624  1.6353
 3022SOL     OW 9643   7.758   3.068   6.477  0.1214  0.0482 -0.5865
 3022SOL    HW1 9644   7.800   3.126   6.414 -0.0205  1.2580  0.4071
 3022SOL    HW2 9645   7.802   3.086   6.560 -0.6102 -0.5271 -0.0572
 3023SOL     OW 9646   1.692   8.962   5.559  0.8754  0.3506  0.3443
 3023SOL    HW1 9647   1.681   8.932   5.649  2.4575 -0.8187  0.1850
 3023SOL    HW2 9648   1.644   8.899   5.506  2.3444 -0.6760  0.1813
 3024SOL     OW 9649   5.752   1.648   5.734 -0.8744 -0.6421 -0.8799
 3024SOL    HW1 9650   5.759   1.555   5.753  1.0441 -0.0296  2.1668
 3024SOL    HW2 9651   5.668   1.674   5.771 -0.7057 -0.9187 -0.2798
 3025SOL     OW 9652   9.423   1.061   0.326 -0.1549 -0.4934 -0.0753
 3025SOL    HW1 9653   9.419   0.977   0.371  2.1105 -0.0163  1.1560
 3025SOL    HW2 9654   9.362   1.117   0.374  0.2818 -0.7215  0.7592
 3026SOL     OW 9655   4.691   3.714   5.242  0.6332  0.5951 -0.1163
 3026SOL    HW1 9656   4.636   3.725   5.164  0.2491 -0.9003 -0.0919
 3026SOL    HW2 9657   4.639   3.752   5.313  0.3129  0.6084 -0.3553
 3027SOL     OW 9658   6.347   1.502   4.779 -0.4646 -0.2887  0.0264
 3027SOL    HW1 9659   6.279   1.445   4.816  0.3113  0.3762  2.7270
 3027SOL    HW2 9660   6.427   1.450   4.783 -0.6760 -1.0264 -3.0314
 3028SOL     OW 9661   6.914   4.687   7.708  0.1619  0.1298 -0.2334
 3028SOL    HW1 9662   6.853   4.750   7.668  1.8977  2.6562  0.8297
 3028SOL    HW2 9663   7.001   4.723   7.691  1.2194 -1.6847  0.9876
 3029SOL     OW 9664   6.221   6.737   6.855  0.5589  0.1480  0.1532
 3029SOL    HW1 9665   6.203   6.709   6.765 -2.3633 -1.1458  1.0310
 3029SOL    HW2 9666   6.149   6.796   6.878 -0.5509 -1.9362  2.5586
 3030SOL     OW 9667   1.343   5.659   9.606 -0.3452  0.1744  0.3323
 3030SOL    HW1 9668   1.343   5.572   9.566 -1.3511 -0.8036  2.3382
 3030SOL    HW2 9669   1.299   5.715   9.541  1.3042 -0.5127 -1.4684
 3031SOL     OW 9670   0.778   8.950   1.985 -0.1076  0.2770  0.0884
 3031SOL    HW1 9671   0.828   9.024   2.020 -1.3234  0.6226  1.2107
 3031SOL    HW2 9672   0.688   8.968   2.012 -0.6088 -1.0479 -0.6119
 3032SOL     OW 9673   2.659   4.033   6.107  0.4700 -0.2918 -0.1329
 3032SOL    HW1 9674   2.726   3.972   6.139  2.6122  0.3263 -3.0094
 3032SOL    HW2 9675   2.706   4.115   6.094 -1.4125  0.8245 -0.1838
 3033SOL     OW 9676   0.015   1.415   7.565  0.1392 -0.4003  0.0351
 3033SOL    HW1 9677   0.057   1.338   7.602 -0.2229 -1.1936 -1.1436
 3033SOL    HW2 9678  -0.010   1.468   7.641 -0.8447 -2.0893  0.9427
 3034SOL     OW 9679   6.295   1.014   4.444  0.2467 -0.1287 -0.3524
 3034SOL    HW1 9680   6.376   1.031   4.395 -0.1072  0.1100 -0.8580
 3034SOL    HW2 9681   6.324   1.009   4.535  0.6507  1.2926 -0.3761
 3035SOL     OW 9682   6.315   4.649   7.406  1.0044 -0.3245  0.0337
 3035SOL    HW1 9683   6.273   4.716   7.352 -0.8141 -1.5535 -0.1458
 3035SOL    HW2 9684   6.393   4.624   7.356  0.2192 -0.2953 -1.2457
 3036SOL     OW 9685   9.273   2.524   7.893 -0.0984  0.6107  0.0618
 3036SOL    HW1 9686   9.249   2.443   7.937  1.1350  0.7888  1.0945
 3036SOL    HW2 9687   9.190   2.557   7.858 -0.5412 -1.3541 -0.8782
 3037SOL     OW 9688   6.479   0.474   8.685 -0.5469  0.1926  0.0883
 3037SOL    HW1 9689   6.548   0.539   8.700 -1.8281  1.5835  0.2430
 3037SOL    HW2 9690   6.511   0.422   8.610  0.3855  1.1890 -0.2415
 3038SOL     OW 9691   5.668   9.129   5.522 -0.2617 -0.0248  0.0103
 3038SOL    HW1 9692   5.689   9.200   5.462 -0.4585  2.3685  2.5705
 3038SOL    HW2 9693   5.576   9.110   5.507 -0.7956  1.8312  0.7437
 3039SOL     OW 9694   4.761   7.675   8.063  0.2348  0.4094 -0.0049
 3039SOL    HW1 9695   4.702   7.603   8.085  0.7518 -0.1441 -0.3826
 3039SOL    HW2 9696   4.848   7.637   8.069  0.4720  0.7006 -1.2905
 3040SOL     OW 9697   2.281   2.775   2.690  0.7632 -0.5692  0.2741
 3040SOL    HW1 9698   2.245   2.692   2.722  0.5314 -0.7313 -0.3896
 3040SOL    HW2 9699   2.301   2.758   2.598  1.9172 -0.2720  0.4563
 3041SOL     OW 9700   7.941   2.159   3.386  0.1477  0.1360 -0.0021
 3041SOL    HW1 9701   7.940   2.169   3.291 -1.3547  0.1470 -0.0171
 3041SOL    HW2 9702   7.953   2.248   3.419  1.9282 -0.0180 -0.1619
 3042SOL     OW 9703   7.584   9.366   7.929  0.0704 -0.1567  0.7227
 3042SOL    HW1 9704   7.509   9.400   7.978 -0.4645 -1.8995  1.1940
 3042SOL    HW2 9705   7.546   9.310   7.862  0.9315 -0.5579  0.5476
 3043SOL     OW 9706   7.995   5.506   4.234  0.0303  0.1587 -0.0074
 3043SOL    HW1 9707   7.981   5.558   4.155  0.9278  0.8343  0.2618
 3043SOL    HW2 9708   7.983   5.569   4.306  0.9564 -0.0343  0.3305
 3044SOL     OW 9709   0.873   1.729   3.597 -0.0924  0.3503  0.0843
 3044SOL    HW1 9710   0.933   1.792   3.557 -0.1672  2.0181  2.3968
 3044SOL    HW2 9711   0.786   1.770   3.588 -0.1254  0.6937  1.7274
 3045SOL     OW 9712   5.713   6.625   0.988  0.0469 -0.2072  0.1047
 3045SOL    HW1 9713   5.711   6.546   1.043 -0.1137 -1.2304 -1.3149
 3045SOL    HW2 9714   5.681   6.695   1.045  0.4271 -1.1064  1.4776
 3046SOL     OW 9715   1.127   5.299   0.757  0.1830  0.1055 -0.5017
 3046SOL    HW1 9716   1.108   5.380   0.803  1.8728  1.5796 -2.2438
 3046SOL    HW2 9717   1.051   5.243   0.774 -0.4557  1.5411  1.7708
 3047SOL     OW 9718   2.242   4.779   0.081  0.0304  0.2413 -0.6827
 3047SOL    HW1 9719   2.259   4.870   0.055  1.1621 -0.4040 -2.3565
 3047SOL    HW2 9720   2.266   4.776   0.174  1.0369  1.4078 -0.8838
 3048SOL     OW 9721   9.217   9.444   7.286 -0.0061 -0.3656  0.5952
 3048SOL    HW1 9722   9.173   9.448   7.371 -2.0466 -0.1492 -0.4127
 3048SOL    HW2 9723   9.232   9.536   7.263  1.4171 -0.4446  1.1141
 3049SOL     OW 9724   0.251   3.231   7.807  0.1996 -0.0159  0.6566
 3049SOL    HW1 9725   0.293   3.317   7.811  1.8580 -0.8026  1.1340
 3049SOL    HW2 9726   0.172   3.241   7.861  1.0403  0.8780  1.7922
 3050SOL     OW 9727   0.714   1.391   8.590 -0.3903  0.3827  0.1526
 3050SOL    HW1 9728   0.662   1.356   8.517  2.2929 -0.6779 -1.3826
 3050SOL    HW2 9729   0.708   1.324   8.658 -1.5525  0.5912  0.2712
 3051SOL     OW 9730   5.537   6.025   1.990  0.0570  0.1921 -0.2906
 3051SOL    HW1 9731   5.580   6.023   1.904 -0.7601  0.0683 -0.7011
 3051SOL    HW2 9732   5.450   5.989   1.975 -0.0482  0.0392  0.6251
 3052SOL     OW 9733   1.684   7.049   7.949 -0.1713  0.2939  0.1817
 3052SOL    HW1 9734   1.737   7.056   7.870 -1.1550  0.3078 -0.4905
 3052SOL    HW2 9735   1.747   7.052   8.021  0.5899  2.8763 -0.4822
 3053SOL     OW 9736   9.018   1.712   0.019  0.2226 -0.1987  0.1078
 3053SOL    HW1 9737   8.974   1.749  -0.058 -4.2010 -1.6374  1.6564
 3053SOL    HW2 9738   9.054   1.788   0.064 -3.3956  1.6884  0.1583
 3054SOL     OW 9739   7.255   8.512   6.088  0.0803  0.5174  0.1143
 3054SOL    HW1 9740   7.278   8.540   6.176  1.5702  0.2272 -0.1573
 3054SOL    HW2 9741   7.251   8.593   6.037 -0.1987  0.6357  0.3284
 3055SOL     OW 9742   6.497   5.694   3.353 -0.1677  0.2090 -0.1593
 3055SOL    HW1 9743   6.538   5.732   3.430  1.8146  0.0818 -1.0980
 3055SOL    HW2 9744   6.566   5.691   3.287 -1.0189 -2.3085 -1.0666
 3056SOL     OW 9745   2.864   8.496   2.891  0.6412  0.2015  0.1552
 3056SOL    HW1 9746   2.827   8.572   2.936 -1.8891 -0.7601 -0.1144
 3056SOL    HW2 9747   2.854   8.516   2.798 -2.5429 -1.3866  0.0055
 3057SOL     OW 9748   7.321   5.269   8.220  0.4420  0.5191  0.4032
 3057SOL    HW1 9749   7.306   5.350   8.172 -0.1239 -0.3681 -0.9751
 3057SOL    HW2 9750   7.412   5.276   8.251  1.0812  0.8250 -1.4345
 3058SOL     OW 9751   1.415   7.339   2.345  0.5960  0.5626 -0.0256
 3058SOL    HW1 9752   1.353   7.285   2.296  0.0642  2.3636 -1.4434
 3058SOL    HW2 9753   1.360   7.402   2.392  1.2382  0.3173  1.1067
 3059SOL     OW 9754   0.478   2.028   5.863  0.4715 -0.5064 -0.2329
 3059SOL    HW1 9755   0.548   1.965   5.878  1.6439  0.4585 -1.4151
 3059SOL    HW2 9756   0.516   2.112   5.887 -0.6228 -0.0714  0.0569
 3060SOL     OW 9757   6.310   6.640   4.711 -0.4194 -0.2630  0.4917
 3060SOL    HW1 9758   6.225   6.683   4.707 -0.3239 -0.1560 -0.5648
 3060SOL    HW2 9759   6.299   6.569   4.775 -1.4975 -0.6874 -0.1548
 3061SOL     OW 9760   9.406   1.714   2.112 -0.2250 -0.0440  0.1495
 3061SOL    HW1 9761   9.463   1.788   2.090  0.5309 -0.8508 -0.7063
 3061SOL    HW2 9762   9.363   1.693   2.029 -2.2409  0.9090  0.8968
 3062SOL     OW 9763   8.582   8.248   7.047  0.1340 -0.8986 -0.6667
 3062SOL    HW1 9764   8.603   8.300   6.969  0.4294 -1.2067 -0.7963
 3062SOL    HW2 9765   8.641   8.280   7.115 -0.9848  0.2406 -0.2033
 3063SOL     OW 9766   3.640   6.150   6.710 -0.1160 -0.0028 -0.4300
 3063SOL    HW1 9767   3.577   6.162   6.781 -0.1280 -0.4094 -0.3698
 3063SOL    HW2 9768   3.601   6.083   6.654  0.3961 -0.4637 -0.2370
 3064SOL     OW 9769   9.154   0.903   9.858 -0.1517 -0.4359 -0.0752
 3064SOL    HW1 9770   9.148   0.874   9.949 -1.3124  0.3621  0.1323
 3064SOL    HW2 9771   9.131   0.825   9.807  2.5883 -1.5167  0.1593
 3065SOL     OW 9772   9.922   0.306   1.562 -0.8745  0.2365  0.2945
 3065SOL    HW1 9773   9.995   0.310   1.624 -0.9874  1.3971  0.3776
 3065SOL    HW2 9774   9.923   0.216   1.530  0.9609  0.3673 -0.1533
 3066SOL     OW 9775   2.754   4.829   6.993 -0.6473  0.4247 -0.1025
 3066SOL    HW1 9776   2.781   4.893   7.058 -0.1685 -0.6454  0.7886
 3066SOL    HW2 9777   2.758   4.745   7.039 -2.0679 -0.1631 -0.9796
 3067SOL     OW 9778   3.168   8.137   1.772 -0.5650 -0.0720  0.3856
 3067SOL    HW1 9779   3.163   8.200   1.701  0.2756 -0.1642  0.2362
 3067SOL    HW2 9780   3.152   8.052   1.731  2.3456 -0.4393 -0.2036
 3068SOL     OW 9781   0.578   2.296   2.916 -0.4725 -0.5111  0.2503
 3068SOL    HW1 9782   0.577   2.379   2.963  0.5664  0.0028 -0.5934
 3068SOL    HW2 9783   0.491   2.259   2.930 -0.9576  0.7334  0.6040
 3069SOL     OW 9784   1.034   1.764   4.261 -0.4818  0.2021  0.2590
 3069SOL    HW1 9785   1.039   1.803   4.348 -1.3983 -3.1801  2.0287
 3069SOL    HW2 9786   0.955   1.709   4.264  1.6457 -3.2936 -1.0999
 3070SOL     OW 9787   9.487   1.027   0.620  0.0837  0.0521  0.1116
 3070SOL    HW1 9788   9.395   1.002   0.612  0.3099 -0.7075 -0.2708
 3070SOL    HW2 9789   9.516   0.984   0.701  0.2462 -0.1776 -0.0679
 3071SOL     OW 9790   9.048   5.261   3.780  0.1137 -0.1648 -0.1581
 3071SOL    HW1 9791   8.958   5.276   3.753  0.3303  0.4067 -0.5800
 3071SOL    HW2 9792   9.099   5.325   3.731  0.4530  1.3347  2.0076
 3072SOL     OW 9793   5.433   2.511   2.026  0.2083  0.2101  0.2323
 3072SOL    HW1 9794   5.489   2.509   2.103 -0.2009  1.9887  0.6377
 3072SOL    HW2 9795   5.347   2.536   2.060  0.1123  1.4136 -0.8234
 3073SOL     OW 9796   7.521   8.608   2.328 -0.4141  0.2287 -0.1091
 3073SOL    HW1 9797   7.598   8.647   2.369 -1.7736  1.2500  1.6031
 3073SOL    HW2 9798   7.548   8.590   2.238  1.9001  0.2588  0.5149
 3074SOL     OW 9799   8.636   3.046   5.272  0.6506 -0.3655  0.7495
 3074SOL    HW1 9800   8.588   2.983   5.326  0.1711 -0.8022 -0.1574
 3074SOL    HW2 9801   8.621   3.130   5.314 -0.1306 -0.6304  1.0208
 3075SOL     OW 9802   0.228   6.869   7.799  0.8958  0.4266 -0.2990
 3075SOL    HW1 9803   0.234   6.921   7.718  0.1475  0.0715 -0.5885
 3075SOL    HW2 9804   0.245   6.932   7.869  0.7153  0.9156 -0.6904
 3076SOL     OW 9805   9.239   0.317   5.531 -0.0614  0.7348 -0.0863
 3076SOL    HW1 9806   9.251   0.412   5.527  0.7408  0.6817  0.7632
 3076SOL    HW2 9807   9.254   0.295   5.623  0.0828 -0.2583 -0.3408
 3077SOL     OW 9808   8.611   7.496   3.573  0.0574 -0.1340  0.5267
 3077SOL    HW1 9809   8.591   7.406   3.551  0.2480  0.2052 -1.1437
 3077SOL    HW2 9810   8.647   7.534   3.493  0.7400  1.2123  1.4128
 3078SOL     OW 9811   0.187   3.894   4.402  0.2322 -0.4876  0.0041
 3078SOL    HW1 9812   0.277   3.917   4.426  0.9949 -2.3426 -0.8375
 3078SOL    HW2 9813   0.195   3.858   4.313 -1.1966 -1.5175  0.2687
 3079SOL     OW 9814   3.089   4.954   6.641 -0.3253 -0.3415 -0.4969
 3079SOL    HW1 9815   3.062   4.885   6.580  1.6197 -0.4910 -1.2837
 3079SOL    HW2 9816   3.174   4.983   6.607 -1.0646  2.4799 -0.1992
 3080SOL     OW 9817   7.865   6.637   2.680 -0.4353  0.4077 -0.3651
 3080SOL    HW1 9818   7.778   6.602   2.658 -1.2355  2.5780 -0.9025
 3080SOL    HW2 9819   7.899   6.669   2.597  1.2731 -1.0768 -0.3086
 3081SOL     OW 9820   0.836   8.682   1.953  0.2411 -0.2109 -0.1730
 3081SOL    HW1 9821   0.805   8.770   1.933 -0.6982 -0.4450  0.2026
 3081SOL    HW2 9822   0.907   8.667   1.890  2.5232  1.9369  1.6998
 3082SOL     OW 9823   3.139   4.989   1.574  0.2195  0.4396 -0.4682
 3082SOL    HW1 9824   3.117   5.070   1.620  1.0019  1.7531 -2.2888
 3082SOL    HW2 9825   3.095   4.921   1.625 -1.2810  2.0827  0.5861
 3083SOL     OW 9826   0.346   1.930   2.255 -0.1921  0.0432  0.0871
 3083SOL    HW1 9827   0.401   1.993   2.300  0.0958  0.2383 -0.5172
 3083SOL    HW2 9828   0.386   1.845   2.274 -0.8092 -0.0008  1.2218
 3084SOL     OW 9829   1.132   5.378   9.590 -0.1247  0.0731 -0.6123
 3084SOL    HW1 9830   1.123   5.283   9.582  1.0335 -0.0874 -0.1385
 3084SOL    HW2 9831   1.217   5.398   9.550  0.4045  0.6871  0.7311
 3085SOL     OW 9832   5.837   9.853   3.882 -0.5311  0.2885  0.2611
 3085SOL    HW1 9833   5.790   9.854   3.965 -1.7475  2.1666 -0.3909
 3085SOL    HW2 9834   5.817   9.767   3.844 -1.6788  0.2217  0.9773
 3086SOL     OW 9835   9.032   9.004   9.074 -0.3789 -0.2203  0.2960
 3086SOL    HW1 9836   8.945   8.972   9.050  0.0140 -1.9089  1.0304
 3086SOL    HW2 9837   9.088   8.981   9.000 -0.6646  1.6993 -0.6050
 3087SOL     OW 9838   6.801   7.974   3.904  0.1408 -0.1993 -0.3157
 3087SOL    HW1 9839   6.744   8.030   3.851 -0.7158 -0.1513  0.6256
 3087SOL    HW2 9840   6.741   7.926   3.961  1.1049  1.0627  1.8753
 3088SOL     OW 9841   3.481   6.732   7.442 -0.4354 -0.0250  0.6230
 3088SOL    HW1 9842   3.478   6.663   7.508 -1.9814 -0.1680  0.4295
 3088SOL    HW2 9843   3.546   6.794   7.475 -0.8943 -0.2960  2.0859
 3089SOL     OW 9844   2.899   2.844   9.276  0.0478  0.3348 -0.3582
 3089SOL    HW1 9845   2.963   2.825   9.345 -0.4260  1.4906  0.4278
 3089SOL    HW2 9846   2.882   2.759   9.236  2.4153  0.0547 -0.9226
 3090SOL     OW 9847   6.342   8.587   1.137 -0.7014  0.2899  0.7098
 3090SOL    HW1 9848   6.410   8.625   1.081 -1.5174  1.7084  0.6298
 3090SOL    HW2 9849   6.330   8.498   1.103 -0.2499  0.6788 -0.5230
 3091SOL     OW 9850   1.783   6.001   3.709 -0.0061 -0.4379 -0.2246
 3091SOL    HW1 9851   1.825   5.952   3.639 -2.4203 -0.9680 -1.3984
 3091SOL    HW2 9852   1.798   6.093   3.686 -1.6971 -0.5721 -2.1531
 3092SOL     OW 9853   4.052   1.946   1.061 -0.5096  0.0611 -0.1140
 3092SOL    HW1 9854   4.011   1.956   0.974 -0.7362  0.7600  0.0667
 3092SOL    HW2 9855   4.097   2.029   1.075 -1.9619  0.6834  1.2003
 3093SOL     OW 9856   2.387   9.193   4.827 -0.4115 -0.2058 -0.7806
 3093SOL    HW1 9857   2.438   9.237   4.896 -1.0001 -1.1551  0.2962
 3093SOL    HW2 9858   2.442   9.201   4.749  1.1237 -0.6396  0.1922
 3094SOL     OW 9859   5.001   2.678   3.575  0.2870  0.1088  0.1309
 3094SOL    HW1 9860   5.003   2.606   3.511  1.7254 -1.7092  2.0938
 3094SOL    HW2 9861   5.084   2.723   3.563  0.0570  0.4971 -0.0333
 3095SOL     OW 9862   7.806   7.290   1.155 -0.2942 -0.1862  0.4061
 3095SOL    HW1 9863   7.822   7.323   1.066 -0.5174 -3.5109 -1.0238
 3095SOL    HW2 9864   7.710   7.290   1.163 -0.2683  0.2921  0.7322
 3096SOL     OW 9865   5.219   8.335   0.118  0.4274 -0.0849 -0.4963
 3096SOL    HW1 9866   5.177   8.361   0.200 -0.8266 -0.1020 -1.0982
 3096SOL    HW2 9867   5.310   8.360   0.128  0.4930 -0.8779  1.2424
 3097SOL     OW 9868   6.789   7.072   9.289 -0.4090 -0.2652 -0.2240
 3097SOL    HW1 9869   6.881   7.045   9.285 -0.3149  0.2009 -1.4069
 3097SOL    HW2 9870   6.782   7.146   9.229 -1.7703 -0.9160 -0.9162
 3098SOL     OW 9871   9.222   9.138   1.365  0.1166  0.0624  0.1309
 3098SOL    HW1 9872   9.225   9.091   1.448 -0.1582 -1.6277 -0.7691
 3098SOL    HW2 9873   9.258   9.225   1.385 -1.3957  0.2502  2.3417
 3099SOL     OW 9874   7.436   5.514   8.071  0.1755 -0.4851  0.0553
 3099SOL    HW1 9875   7.393   5.570   8.006 -0.2545 -0.2456  0.5274
 3099SOL    HW2 9876   7.505   5.469   8.023  0.1933  0.0674 -0.4525
 3100SOL     OW 9877   8.098   5.313   2.872  0.2845 -0.0530 -0.1246
 3100SOL    HW1 9878   8.095   5.400   2.831 -1.7744  0.2484  0.5564
 3100SOL    HW2 9879   8.145   5.259   2.808  0.8503  1.3512 -0.9530
 3101SOL     OW 9880   0.406   2.800   8.559 -0.0318 -0.1405 -0.0449
 3101SOL    HW1 9881   0.413   2.722   8.614 -1.4208  0.0321  0.4190
 3101SOL    HW2 9882   0.444   2.870   8.612  1.8020 -0.5793 -0.7131
 3102SOL     OW 9883   9.007   8.371   9.246  0.4015  0.1038 -0.5668
 3102SOL    HW1 9884   8.940   8.438   9.253 -0.2242 -0.4032 -1.4513
 3102SOL    HW2 9885   8.960   8.288   9.253  0.9371 -0.2596 -1.1044
 3103SOL     OW 9886   3.676   8.784   4.906  0.7761  0.1526  0.1869
 3103SOL    HW1 9887   3.588   8.747   4.910  0.1348  1.4031 -1.0915
 3103SOL    HW2 9888   3.724   8.725   4.848 -0.6993  1.9697 -3.2031
 3104SOL     OW 9889   3.456   8.546   2.426  0.0403  0.1667  0.5453
 3104SOL    HW1 9890   3.372   8.568   2.388 -0.7673  0.9206  2.5978
 3104SOL    HW2 9891   3.520   8.592   2.371 -0.8623 -0.3176 -0.9700
 3105SOL     OW 9892   2.280   7.465   3.170 -0.1575  0.1259 -0.0329
 3105SOL    HW1 9893   2.343   7.397   3.197 -1.0598 -1.2241 -1.1646
 3105SOL    HW2 9894   2.305   7.486   3.080 -0.8445  0.1363 -0.2270
 3106SOL     OW 9895   9.275   0.877   1.176 -0.1873  0.3005 -0.3342
 3106SOL    HW1 9896   9.247   0.885   1.268 -1.1684 -2.7505 -0.2636
 3106SOL    HW2 9897   9.198   0.906   1.126 -0.7865 -0.8755 -0.1384
 3107SOL     OW 9898   4.961   2.442   6.538  0.1712 -0.0210  0.7817
 3107SOL    HW1 9899   4.956   2.522   6.486  1.3951 -1.0139 -0.9585
 3107SOL    HW2 9900   5.050   2.443   6.575 -0.6595  0.6495  2.9481
 3108SOL     OW 9901   6.613   8.809   2.792  0.2327  0.4397 -0.3458
 3108SOL    HW1 9902   6.625   8.843   2.881  0.0529 -0.6529  0.1075
 3108SOL    HW2 9903   6.557   8.732   2.803  0.9444 -0.2295 -1.3047
 3109SOL     OW 9904   3.486   1.666   5.109  0.0595 -0.8771 -0.0706
 3109SOL    HW1 9905   3.516   1.698   5.194 -0.2423  0.4579 -0.4432
 3109SOL    HW2 9906   3.502   1.739   5.049 -2.8921 -0.4218 -0.4802
 3110SOL     OW 9907   5.609   0.923   8.990 -0.2175 -0.4287  0.4364
 3110SOL    HW1 9908   5.562   0.938   9.072  2.0418  1.9924  1.4172
 3110SOL    HW2 9909   5.645   0.835   8.998  1.0982  0.2587  2.6929
 3111SOL     OW 9910   0.199   2.589   8.843 -0.1032 -0.5071  0.3235
 3111SOL    HW1 9911   0.193   2.542   8.926 -0.6764 -0.0581  0.5317
 3111SOL    HW2 9912   0.184   2.681   8.865  0.2528 -0.3153 -0.2026
 3112SOL     OW 9913   6.595   0.642   9.619 -0.0761 -0.1077  0.2642
 3112SOL    HW1 9914   6.631   0.730   9.617  0.1834 -0.2305 -0.4842
 3112SOL    HW2 9915   6.502   0.655   9.640 -0.0029  0.3296  0.3213
 3113SOL     OW 9916   4.521   3.210   4.596  0.2582 -0.6080  0.2524
 3113SOL    HW1 9917   4.526   3.300   4.565  0.7234 -1.4217 -2.2583
 3113SOL    HW2 9918   4.508   3.218   4.691 -1.2777  2.0828 -0.0893
 3114SOL     OW 9919   3.100   4.548   7.417 -0.1433 -0.5311  0.8301
 3114SOL    HW1 9920   3.102   4.643   7.431  0.8371 -0.1413 -1.4995
 3114SOL    HW2 9921   3.010   4.523   7.437 -1.4408  1.5256 -1.7976
 3115SOL     OW 9922   4.754   2.402   1.807  0.5932 -0.1886 -0.0499
 3115SOL    HW1 9923   4.780   2.438   1.722 -0.4491 -0.1623 -0.3743
 3115SOL    HW2 9924   4.673   2.449   1.829  0.6241 -0.4992  0.7560
 3116SOL     OW 9925   3.021   1.605   5.654  0.0974 -0.2433 -0.1506
 3116SOL    HW1 9926   3.033   1.536   5.719  1.1431  1.4263  1.5652
 3116SOL    HW2 9927   3.080   1.582   5.583  1.1632 -0.6368  0.8257
 3117SOL     OW 9928   7.105   4.058   4.476  0.9172 -0.0406 -0.3273
 3117SOL    HW1 9929   7.085   4.142   4.435  2.0343 -0.0861 -1.0141
 3117SOL    HW2 9930   7.123   4.080   4.568 -2.0443  0.0013  0.3531
 3118SOL     OW 9931   1.737   4.110   7.781  0.4237 -0.2691  0.6121
 3118SOL    HW1 9932   1.700   4.133   7.696  0.3861  0.8277  0.9093
 3118SOL    HW2 9933   1.679   4.151   7.844 -0.5019 -2.4333  1.2586
 3119SOL     OW 9934   1.506   5.852   7.015 -0.1097 -0.0293 -0.0369
 3119SOL    HW1 9935   1.495   5.925   6.953  1.2597  0.4887  0.2830
 3119SOL    HW2 9936   1.597   5.859   7.044 -0.3421 -1.0717  1.0319
 3120SOL     OW 9937   3.015   6.963   8.892 -0.2914  0.8288 -0.5975
 3120SOL    HW1 9938   3.096   7.011   8.875  1.3259 -1.2137  0.8061
 3120SOL    HW2 9939   3.022   6.936   8.984 -1.3187 -1.5621 -1.1294
 3121SOL     OW 9940   0.946   8.140   9.365  0.3252  0.3790  0.0113
 3121SOL    HW1 9941   0.918   8.062   9.317  1.3367  0.4788 -0.7676
 3121SOL    HW2 9942   0.933   8.212   9.303 -0.7134  0.8703  0.7626
 3122SOL     OW 9943   5.483   9.730   6.197 -0.1723  0.3566  0.1627
 3122SOL    HW1 9944   5.519   9.700   6.281 -0.0810 -0.5936 -0.1940
 3122SOL    HW2 9945   5.408   9.672   6.182  1.2469 -1.1593 -1.5529
 3123SOL     OW 9946  10.006   1.554   6.897 -0.6247 -0.0072 -0.5432
 3123SOL    HW1 9947   9.963   1.586   6.817 -1.8156 -0.1291  0.0338
 3123SOL    HW2 9948   9.968   1.468   6.912 -0.6696  0.1592  0.3557
 3124SOL     OW 9949   2.437   8.220   8.498  0.3499  0.0315 -0.1360
 3124SOL    HW1 9950   2.363   8.188   8.550  0.8517  0.0265  0.5980
 3124SOL    HW2 9951   2.514   8.187   8.544  0.7964 -1.0527 -1.6172
 3125SOL     OW 9952   9.577   6.906   9.196  0.4460  0.1630  0.3268
 3125SOL    HW1 9953   9.524   6.907   9.117 -0.5535  0.1722  0.9873
 3125SOL    HW2 9954   9.590   6.813   9.215 -1.4350  0.0846  1.5155
 3126SOL     OW 9955   0.354   3.781   2.941 -0.0078 -0.1943  0.0376
 3126SOL    HW1 9956   0.398   3.792   2.857 -0.5570 -0.6051 -0.3105
 3126SOL    HW2 9957   0.312   3.865   2.957 -2.1262 -0.8779 -1.4167
 3127SOL     OW 9958   1.671   0.876   5.542 -0.0213 -0.0426 -0.3635
 3127SOL    HW1 9959   1.741   0.866   5.478  0.4999  0.1064  0.1711
 3127SOL    HW2 9960   1.688   0.961   5.583  0.4200 -0.7071  0.8749
 3128SOL     OW 9961   1.726   2.795   2.436  0.2642  0.1596  0.1182
 3128SOL    HW1 9962   1.643   2.818   2.393 -0.1868 -1.1003  0.2767
 3128SOL    HW2 9963   1.778   2.875   2.432 -0.8731  0.9044 -0.1986
 3129SOL     OW 9964   8.179   3.930   1.372 -0.0407 -0.1957  0.3053
 3129SOL    HW1 9965   8.263   3.913   1.415 -0.1141  0.8462  0.8879
 3129SOL    HW2 9966   8.164   4.023   1.386 -0.8288 -0.1701 -0.6464
 3130SOL     OW 9967   1.581   7.203   0.897  0.2323 -0.3688  0.6927
 3130SOL    HW1 9968   1.557   7.117   0.933 -1.7498  0.1330  0.7157
 3130SOL    HW2 9969   1.614   7.184   0.810 -0.7268 -1.1397  0.4700
 3131SOL     OW 9970   4.254   1.261   2.331 -0.8409 -0.1657 -0.0702
 3131SOL    HW1 9971   4.192   1.332   2.348 -2.4426 -0.9638 -2.1201
 3131SOL    HW2 9972   4.317   1.299   2.269 -1.7222 -0.5014 -1.1995
 3132SOL     OW 9973   9.372   4.518   9.422 -1.0917  0.5712  0.2878
 3132SOL    HW1 9974   9.408   4.600   9.387  1.7747 -0.7317 -0.1513
 3132SOL    HW2 9975   9.405   4.514   9.511  1.1311 -1.2316 -0.5015
 3133SOL     OW 9976   6.882   2.951   3.101  0.4223  0.4441 -0.3333
 3133SOL    HW1 9977   6.874   2.941   3.195  1.6009 -3.1787 -0.4843
 3133SOL    HW2 9978   6.803   2.998   3.075 -0.2676  0.8919  2.3505
 3134SOL     OW 9979   8.967   6.918   3.426  0.0722  0.6316 -0.0123
 3134SOL    HW1 9980   8.958   6.982   3.496 -1.0593 -0.1686  0.6072
 3134SOL    HW2 9981   8.885   6.923   3.377 -0.1171 -0.4687  0.1672
 3135SOL     OW 9982   6.069   4.368   8.365 -0.0046  0.0659  0.1280
 3135SOL    HW1 9983   6.093   4.350   8.274  1.5083  2.1223  0.0614
 3135SOL    HW2 9984   6.109   4.296   8.414  1.3018  0.2302 -0.6221
 3136SOL     OW 9985   8.774   4.217   0.784 -0.0904 -0.7740 -0.4526
 3136SOL    HW1 9986   8.743   4.305   0.761 -1.1864 -0.7795  0.9273
 3136SOL    HW2 9987   8.870   4.225   0.783 -0.0966  1.2883  2.4722
 3137SOL     OW 9988   3.641   7.859   8.970  0.7215  0.1543  0.4025
 3137SOL    HW1 9989   3.561   7.854   8.919  1.1485 -0.4914 -0.2213
 3137SOL    HW2 9990   3.643   7.948   9.004 -0.4186  0.0795  0.6950
 3138SOL     OW 9991   3.801   4.751   2.464  0.0073  0.3252  0.0153
 3138SOL    HW1 9992   3.740   4.682   2.440 -0.5862  0.4442  1.1203
 3138SOL    HW2 9993   3.887   4.718   2.437 -0.1673 -1.1675  1.1711
 3139SOL     OW 9994   1.130   7.899   4.056  0.4681  0.4833  0.5448
 3139SOL    HW1 9995   1.108   7.942   3.973  0.0642  1.4266  1.1331
 3139SOL    HW2 9996   1.223   7.917   4.068  0.7418 -0.3775 -0.1033
 3140SOL     OW 9997   9.049   2.875   2.787 -0.5874  0.0983 -0.0076
 3140SOL    HW1 9998   9.046   2.811   2.716  0.6696  1.4216 -1.3096
 3140SOL    HW2 9999   8.958   2.883   2.815 -0.8628 -1.7761 -0.2016
 3141SOL     OW10000   3.055   0.718   1.136  0.2402 -0.0614 -0.5910
 3141SOL    HW110001   2.985   0.773   1.101 -0.8309 -0.5038  0.7540
 3141SOL    HW210002   3.106   0.777   1.191  0.0682 -0.0449 -0.4474
 3142SOL     OW10003   2.564   2.700   9.486  0.2549  0.1481 -0.1315
 3142SOL    HW110004   2.511   2.621   9.497  0.1133  0.4689  1.6662
 3142SOL    HW210005   2.508   2.760   9.437 -0.9669  0.3550  1.4484
 3143SOL     OW10006   4.116   8.882   3.077 -0.1977  0.1596  0.6416
 3143SOL    HW110007   4.093   8.967   3.041  1.5942  1.1045  1.5971
 3143SOL    HW210008   4.102   8.821   3.004 -3.9546  0.7630  0.6431
 3144SOL     OW10009   2.518   0.812   1.595  0.4174 -0.0845 -0.1192
 3144SOL    HW110010   2.612   0.807   1.574  0.2318 -1.0303 -0.7477
 3144SOL    HW210011   2.492   0.899   1.566  1.4061  0.7790  1.3880
 3145SOL     OW10012   8.045   2.937   2.169  0.0542 -0.2137 -0.0434
 3145SOL    HW110013   8.001   2.964   2.089 -1.4801 -0.5844  0.6546
 3145SOL    HW210014   8.075   3.018   2.210 -0.6384  0.0930 -0.1496
 3146SOL     OW10015   3.763   2.070   8.327  0.0199  0.2450  0.2278
 3146SOL    HW110016   3.837   2.013   8.308 -0.8684 -1.0822  0.6381
 3146SOL    HW210017   3.761   2.132   8.254  1.5010  0.3033  0.2030
 3147SOL     OW10018   0.037   8.289   2.975  0.5678 -0.1274 -0.7513
 3147SOL    HW110019   0.079   8.375   2.967 -0.4845  0.3886 -0.9885
 3147SOL    HW210020   0.086   8.233   2.916  3.4177 -0.6073  1.8608
 3148SOL     OW10021   5.442   6.205   2.953 -1.0024  0.0950  0.3559
 3148SOL    HW110022   5.437   6.122   2.907 -1.1373  0.3048 -0.0137
 3148SOL    HW210023   5.393   6.190   3.034 -0.0377 -0.5297  0.8315
 3149SOL     OW10024   3.148   2.928   1.967 -0.5360 -0.4157  0.0782
 3149SOL    HW110025   3.070   2.959   1.921  0.2503  1.4563 -0.0997
 3149SOL    HW210026   3.114   2.874   2.038 -1.9505 -0.3565 -0.5206
 3150SOL     OW10027   9.466   5.394   8.650 -0.1933 -0.2343  0.3757
 3150SOL    HW110028   9.395   5.341   8.685 -0.5441 -0.2083 -0.2732
 3150SOL    HW210029   9.486   5.456   8.720 -0.3903 -0.6388  0.7967
 3151SOL     OW10030   6.747   8.256   9.234  0.0859  0.3130 -0.5190
 3151SOL    HW110031   6.792   8.336   9.261 -1.3970  1.3077 -0.8553
 3151SOL    HW210032   6.792   8.228   9.155  0.5532  0.8919 -0.4606
 3152SOL     OW10033   9.284   3.622   3.059  0.5929 -0.7111 -0.4872
 3152SOL    HW110034   9.260   3.537   3.095 -0.5995 -0.6452 -1.0861
 3152SOL    HW210035   9.263   3.684   3.129  2.1118 -0.9404  0.2170
 3153SOL     OW10036   6.379   9.431   6.075 -0.1683 -0.0216  0.3872
 3153SOL    HW110037   6.324   9.493   6.027  0.8525  1.4879  1.0697
 3153SOL    HW210038   6.468   9.455   6.051  0.2870 -0.4186  1.6220
 3154SOL     OW10039   9.700   7.322   7.299  0.3665 -0.4973  0.2647
 3154SOL    HW110040   9.690   7.230   7.276  0.6543 -0.0766 -1.7608
 3154SOL    HW210041   9.619   7.345   7.345 -0.0673 -1.5499  0.0399
 3155SOL     OW10042   1.231   8.990   5.859 -0.0771 -0.4946 -0.1935
 3155SOL    HW110043   1.302   9.053   5.850 -1.0513  0.8072  0.7400
 3155SOL    HW210044   1.153   9.037   5.830 -0.7252 -1.5201 -0.1746
 3156SOL     OW10045   7.047   6.571   0.937 -0.2946  0.0512  0.5833
 3156SOL    HW110046   7.112   6.638   0.960  0.3522 -0.6701  0.8723
 3156SOL    HW210047   6.988   6.616   0.876  0.4512  0.7286  0.3404
 3157SOL     OW10048   0.474   4.894   1.081 -0.1241  0.3076  0.0915
 3157SOL    HW110049   0.567   4.909   1.062 -0.3920  0.8786 -0.8536
 3157SOL    HW210050   0.450   4.964   1.141 -0.3258  1.1416 -0.9377
 3158SOL     OW10051   9.517   7.640   6.354  0.1317 -0.9108  0.2974
 3158SOL    HW110052   9.516   7.559   6.405 -0.0392 -1.3321 -0.3668
 3158SOL    HW210053   9.486   7.707   6.416 -1.7001 -1.6935  0.2969
 3159SOL     OW10054   1.330   1.277   8.484 -0.2592  0.0990  0.5308
 3159SOL    HW110055   1.235   1.287   8.497 -0.2658 -1.5584  1.9769
 3159SOL    HW210056   1.366   1.270   8.572  1.2525  0.8167 -0.0030
 3160SOL     OW10057   2.161   4.639   2.051 -0.2309 -0.0813 -0.1224
 3160SOL    HW110058   2.086   4.623   1.994  0.4128  1.2574 -1.4216
 3160SOL    HW210059   2.194   4.552   2.073 -2.1045 -0.6928  0.4565
 3161SOL     OW10060   7.487   5.724   0.447  0.1160  0.2218 -0.1688
 3161SOL    HW110061   7.449   5.723   0.535  2.2727 -1.7931  0.8645
 3161SOL    HW210062   7.580   5.705   0.461  0.7293  0.8530 -2.8360
 3162SOL     OW10063   0.995   5.074   8.230  0.0911 -0.0871 -0.6275
 3162SOL    HW110064   1.029   4.994   8.270  0.3527 -0.8443 -2.2750
 3162SOL    HW210065   1.073   5.118   8.196 -0.3178 -0.8834 -2.7529
 3163SOL     OW10066   1.411   4.335   3.846  0.0139 -0.2417  0.2237
 3163SOL    HW110067   1.381   4.282   3.772 -0.1062 -0.2208  0.2572
 3163SOL    HW210068   1.340   4.329   3.910 -1.2177  2.0776 -0.7946
 3164SOL     OW10069   3.428   1.165   6.435  0.1359 -0.0935 -0.1391
 3164SOL    HW110070   3.338   1.152   6.406  0.6066 -0.1605 -1.6600
 3164SOL    HW210071   3.478   1.177   6.354  1.2570  1.5463  0.7228
 3165SOL     OW10072   9.752   3.592   0.653  0.3566 -0.3020 -0.3601
 3165SOL    HW110073   9.740   3.566   0.744  0.5711 -0.1293 -0.2818
 3165SOL    HW210074   9.675   3.644   0.632  1.1128  1.1464  0.2623
 3166SOL     OW10075   5.176   5.918   5.162 -0.0161  0.1326 -0.0102
 3166SOL    HW110076   5.089   5.943   5.129  0.3544  0.2186 -0.9647
 3166SOL    HW210077   5.164   5.909   5.256 -1.3406 -0.9289 -0.2367
 3167SOL     OW10078   0.106   3.384   3.845 -0.0795 -0.2190 -0.4568
 3167SOL    HW110079   0.084   3.304   3.894  0.8532 -0.0742  0.2387
 3167SOL    HW210080   0.173   3.356   3.783  3.7006  0.7209  2.7650
 3168SOL     OW10081   9.568   1.015   3.688 -0.0989  0.0352 -0.0161
 3168SOL    HW110082   9.658   1.044   3.672 -0.2099 -0.7460 -2.4134
 3168SOL    HW210083   9.518   1.048   3.613 -1.5302 -0.7405  0.5616
 3169SOL     OW10084   4.225   4.415   3.447 -0.0812  0.1882  0.2845
 3169SOL    HW110085   4.317   4.391   3.436  0.0953  1.1679 -0.5670
 3169SOL    HW210086   4.227   4.496   3.497 -0.4377  0.5029 -0.1939
 3170SOL     OW10087   1.769   1.609   7.809 -0.1146  0.1922  0.4773
 3170SOL    HW110088   1.712   1.648   7.743  0.0297 -1.6339 -0.7871
 3170SOL    HW210089   1.840   1.569   7.759  0.9105  0.2085  1.8674
 3171SOL     OW10090   8.709   8.369   0.622 -1.0092  0.1814 -0.5287
 3171SOL    HW110091   8.801   8.352   0.646 -0.5770  2.5009 -0.3249
 3171SOL    HW210092   8.695   8.315   0.544  0.1765 -1.0648  0.0801
 3172SOL     OW10093   9.900   1.808   4.414  0.1241 -0.5309 -0.3698
 3172SOL    HW110094   9.876   1.760   4.493 -4.3375 -0.5182 -1.4466
 3172SOL    HW210095   9.921   1.740   4.350  0.7889 -0.6479 -0.0435
 3173SOL     OW10096   5.106   9.632   6.518 -0.8720 -0.0833  0.7598
 3173SOL    HW110097   5.177   9.568   6.522 -0.6350  0.0954 -0.2595
 3173SOL    HW210098   5.026   9.580   6.527 -0.6307 -0.2530  2.2219
 3174SOL     OW10099   3.146   4.948   9.535 -0.4909 -0.0956  0.3292
 3174SOL    HW110100   3.083   5.009   9.496  0.0086  0.5273  0.4762
 3174SOL    HW210101   3.116   4.936   9.625 -0.8887 -0.4870  0.1474
 3175SOL     OW10102   0.316   1.063   9.112 -0.1531  0.9225  0.1455
 3175SOL    HW110103   0.269   1.145   9.092 -0.1130  0.8608 -0.2166
 3175SOL    HW210104   0.346   1.073   9.202  0.4071  1.5785 -0.1061
 3176SOL     OW10105   3.554   2.789   7.253  0.2600  0.4916  0.0410
 3176SOL    HW110106   3.555   2.782   7.157 -0.3279  1.7653 -0.0897
 3176SOL    HW210107   3.580   2.702   7.284 -1.1269 -0.4409 -1.2561
 3177SOL     OW10108   9.830   2.658   6.317  0.5891  0.0755  0.4929
 3177SOL    HW110109   9.864   2.570   6.334  1.2759 -0.0217 -1.1823
 3177SOL    HW210110   9.866   2.712   6.387  0.4203 -0.9127  1.3617
 3178SOL     OW10111   2.861   9.314   7.060  0.4490 -0.0864  0.3636
 3178SOL    HW110112   2.904   9.229   7.063  0.8669  0.1603  1.8726
 3178SOL    HW210113   2.782   9.304   7.114 -0.1380  0.1532 -0.4249
 3179SOL     OW10114   8.455   9.113   7.863 -0.0256 -0.7480  0.2035
 3179SOL    HW110115   8.395   9.185   7.843 -1.3817 -1.6861  0.7379
 3179SOL    HW210116   8.497   9.093   7.780 -0.8470 -0.3971 -0.3119
 3180SOL     OW10117   7.495   7.224   4.943 -0.5626 -0.0985  0.2203
 3180SOL    HW110118   7.540   7.188   5.019  0.6426  0.9638  0.0420
 3180SOL    HW210119   7.545   7.191   4.868 -0.4363  0.5885 -0.0070
 3181SOL     OW10120   8.872   9.395   7.765 -0.4244  0.3560 -0.2545
 3181SOL    HW110121   8.818   9.469   7.737  0.9376  0.9017 -1.5880
 3181SOL    HW210122   8.855   9.327   7.700  1.7836  1.1808 -1.8373
 3182SOL     OW10123   9.794   4.708   2.335  0.4574  0.5374  0.8612
 3182SOL    HW110124   9.804   4.737   2.244 -1.1926 -0.3980  0.3402
 3182SOL    HW210125   9.824   4.782   2.387  1.0630  1.2470 -0.4332
 3183SOL     OW10126   9.854   1.529   4.499 -0.0311 -0.9516 -0.4200
 3183SOL    HW110127   9.814   1.456   4.546 -2.2709  2.0484  2.8471
 3183SOL    HW210128   9.780   1.572   4.454  0.7811  0.5710 -0.3764
 3184SOL     OW10129   1.411   3.825   4.912  0.0657 -0.3434 -0.1124
 3184SOL    HW110130   1.457   3.844   4.830  1.0989  0.6167  0.6637
 3184SOL    HW210131   1.358   3.748   4.892  1.8946 -1.4209 -1.1132
 3185SOL     OW10132   8.917   3.685   4.769  0.5595 -0.0282 -0.1193
 3185SOL    HW110133   8.880   3.597   4.773  1.1848 -0.4565 -2.3613
 3185SOL    HW210134   8.841   3.743   4.778 -0.2554 -0.8519 -1.2727
 3186SOL     OW10135   3.961   7.779   5.659  0.0936 -0.3323  0.1056
 3186SOL    HW110136   3.949   7.692   5.695 -0.8839  0.1357  0.9570
 3186SOL    HW210137   4.054   7.798   5.672 -0.1070 -0.4060  1.9014
 3187SOL     OW10138   6.598   9.669   2.303  0.1729 -0.0086 -0.0734
 3187SOL    HW110139   6.511   9.704   2.286 -0.1654 -1.2791 -1.1880
 3187SOL    HW210140   6.634   9.652   2.216  0.8535 -1.0767  0.3884
 3188SOL     OW10141   8.475   7.550   2.791 -0.1266 -0.5081 -0.3342
 3188SOL    HW110142   8.492   7.463   2.753  0.1792 -0.3948 -0.4636
 3188SOL    HW210143   8.513   7.611   2.727 -2.0900 -0.1718 -1.2602
 3189SOL     OW10144   3.147   9.511   7.602  0.6555  0.0705 -0.0804
 3189SOL    HW110145   3.146   9.420   7.571 -2.1669 -0.3749  1.0145
 3189SOL    HW210146   3.202   9.509   7.680  0.5243 -0.7473 -0.0008
 3190SOL     OW10147   3.839   4.334   6.690 -0.2467  0.4067  0.6610
 3190SOL    HW110148   3.914   4.330   6.749  0.1528  2.1489  0.3349
 3190SOL    HW210149   3.872   4.381   6.613 -0.4052 -2.8023 -1.5521
 3191SOL     OW10150   9.740   4.636   7.799  0.0930  0.3492  0.8695
 3191SOL    HW110151   9.707   4.621   7.710 -0.0429 -0.8478  1.1055
 3191SOL    HW210152   9.689   4.710   7.831 -2.0883 -1.1464  1.0511
 3192SOL     OW10153   4.405   6.885   5.868  0.4125 -0.1675 -0.2661
 3192SOL    HW110154   4.430   6.920   5.953 -0.4501  1.2304 -0.5640
 3192SOL    HW210155   4.362   6.802   5.888 -0.0464  0.2805  0.6988
 3193SOL     OW10156   4.636   2.744   7.653 -0.1239 -0.0058 -0.5916
 3193SOL    HW110157   4.637   2.787   7.567  0.2182  1.3907  0.0736
 3193SOL    HW210158   4.728   2.744   7.680 -0.2547 -0.2572 -0.1504
 3194SOL     OW10159   0.895   8.393   0.386 -0.4877  0.1291 -0.2555
 3194SOL    HW110160   0.811   8.372   0.345 -0.9754  0.4828  0.5377
 3194SOL    HW210161   0.947   8.433   0.316  0.0606 -2.5311 -1.5258
 3195SOL     OW10162   2.376   7.059   5.468 -0.2703  0.0256  0.1274
 3195SOL    HW110163   2.325   7.139   5.477  1.0560  0.9354 -0.0279
 3195SOL    HW210164   2.325   7.004   5.408 -0.5513  1.3459 -0.8958
 3196SOL     OW10165   2.572   1.746   2.740 -0.8760 -0.4778  0.1162
 3196SOL    HW110166   2.616   1.752   2.655 -1.0489  2.3593  0.1445
 3196SOL    HW210167   2.606   1.665   2.778  1.8321 -0.1063 -1.2387
 3197SOL     OW10168   9.125   0.321   6.227 -0.2402 -0.3537  0.1636
 3197SOL    HW110169   9.193   0.387   6.238 -1.0507  0.5328 -0.0534
 3197SOL    HW210170   9.119   0.278   6.313 -0.0481  0.1812  0.4473
 3198SOL     OW10171   8.283   6.331   7.169 -0.4624  0.0693 -0.0816
 3198SOL    HW110172   8.204   6.383   7.178 -0.5448  0.0083 -0.4486
 3198SOL    HW210173   8.334   6.351   7.247 -0.7430  0.2728  0.0490
 3199SOL     OW10174   0.625   6.803   6.783 -0.0790 -0.2872  0.0758
 3199SOL    HW110175   0.584   6.739   6.842 -0.5434 -0.7692 -0.7547
 3199SOL    HW210176   0.715   6.774   6.774  0.2978  0.3875  1.3688
 3200SOL     OW10177   4.457   0.216   1.173 -0.4810  0.0757 -0.6926
 3200SOL    HW110178   4.369   0.182   1.191  0.4403 -2.1691 -0.0577
 3200SOL    HW210179   4.474   0.278   1.244 -0.6686 -1.3142  0.6237
 3201SOL     OW10180   1.841   3.119   6.975  0.2613  0.3279  0.3586
 3201SOL    HW110181   1.925   3.103   6.931 -0.8596 -1.1580 -1.3688
 3201SOL    HW210182   1.778   3.131   6.904 -1.3171 -0.3918  1.5699
 3202SOL     OW10183   7.802   9.307   6.216  0.0010 -0.6344  0.0168
 3202SOL    HW110184   7.747   9.264   6.151  0.4929 -1.3821  0.0939
 3202SOL    HW210185   7.745   9.319   6.292 -0.2845 -0.6721 -0.1913
 3203SOL     OW10186   4.976   2.182   5.712 -0.0654 -0.8507 -0.1000
 3203SOL    HW110187   4.950   2.141   5.629 -0.9964 -1.0161  0.2641
 3203SOL    HW210188   4.968   2.276   5.697 -3.2119 -0.8966  0.6860
 3204SOL     OW10189   6.436   1.367   4.379 -0.5024  0.8138  0.3199
 3204SOL    HW110190   6.363   1.428   4.393 -1.0208  0.3509 -0.3009
 3204SOL    HW210191   6.406   1.310   4.307 -0.2576 -0.5221  1.2408
 3205SOL     OW10192   5.625   1.571   6.057  0.3068 -0.0303 -0.2236
 3205SOL    HW110193   5.544   1.598   6.099 -2.2590 -1.1718 -3.8764
 3205SOL    HW210194   5.665   1.653   6.027 -0.3883  0.4631  0.1694
 3206SOL     OW10195   6.135   7.634   6.520  0.2113  0.6424 -0.2972
 3206SOL    HW110196   6.128   7.708   6.581 -1.3209 -0.6018  1.1171
 3206SOL    HW210197   6.210   7.584   6.553  1.5253  1.7294 -1.5136
 3207SOL     OW10198   5.956   5.248   0.078 -0.4183  0.2779 -0.3979
 3207SOL    HW110199   5.881   5.307   0.082  0.1385  0.9529  0.5558
 3207SOL    HW210200   5.919   5.160   0.092 -0.9231  0.7010  1.0813
 3208SOL     OW10201   3.176   7.417   7.458 -0.0280 -0.4366  0.0854
 3208SOL    HW110202   3.241   7.412   7.528 -0.6276  1.0676  0.8078
 3208SOL    HW210203   3.203   7.351   7.395  1.8983 -0.2038  0.6003
 3209SOL     OW10204   3.597   8.383   0.545  0.0242 -0.2015  0.0255
 3209SOL    HW110205   3.581   8.379   0.640  0.9582 -0.6378  0.1761
 3209SOL    HW210206   3.679   8.335   0.533 -0.5725 -0.9679 -1.1266
 3210SOL     OW10207   9.578   1.573   1.706 -0.2534 -0.5473  0.3156
 3210SOL    HW110208   9.499   1.596   1.657  0.5376  1.4732 -0.1438
 3210SOL    HW210209   9.587   1.643   1.771  1.7887 -0.0172 -0.4564
 3211SOL     OW10210   4.603   3.702   3.287 -0.0510 -0.1454  0.3060
 3211SOL    HW110211   4.568   3.736   3.370 -2.1334 -2.2864  0.4042
 3211SOL    HW210212   4.620   3.780   3.235  0.7571  1.2429  2.4908
 3212SOL     OW10213   7.663   6.479   3.075  1.2579 -0.3687 -0.5993
 3212SOL    HW110214   7.579   6.482   3.028  0.4183  1.4350  0.8990
 3212SOL    HW210215   7.676   6.386   3.093 -0.4624 -0.6960 -0.8184
 3213SOL     OW10216   6.390   0.412   0.199  0.2871 -0.4103 -0.0834
 3213SOL    HW110217   6.326   0.381   0.263  0.8316  1.0276  1.2065
 3213SOL    HW210218   6.336   0.452   0.130 -0.2463 -0.3306  0.3699
 3214SOL     OW10219   5.885   4.539   6.635 -0.1547 -0.5602 -0.6234
 3214SOL    HW110220   5.896   4.591   6.715  0.2753 -0.9382 -0.4304
 3214SOL    HW210221   5.790   4.531   6.624 -0.2272  0.2582 -0.6568
 3215SOL     OW10222   8.814   7.235   4.691  1.1513  0.4122 -0.1543
 3215SOL    HW110223   8.866   7.227   4.611  0.7051  0.1857 -0.4266
 3215SOL    HW210224   8.854   7.173   4.752  1.3361  0.3969 -0.2919
 3216SOL     OW10225   8.141   9.756   6.009 -0.2167  0.3888 -0.0063
 3216SOL    HW110226   8.078   9.699   5.964  0.1673 -0.7245  0.8319
 3216SOL    HW210227   8.217   9.760   5.950  0.2914 -1.0770  0.5280
 3217SOL     OW10228   2.112   0.090   7.585 -0.6716 -0.5343  0.5830
 3217SOL    HW110229   2.135   0.181   7.604 -1.9103 -0.2623  0.8612
 3217SOL    HW210230   2.194   0.050   7.556  0.1225  0.3915  1.4746
 3218SOL     OW10231   5.046   8.861   3.636 -0.0279 -0.1761 -0.2919
 3218SOL    HW110232   5.061   8.949   3.671  0.7006 -1.5890  3.3833
 3218SOL    HW210233   4.951   8.851   3.636 -0.1378  0.6860 -1.1057
 3219SOL     OW10234   9.459   1.048   4.997 -0.2777  0.9620 -0.1671
 3219SOL    HW110235   9.430   1.136   4.970  0.3342  0.7724 -1.5687
 3219SOL    HW210236   9.542   1.035   4.950  0.1926  0.0514  0.8703
 3220SOL     OW10237   8.324   7.631   5.330  0.3798  0.0636 -0.3561
 3220SOL    HW110238   8.295   7.543   5.306  1.0329 -1.7416  4.3473
 3220SOL    HW210239   8.414   7.619   5.362  0.0725  2.1495  1.5449
 3221SOL     OW10240   3.137   0.165   7.246 -0.0122 -0.6780 -0.6694
 3221SOL    HW110241   3.119   0.094   7.308 -1.3095  0.6517  0.5721
 3221SOL    HW210242   3.173   0.236   7.300 -1.1723  0.5119 -1.3773
 3222SOL     OW10243   6.957   1.060   0.772  0.3095  0.4770  0.5037
 3222SOL    HW110244   6.971   1.137   0.718 -1.4233  0.7609  0.4054
 3222SOL    HW210245   6.957   1.093   0.862 -3.4201  1.2328  0.3861
 3223SOL     OW10246   9.154   6.739   8.405  0.7276 -0.5155  0.1544
 3223SOL    HW110247   9.101   6.803   8.452  2.8610  0.7138  0.9995
 3223SOL    HW210248   9.139   6.759   8.312 -1.2380 -1.0554  0.3113
 3224SOL     OW10249   8.586   6.090   4.734  0.4071 -0.0020 -0.2267
 3224SOL    HW110250   8.649   6.162   4.736  0.8745 -0.3954 -0.5388
 3224SOL    HW210251   8.524   6.111   4.804  0.3390  0.8765 -0.5363
 3225SOL     OW10252   9.625   0.132   0.446  0.0786 -0.1442 -0.2307
 3225SOL    HW110253   9.600   0.060   0.504 -1.0950 -0.1634 -0.7302
 3225SOL    HW210254   9.662   0.198   0.504  0.0841 -0.6697  0.3810
 3226SOL     OW10255   7.728   2.037   1.525 -0.1287  0.0196 -0.4482
 3226SOL    HW110256   7.720   1.950   1.563 -0.2321 -0.0675 -0.6690
 3226SOL    HW210257   7.704   2.097   1.596  0.8429 -0.0870 -0.0121
 3227SOL     OW10258   4.730   3.253   2.221 -0.0003 -0.8053 -0.2800
 3227SOL    HW110259   4.694   3.169   2.249  1.0536 -0.8683  0.9851
 3227SOL    HW210260   4.803   3.229   2.164 -0.6857 -0.7107 -1.2111
 3228SOL     OW10261   8.049   0.769   6.965 -0.1893  0.0381 -0.1105
 3228SOL    HW110262   8.075   0.677   6.956 -0.4336 -0.1015  0.5504
 3228SOL    HW210263   8.034   0.798   6.875  0.5252 -0.3785 -0.3772
 3229SOL     OW10264   6.400   1.545   1.088  0.0188  0.1557  0.6307
 3229SOL    HW110265   6.440   1.569   1.172  1.3446 -0.9701  0.3639
 3229SOL    HW210266   6.460   1.581   1.022 -0.2321 -0.2301  0.1853
 3230SOL     OW10267   7.317   4.067   1.341 -0.2209 -0.0785 -0.6877
 3230SOL    HW110268   7.228   4.083   1.308  0.0579  2.6988 -0.3339
 3230SOL    HW210269   7.369   4.139   1.306  1.5757 -0.7921  0.3713
 3231SOL     OW10270   8.811   1.355   2.527  0.1308 -0.3609 -0.0100
 3231SOL    HW110271   8.756   1.344   2.604 -0.8492 -2.0969 -0.9009
 3231SOL    HW210272   8.758   1.404   2.466  1.6124  2.7930  1.0221
 3232SOL     OW10273   4.139   7.243   9.130 -0.2395 -0.2120 -0.0392
 3232SOL    HW110274   4.097   7.296   9.062 -0.7892 -0.7866 -0.1611
 3232SOL    HW210275   4.225   7.223   9.094 -0.4946 -0.4380 -0.5420
 3233SOL     OW10276   8.390   9.523   5.615 -0.4804 -0.4138 -0.3860
 3233SOL    HW110277   8.323   9.465   5.651 -0.2578 -0.3060  0.2148
 3233SOL    HW210278   8.371   9.527   5.521 -1.1117 -0.6505 -0.2717
 3234SOL     OW10279   2.886   0.517   1.761  0.5147 -0.5619  0.2883
 3234SOL    HW110280   2.927   0.442   1.805 -0.5965 -0.8366  0.9097
 3234SOL    HW210281   2.855   0.482   1.678 -0.8265 -1.0671  0.9673
 3235SOL     OW10282   9.734   0.515   3.270  0.6392  0.0250  0.5935
 3235SOL    HW110283   9.670   0.584   3.253 -0.3739 -0.8615  0.7620
 3235SOL    HW210284   9.700   0.438   3.225  0.7242 -0.9024  2.0445
 3236SOL     OW10285   1.203   8.072   5.999  0.3747 -0.3604 -0.0831
 3236SOL    HW110286   1.268   8.024   5.947  0.1290  1.2077 -1.9514
 3236SOL    HW210287   1.240   8.159   6.010 -0.6535  0.0457  0.3273
 3237SOL     OW10288   3.540   5.453   5.817 -0.4542  0.4082  0.3084
 3237SOL    HW110289   3.496   5.403   5.748  1.5201  1.4494 -1.8521
 3237SOL    HW210290   3.494   5.536   5.819  0.2069  0.8163 -0.6479
 3238SOL     OW10291   1.857   0.540   3.934  0.6577 -0.2972  1.0287
 3238SOL    HW110292   1.849   0.588   4.016 -0.2773  1.5370 -0.0568
 3238SOL    HW210293   1.819   0.599   3.868  2.4714 -1.1624 -0.9189
 3239SOL     OW10294   5.458   8.560   0.887  0.2875  0.5362  0.1080
 3239SOL    HW110295   5.422   8.472   0.873  1.1836  0.1837 -0.0398
 3239SOL    HW210296   5.410   8.593   0.963 -0.8784  0.3834 -0.5447
 3240SOL     OW10297   1.012   1.762   5.064 -0.4724 -0.1920  0.0603
 3240SOL    HW110298   1.030   1.811   5.144 -2.0634 -0.4314  0.6088
 3240SOL    HW210299   1.064   1.682   5.072  1.3894  0.9099 -0.3903
 3241SOL     OW10300   9.017   0.595   4.755 -0.4847 -0.8110  0.2025
 3241SOL    HW110301   8.949   0.642   4.708 -0.6067  1.0992  2.1256
 3241SOL    HW210302   9.090   0.590   4.693 -1.6659 -1.1992 -1.2194
 3242SOL     OW10303   4.478   8.515   7.550  0.1316 -0.0630 -0.3870
 3242SOL    HW110304   4.436   8.436   7.516  1.3504 -1.4176  1.0620
 3242SOL    HW210305   4.425   8.587   7.516 -2.5274 -1.5781  0.2064
 3243SOL     OW10306   9.292   4.516   9.088  0.1956  0.1006 -0.3296
 3243SOL    HW110307   9.342   4.549   9.013 -1.7114  0.3074 -1.5649
 3243SOL    HW210308   9.327   4.428   9.103  0.2442 -0.1629 -1.8347
 3244SOL     OW10309   9.644   9.765   7.454  0.1471  0.2636  0.0064
 3244SOL    HW110310   9.631   9.671   7.442  0.8624  0.1991 -0.3201
 3244SOL    HW210311   9.653   9.799   7.365 -0.6482  0.7354  0.0921
 3245SOL     OW10312   4.495   6.432   6.659 -0.3720  0.4820  0.1883
 3245SOL    HW110313   4.428   6.440   6.727 -0.4126 -0.7864  0.3243
 3245SOL    HW210314   4.574   6.469   6.699 -0.0639 -1.3635  1.4527
 3246SOL     OW10315   2.584   9.594   1.842  0.0425 -0.6182 -0.2104
 3246SOL    HW110316   2.621   9.625   1.760 -0.1963  1.4481  0.4062
 3246SOL    HW210317   2.600   9.665   1.904 -2.2391 -0.9039  0.8208
 3247SOL     OW10318   2.826   4.695   0.019 -0.5054  0.6617  0.3573
 3247SOL    HW110319   2.912   4.733   0.035 -0.7118  1.8691 -1.1454
 3247SOL    HW210320   2.845   4.606  -0.012  0.0887  0.2297  1.8965
 3248SOL     OW10321   0.034   8.371   2.066 -0.0239  0.0649  0.1526
 3248SOL    HW110322  -0.039   8.428   2.041 -0.4483  0.5406  2.2959
 3248SOL    HW210323   0.079   8.419   2.135  0.7156 -1.3987  0.7273
 3249SOL     OW10324   5.515   8.842   4.089 -0.3602 -0.2474  0.1836
 3249SOL    HW110325   5.519   8.822   4.182  2.4151  3.3373  1.0645
 3249SOL    HW210326   5.573   8.776   4.049 -1.8001 -1.9969  0.8483
 3250SOL     OW10327   1.553   5.122   3.744  0.6025 -0.0887 -0.2112
 3250SOL    HW110328   1.552   5.104   3.838  1.0471 -0.0910 -0.2055
 3250SOL    HW210329   1.468   5.162   3.726  1.3253  1.9967  0.6194
 3251SOL     OW10330   5.073   7.510   1.344 -0.0689 -0.7480  0.3758
 3251SOL    HW110331   5.095   7.470   1.260  0.5709 -1.9525  1.0855
 3251SOL    HW210332   5.006   7.453   1.381 -0.0613 -0.4479  0.8589
 3252SOL     OW10333   8.177   1.413   0.992  0.1495 -0.1618 -0.2450
 3252SOL    HW110334   8.135   1.468   1.058 -0.5878 -1.9199  0.8359
 3252SOL    HW210335   8.244   1.469   0.953 -0.1081  1.2752  1.2540
 3253SOL     OW10336   9.476   0.677   0.789 -0.4874 -0.4967  0.7516
 3253SOL    HW110337   9.529   0.757   0.792 -0.1392 -0.6456 -0.4954
 3253SOL    HW210338   9.422   0.680   0.867 -0.9102  1.2620  0.4167
 3254SOL     OW10339   9.238   9.570   3.682 -0.3380 -0.6414 -0.2272
 3254SOL    HW110340   9.199   9.604   3.763 -2.4938 -0.1961 -1.3606
 3254SOL    HW210341   9.330   9.595   3.687 -1.0538  2.1711  0.6698
 3255SOL     OW10342   0.420   4.163   0.602 -0.5625 -0.0547 -0.1140
 3255SOL    HW110343   0.347   4.208   0.644  0.1473  1.2940 -0.2734
 3255SOL    HW210344   0.476   4.136   0.675 -0.1080  0.9119 -0.0900
 3256SOL     OW10345   4.168   5.116   9.099  0.4733 -0.2326 -0.2512
 3256SOL    HW110346   4.234   5.153   9.039 -0.0089  0.3127 -0.4534
 3256SOL    HW210347   4.095   5.091   9.043  0.2680 -0.2950  0.0401
 3257SOL     OW10348   8.422   0.625   0.937 -0.1160 -0.1416 -0.1255
 3257SOL    HW110349   8.503   0.591   0.898  0.8919  1.7713  0.1746
 3257SOL    HW210350   8.386   0.551   0.986  2.1050 -0.7345  0.7343
 3258SOL     OW10351   0.718   2.390   8.097 -0.5757 -0.4301  0.1529
 3258SOL    HW110352   0.684   2.337   8.025 -2.1149  0.3315  0.2715
 3258SOL    HW210353   0.805   2.416   8.068 -0.9228 -0.6536 -1.1739
 3259SOL     OW10354   0.448   6.423   2.390  0.1571 -0.1936  0.2034
 3259SOL    HW110355   0.409   6.510   2.397 -0.8738 -0.5930 -0.3152
 3259SOL    HW210356   0.492   6.410   2.474  0.8200  1.0429  0.0766
 3260SOL     OW10357   3.101   3.663   3.997 -0.0207 -0.0175  0.4035
 3260SOL    HW110358   3.093   3.758   4.005  1.5346  0.1553  0.3829
 3260SOL    HW210359   3.016   3.634   3.967 -0.9750  1.2045  1.7809
 3261SOL     OW10360   6.015   9.587   2.150  0.8061  0.6120 -0.2042
 3261SOL    HW110361   6.044   9.590   2.242  2.9706 -1.7108 -0.7034
 3261SOL    HW210362   6.089   9.621   2.100  0.4741 -0.1204 -1.2244
 3262SOL     OW10363   2.385   6.119   1.701 -0.1702  0.4536 -0.0001
 3262SOL    HW110364   2.356   6.209   1.717  3.8619  2.0074 -0.2036
 3262SOL    HW210365   2.431   6.123   1.617  0.2210 -1.7640  0.0517
 3263SOL     OW10366   3.484   6.394   2.184 -0.5364  0.0227  0.1861
 3263SOL    HW110367   3.408   6.448   2.164 -1.6786 -0.8027  2.0485
 3263SOL    HW210368   3.451   6.326   2.244  1.5434 -0.6843  0.6300
 3264SOL     OW10369   6.754   0.165   1.441 -0.3709 -0.2884 -0.2035
 3264SOL    HW110370   6.810   0.232   1.479  0.0901  0.7983 -2.5943
 3264SOL    HW210371   6.710   0.125   1.515  0.4494  1.6625  1.4166
 3265SOL     OW10372   6.272   2.886   3.550  0.3993  0.0970 -0.0170
 3265SOL    HW110373   6.346   2.853   3.499  1.2715  0.4270  1.0068
 3265SOL    HW210374   6.195   2.865   3.496  1.2005 -0.4953 -0.9730
 3266SOL     OW10375   0.880   8.556   3.478 -0.0650  0.0732 -0.7903
 3266SOL    HW110376   0.875   8.627   3.414 -0.1018 -0.7563 -1.7379
 3266SOL    HW210377   0.805   8.501   3.459 -1.0822  0.7116  1.1343
 3267SOL     OW10378   7.294   2.262   2.734  0.0158  0.3132 -0.1247
 3267SOL    HW110379   7.347   2.188   2.763 -0.8470 -0.0390  0.6293
 3267SOL    HW210380   7.356   2.333   2.722  0.8691 -0.5384 -0.9098
 3268SOL     OW10381   6.331   7.117   7.084 -0.2729 -0.3515  0.1403
 3268SOL    HW110382   6.331   7.031   7.127  0.0447 -0.5948 -0.3268
 3268SOL    HW210383   6.399   7.109   7.016 -0.7524  0.0263 -0.3906
 3269SOL     OW10384   2.238   0.728   7.433 -0.7395  0.2387 -0.4286
 3269SOL    HW110385   2.203   0.728   7.522  0.4360 -0.1225  0.0507
 3269SOL    HW210386   2.296   0.652   7.429  1.9107  2.1147 -0.3772
 3270SOL     OW10387   1.365   7.473   5.176 -0.7034  0.1933 -0.0569
 3270SOL    HW110388   1.284   7.524   5.175  0.7093  2.5728 -1.4272
 3270SOL    HW210389   1.431   7.531   5.138  1.3914 -2.1301 -0.2310
 3271SOL     OW10390   3.235   8.460   1.873  0.4416  0.1007 -1.0529
 3271SOL    HW110391   3.153   8.462   1.923  0.8619 -1.9381 -0.1958
 3271SOL    HW210392   3.219   8.518   1.799 -0.2286  3.2627  1.3383
 3272SOL     OW10393   0.798   8.507   0.756 -0.0433  0.3045 -0.3137
 3272SOL    HW110394   0.846   8.562   0.818 -0.2396  0.8391 -0.6346
 3272SOL    HW210395   0.709   8.505   0.791 -0.2370  0.8946 -0.7665
 3273SOL     OW10396   9.417   7.587   7.832  0.0270  0.1352 -0.1517
 3273SOL    HW110397   9.401   7.678   7.857 -0.6580  0.1276 -0.5270
 3273SOL    HW210398   9.487   7.592   7.767  1.3485  0.2102  1.2458
 3274SOL     OW10399   2.722   5.906   4.230 -0.1993 -0.0039 -0.0694
 3274SOL    HW110400   2.787   5.837   4.244  0.7409  0.6610 -0.9558
 3274SOL    HW210401   2.731   5.929   4.138 -1.0273  0.7712  0.0281
 3275SOL     OW10402   6.166   4.523   0.529  0.3426  0.4560  0.1577
 3275SOL    HW110403   6.076   4.537   0.558  0.1050  2.4032 -1.3629
 3275SOL    HW210404   6.178   4.585   0.457  1.9052 -1.9434 -1.7925
 3276SOL     OW10405   3.381   3.511   4.963  0.2858 -0.1916 -0.3047
 3276SOL    HW110406   3.469   3.550   4.960  0.3341 -0.0031  1.8782
 3276SOL    HW210407   3.395   3.424   5.001 -0.5713  0.3579  1.3714
 3277SOL     OW10408   6.798   3.013   5.121  0.9383  0.6052  0.7108
 3277SOL    HW110409   6.826   2.926   5.150 -0.2495  0.2548  0.8651
 3277SOL    HW210410   6.716   3.028   5.167 -1.6572 -0.4288 -3.1308
 3278SOL     OW10411   8.468   4.362   2.241 -0.0663  0.2671 -0.1486
 3278SOL    HW110412   8.411   4.406   2.304 -0.7618  0.8953 -1.1785
 3278SOL    HW210413   8.416   4.288   2.209 -0.4152  0.9359 -1.2117
 3279SOL     OW10414   9.395   2.361   0.121  0.4327 -0.3228 -0.6187
 3279SOL    HW110415   9.345   2.336   0.199  2.2729  0.5466  0.9215
 3279SOL    HW210416   9.484   2.374   0.153  1.0593  0.9818 -2.7194
 3280SOL     OW10417   9.445   1.806   6.185  0.9879  0.0332  0.2907
 3280SOL    HW110418   9.397   1.767   6.112  0.2779  0.4674  0.5171
 3280SOL    HW210419   9.410   1.761   6.262  0.8544  0.4352  0.4667
 3281SOL     OW10420   3.756   7.214   4.794  0.5859 -0.8254  0.2648
 3281SOL    HW110421   3.806   7.136   4.766 -0.5799 -2.1101  1.5966
 3281SOL    HW210422   3.715   7.245   4.713  1.3094 -1.4001 -0.3486
 3282SOL     OW10423   3.694   8.530   9.734 -0.2375  0.2063 -0.3290
 3282SOL    HW110424   3.658   8.470   9.669 -0.5650  1.1615 -1.0454
 3282SOL    HW210425   3.684   8.617   9.695 -0.1080  0.7640  0.8454
 3283SOL     OW10426   8.815   2.975   1.345 -0.9650  0.4572 -0.3203
 3283SOL    HW110427   8.906   2.964   1.374 -0.9074  0.9920 -0.2919
 3283SOL    HW210428   8.771   3.017   1.419 -1.1893  0.3786 -0.4087
 3284SOL     OW10429   9.623   9.848   6.945 -0.1312  0.2887  0.0050
 3284SOL    HW110430   9.572   9.771   6.921 -0.6424  0.8629 -0.8008
 3284SOL    HW210431   9.665   9.825   7.028 -0.9907 -0.5241  0.2220
 3285SOL     OW10432   8.874   7.200   5.140 -0.5157  0.1954  0.0384
 3285SOL    HW110433   8.938   7.252   5.189 -1.4229  0.3154  1.1398
 3285SOL    HW210434   8.881   7.112   5.178  0.8549 -0.4795 -1.6610
 3286SOL     OW10435   2.253   3.869   2.729 -0.5456  0.2416 -0.3940
 3286SOL    HW110436   2.205   3.820   2.662  0.4008 -1.7600  0.3184
 3286SOL    HW210437   2.330   3.902   2.683 -0.8884  0.5847 -0.7365
 3287SOL     OW10438   6.693   0.048   6.403  0.3933  0.0897  0.0331
 3287SOL    HW110439   6.782   0.083   6.400  0.6816 -0.6682 -0.3474
 3287SOL    HW210440   6.688   0.000   6.485  1.3798 -2.5247 -1.3067
 3288SOL     OW10441   1.336   7.120   2.775  0.3413  0.0313 -0.4093
 3288SOL    HW110442   1.246   7.089   2.778  0.4967 -0.3832  1.6031
 3288SOL    HW210443   1.351   7.160   2.860  1.6633  1.3360 -1.1938
 3289SOL     OW10444   1.133   8.323   0.729  0.4479 -0.3467  0.1828
 3289SOL    HW110445   1.089   8.350   0.648 -1.0482 -0.2626  0.9788
 3289SOL    HW210446   1.222   8.300   0.702  0.5887  1.5701 -1.1541
 3290SOL     OW10447   2.814   9.353   6.107  0.3522 -0.7183  0.3252
 3290SOL    HW110448   2.755   9.397   6.168  0.3753  1.6915 -1.2490
 3290SOL    HW210449   2.759   9.288   6.063 -0.7225  0.3160  0.0864
 3291SOL     OW10450   4.641   1.921   3.748  0.5704  0.1856 -0.3830
 3291SOL    HW110451   4.624   2.014   3.766  5.6487  1.6229 -1.1480
 3291SOL    HW210452   4.701   1.894   3.818 -1.6596 -3.0276  0.4895
 3292SOL     OW10453   5.405   1.073   4.257  0.1728 -0.0520  0.6084
 3292SOL    HW110454   5.451   1.004   4.208  0.8642  0.5124  0.4481
 3292SOL    HW210455   5.362   1.126   4.189 -0.6861 -0.5410  0.7536
 3293SOL     OW10456   7.402   7.166   4.476  0.5780 -0.4874  0.4085
 3293SOL    HW110457   7.474   7.167   4.539 -0.0585 -0.8799  1.1645
 3293SOL    HW210458   7.445   7.164   4.391  1.4663  0.8164  0.7872
 3294SOL     OW10459   0.166   9.713   7.358 -0.1259 -0.7888  0.6551
 3294SOL    HW110460   0.111   9.635   7.359  0.4618 -1.2198  0.2396
 3294SOL    HW210461   0.217   9.705   7.278  0.3913 -0.2974  0.9274
 3295SOL     OW10462   5.161   5.754   7.158 -0.2919 -0.3784  0.4524
 3295SOL    HW110463   5.066   5.754   7.168 -0.3051 -2.1176  0.7337
 3295SOL    HW210464   5.176   5.747   7.064 -0.4417 -0.2099  0.4161
 3296SOL     OW10465   3.622   1.393   0.915  0.1001 -0.4370 -0.5837
 3296SOL    HW110466   3.575   1.345   0.983 -2.8784  0.2141 -2.0345
 3296SOL    HW210467   3.647   1.475   0.956 -0.0907 -0.7612  0.1992
 3297SOL     OW10468   4.191   9.273   3.088 -0.3694 -0.1013 -0.1732
 3297SOL    HW110469   4.156   9.235   3.168  0.5074 -2.3982 -0.8137
 3297SOL    HW210470   4.284   9.250   3.088 -0.6188 -1.3833 -2.4788
 3298SOL     OW10471   2.471   5.354   4.324  0.2766 -0.2110 -0.1959
 3298SOL    HW110472   2.453   5.446   4.302 -0.3919  0.1589  1.6753
 3298SOL    HW210473   2.385   5.318   4.347  0.7560 -0.8099  0.7360
 3299SOL     OW10474   3.423   1.357   3.681  0.1747 -0.0698 -0.3487
 3299SOL    HW110475   3.345   1.412   3.689 -0.5112 -1.0684 -0.0084
 3299SOL    HW210476   3.434   1.344   3.587  0.4086  0.7232 -0.4388
 3300SOL     OW10477   6.881   1.304   4.409  0.2302 -0.0346 -0.3382
 3300SOL    HW110478   6.936   1.292   4.487 -0.3665 -2.0187 -0.1655
 3300SOL    HW210479   6.899   1.393   4.380  1.8450  0.1154  1.0083
 3301SOL     OW10480   9.414   3.921   6.983  0.4051 -0.4976 -0.2919
 3301SOL    HW110481   9.375   3.909   6.897 -0.2379 -1.1034  0.0736
 3301SOL    HW210482   9.345   3.895   7.045  1.3520 -1.5591  0.3725
 3302SOL     OW10483   5.932   9.383   1.993 -0.2656  0.2812 -0.1071
 3302SOL    HW110484   5.950   9.437   1.916  0.2225 -0.6214 -0.6292
 3302SOL    HW210485   5.935   9.445   2.066 -0.6155  1.1232 -0.7894
 3303SOL     OW10486   3.017   4.939   2.226  0.1576 -0.2745  0.2894
 3303SOL    HW110487   2.997   5.031   2.237 -0.2730 -0.5434  2.1102
 3303SOL    HW210488   3.010   4.923   2.132  0.9903  1.6899 -0.1483
 3304SOL     OW10489   8.649   4.639   2.310  0.7943 -0.0173  0.1589
 3304SOL    HW110490   8.739   4.652   2.341  1.3888  1.1304 -1.8880
 3304SOL    HW210491   8.641   4.544   2.301  1.0055 -0.3128  2.4508
 3305SOL     OW10492   3.181   5.589   2.288 -0.0039 -0.4594  0.3289
 3305SOL    HW110493   3.244   5.656   2.314 -1.0019  0.7643 -0.3299
 3305SOL    HW210494   3.218   5.551   2.209 -0.7937  1.3368 -0.9631
 3306SOL     OW10495   2.127   5.511   9.662 -0.0472  0.4035 -0.2057
 3306SOL    HW110496   2.153   5.584   9.719 -0.5122  0.5676 -0.2017
 3306SOL    HW210497   2.038   5.489   9.690 -0.0606  0.0993 -0.4799
 3307SOL     OW10498   2.135   7.507   4.101  0.1666 -0.7918 -0.0812
 3307SOL    HW110499   2.185   7.561   4.041 -1.8835  1.7730  0.3289
 3307SOL    HW210500   2.043   7.524   4.078 -0.6666 -0.8027  2.7686
 3308SOL     OW10501   9.026   0.649   9.668 -0.1969 -0.3652 -0.0821
 3308SOL    HW110502   8.946   0.597   9.661 -1.0398  0.6969  1.1560
 3308SOL    HW210503   9.086   0.594   9.718 -0.3133 -0.9798 -0.6089
 3309SOL     OW10504   4.978   3.169   0.826 -0.1468 -0.3554  0.0805
 3309SOL    HW110505   4.945   3.086   0.859  0.9049 -0.2536  1.5186
 3309SOL    HW210506   4.922   3.235   0.867  1.1847 -0.2267  1.8051
 3310SOL     OW10507   3.785   7.478   9.408  0.2402 -0.0069 -0.1269
 3310SOL    HW110508   3.850   7.412   9.382 -0.2283 -1.0468  1.1990
 3310SOL    HW210509   3.816   7.559   9.369  3.2001 -0.1348  1.6650
 3311SOL     OW10510   7.830   3.574   7.488 -0.2139  0.7651 -0.4138
 3311SOL    HW110511   7.863   3.658   7.453 -1.2163  1.4142  0.1619
 3311SOL    HW210512   7.775   3.540   7.418 -0.2853  0.8764 -0.4124
 3312SOL     OW10513   0.153   0.240   0.378 -0.0123 -0.6915 -0.5480
 3312SOL    HW110514   0.059   0.247   0.360  0.1182  1.8502 -0.6486
 3312SOL    HW210515   0.173   0.319   0.429  1.5880 -2.5480  1.9346
 3313SOL     OW10516   2.601   9.930   7.759 -0.2056  0.4627  0.0474
 3313SOL    HW110517   2.628  10.022   7.752 -0.5667  0.6026  0.4612
 3313SOL    HW210518   2.517   9.933   7.805 -0.5069 -0.0327 -0.4655
 3314SOL     OW10519   4.563   7.746   2.953  0.5377  0.6301  0.4379
 3314SOL    HW110520   4.569   7.758   3.047  0.5450 -0.7414  0.6237
 3314SOL    HW210521   4.638   7.691   2.930  0.0146  0.1648 -0.2213
 3315SOL     OW10522   7.789   1.451   4.023 -0.1774 -0.1941  0.5373
 3315SOL    HW110523   7.787   1.398   4.103  0.2964  2.3132  2.3492
 3315SOL    HW210524   7.714   1.510   4.031 -1.4883 -1.3588 -2.0701
 3316SOL     OW10525   6.834   9.180   8.135 -0.1882  0.6062  0.3194
 3316SOL    HW110526   6.745   9.166   8.167 -0.6933  0.9402 -0.8628
 3316SOL    HW210527   6.856   9.268   8.164  0.1309  0.1770  1.4175
 3317SOL     OW10528   1.964   2.973   9.150 -0.7572  0.0576 -0.1595
 3317SOL    HW110529   1.930   2.984   9.062 -0.3027  0.5412 -0.2855
 3317SOL    HW210530   2.043   3.028   9.152 -0.8077  0.1159  0.5687
 3318SOL     OW10531   1.012   4.263   7.131 -0.9227  1.1364  0.0248
 3318SOL    HW110532   1.019   4.188   7.071  0.2476  1.2101  0.0556
 3318SOL    HW210533   1.079   4.324   7.101 -0.8320  1.5049  0.9521
 3319SOL     OW10534   0.878   2.633   0.089  0.0573 -0.7708 -0.0331
 3319SOL    HW110535   0.921   2.625   0.174 -0.3460 -0.9203  0.1560
 3319SOL    HW210536   0.799   2.579   0.096  0.1964 -1.0646 -0.6148
 3320SOL     OW10537   1.767   3.588   5.955 -0.4826 -0.6530  0.4937
 3320SOL    HW110538   1.734   3.610   6.042 -0.0479 -2.3557  1.1346
 3320SOL    HW210539   1.740   3.662   5.899 -0.1996  0.8017  2.1815
 3321SOL     OW10540   2.244   1.419   5.293 -0.3755 -0.4128  0.2472
 3321SOL    HW110541   2.177   1.462   5.240 -1.4659 -1.9589  0.3100
 3321SOL    HW210542   2.196   1.352   5.342  0.2568  1.7946  4.3165
 3322SOL     OW10543   1.723   9.868   3.356  0.1395  0.1097  0.3000
 3322SOL    HW110544   1.655   9.929   3.329 -0.4150 -0.3370  0.6666
 3322SOL    HW210545   1.718   9.796   3.292  0.4917  0.2348  0.1308
 3323SOL     OW10546   3.492   2.130   2.837 -0.0918 -0.3984 -0.4349
 3323SOL    HW110547   3.508   2.066   2.906 -1.1885 -0.3830 -0.1482
 3323SOL    HW210548   3.576   2.174   2.825  0.0194 -0.1091  1.1986
 3324SOL     OW10549   9.925   6.352   5.795 -0.0962  0.0131 -0.3619
 3324SOL    HW110550   9.914   6.420   5.728  1.2720 -0.0176 -0.6414
 3324SOL    HW210551   9.924   6.270   5.746  0.0915 -0.0533 -0.2562
 3325SOL     OW10552   3.677   4.295   2.165 -0.7752  0.2539  0.4662
 3325SOL    HW110553   3.590   4.254   2.162 -1.7909  2.2284  0.8685
 3325SOL    HW210554   3.722   4.261   2.088 -2.2118 -0.2040 -0.2108
 3326SOL     OW10555   5.782   5.109   9.255 -0.1689  0.5295  0.3811
 3326SOL    HW110556   5.723   5.143   9.322 -0.5554  1.0528 -0.2002
 3326SOL    HW210557   5.743   5.026   9.228  0.6942 -0.3362  1.7029
 3327SOL     OW10558   0.502   2.448   6.935 -0.0954  0.1752 -1.0642
 3327SOL    HW110559   0.429   2.504   6.962  0.3556  0.2016  0.1794
 3327SOL    HW210560   0.477   2.417   6.848 -2.3149 -1.0038 -0.0959
 3328SOL     OW10561   6.228   3.326   5.809 -0.3244  0.2506 -0.0205
 3328SOL    HW110562   6.272   3.388   5.868 -1.9350  1.1845  0.2571
 3328SOL    HW210563   6.300   3.282   5.763  0.9375  0.3471  1.7612
 3329SOL     OW10564   0.449   1.112   7.999  0.5861  0.6691  0.1928
 3329SOL    HW110565   0.418   1.041   7.943 -0.3062  0.9320  0.3365
 3329SOL    HW210566   0.384   1.181   7.988  1.2382  1.3183  0.3551
 3330SOL     OW10567   9.490   7.418   0.437 -0.1079  0.0317  0.3097
 3330SOL    HW110568   9.408   7.408   0.389 -0.0938 -0.2603  0.3444
 3330SOL    HW210569   9.481   7.361   0.513 -0.3488  0.9043  0.9504
 3331SOL     OW10570   3.532   9.152   3.893 -0.1633 -0.1476  0.1538
 3331SOL    HW110571   3.552   9.084   3.829 -0.4298 -0.4406  0.3755
 3331SOL    HW210572   3.444   9.129   3.924 -0.4525  0.5657 -0.1164
 3332SOL     OW10573   6.032   2.962   1.919 -0.4420  0.0197 -0.3926
 3332SOL    HW110574   6.065   2.873   1.917  1.3163  0.5822  1.0128
 3332SOL    HW210575   5.972   2.964   1.994 -0.7621 -0.0446 -0.6411
 3333SOL     OW10576   0.284   0.177   3.269 -0.1780  0.9102 -0.1399
 3333SOL    HW110577   0.223   0.111   3.235 -1.5559  1.8857  0.3130
 3333SOL    HW210578   0.238   0.215   3.344  0.2086  2.9256 -0.8557
 3334SOL     OW10579   8.074   7.638   2.423  0.5490 -0.0018 -0.1650
 3334SOL    HW110580   8.126   7.682   2.357 -1.4710  0.6462 -1.4335
 3334SOL    HW210581   8.056   7.705   2.489  1.0149 -0.1325  0.0988
 3335SOL     OW10582   5.210   8.984   6.712  0.3855  0.0128  0.1158
 3335SOL    HW110583   5.129   8.960   6.667  0.5642 -1.1696  0.4003
 3335SOL    HW210584   5.260   9.033   6.647  0.1487 -0.6761 -0.6000
 3336SOL     OW10585   4.280   0.112   2.934  0.7661  0.2960  0.3589
 3336SOL    HW110586   4.372   0.137   2.922  0.6025  0.9909  0.4891
 3336SOL    HW210587   4.271   0.030   2.885  1.8842 -0.7583  1.8144
 3337SOL     OW10588   7.718   7.381   9.807  0.0075 -0.2204 -0.3661
 3337SOL    HW110589   7.645   7.325   9.830 -1.4879  2.1771  1.0819
 3337SOL    HW210590   7.754   7.342   9.727 -2.9778 -1.3622 -1.2620
 3338SOL     OW10591   1.720   3.448   5.308 -0.1478  0.2336 -0.0727
 3338SOL    HW110592   1.714   3.492   5.394 -0.6154 -1.1709  0.6380
 3338SOL    HW210593   1.804   3.402   5.311  0.2067  0.8245 -0.7032
 3339SOL     OW10594   6.207   7.356   4.296 -0.7681  0.0493 -0.1236
 3339SOL    HW110595   6.231   7.314   4.213  0.2046 -0.5075  0.4220
 3339SOL    HW210596   6.163   7.287   4.345 -0.8269  0.2091  0.0463
 3340SOL     OW10597   1.747   4.308   8.568 -0.1124  0.1540  0.0352
 3340SOL    HW110598   1.796   4.369   8.512 -0.8002 -0.3650 -1.1852
 3340SOL    HW210599   1.813   4.248   8.602  0.2867  0.3185 -0.4385
 3341SOL     OW10600   5.267   9.001   5.204 -0.0342 -0.0763 -0.3300
 3341SOL    HW110601   5.214   9.079   5.193  1.7675  1.4348  0.9662
 3341SOL    HW210602   5.332   9.006   5.134 -0.6611 -1.1133 -1.0054
 3342SOL     OW10603   4.948   9.164   7.366  0.5021  0.1156  0.2701
 3342SOL    HW110604   4.962   9.168   7.272 -0.9518 -1.5364 -0.0767
 3342SOL    HW210605   4.856   9.187   7.378  0.9446  1.4294  1.4381
 3343SOL     OW10606   4.874   6.620   5.201  0.2971  0.1344  0.5168
 3343SOL    HW110607   4.948   6.610   5.260 -1.1157  0.3659  2.4499
 3343SOL    HW210608   4.802   6.575   5.246 -0.7296 -0.1566 -1.3232
 3344SOL     OW10609   3.687   9.497   1.688  0.1886  0.3943  0.0991
 3344SOL    HW110610   3.634   9.429   1.647  0.4270  0.9767 -1.2150
 3344SOL    HW210611   3.731   9.452   1.761  1.3708 -1.2041 -1.5294
 3345SOL     OW10612   2.668   9.175   7.835 -0.2523 -0.5170 -0.1424
 3345SOL    HW110613   2.656   9.088   7.875  0.6180 -0.8073 -0.4896
 3345SOL    HW210614   2.742   9.164   7.775  0.7374  0.7814  0.7733
 3346SOL     OW10615   4.475   3.511   8.541  0.1359 -0.3089  0.1861
 3346SOL    HW110616   4.540   3.485   8.606  0.2903  1.2509  0.6884
 3346SOL    HW210617   4.518   3.493   8.457  0.4358 -1.1393  0.5121
 3347SOL     OW10618   2.546   2.430   5.788 -0.0531  0.8780 -0.7775
 3347SOL    HW110619   2.572   2.427   5.696 -1.1807 -0.4378 -1.0778
 3347SOL    HW210620   2.468   2.375   5.793  1.8289 -1.9011  1.5594
 3348SOL     OW10621   4.657   0.884   6.258 -0.4680 -0.0852  0.3148
 3348SOL    HW110622   4.580   0.934   6.286 -0.3330  0.1991  0.1857
 3348SOL    HW210623   4.716   0.950   6.222 -0.2278 -0.3225  0.2716
 3349SOL     OW10624   8.091   0.621   4.454 -0.0977  0.6153 -0.4129
 3349SOL    HW110625   8.130   0.692   4.506 -1.7602  1.3900 -0.1564
 3349SOL    HW210626   8.116   0.642   4.363  0.8555  0.5548 -0.1775
 3350SOL     OW10627   9.606   9.498   2.973  0.4412  0.0121 -0.9499
 3350SOL    HW110628   9.656   9.508   3.054 -2.4970 -0.0475  1.0262
 3350SOL    HW210629   9.564   9.583   2.960 -1.5407 -0.8653 -0.6175
 3351SOL     OW10630   9.082   6.815   8.791  0.1260  0.2486 -0.2177
 3351SOL    HW110631   9.120   6.882   8.734 -0.6254 -0.0938 -1.1498
 3351SOL    HW210632   9.157   6.776   8.835  0.8979 -0.4204 -2.0199
 3352SOL     OW10633   2.744   1.486   0.828  0.2430 -0.1724 -0.2225
 3352SOL    HW110634   2.685   1.561   0.831  1.7789  1.1609 -1.5380
 3352SOL    HW210635   2.705   1.428   0.762  1.8023  2.1190 -3.4486
 3353SOL     OW10636   5.246   2.206   8.488 -0.2193  0.1888 -0.3527
 3353SOL    HW110637   5.341   2.208   8.501 -0.0974 -0.9320 -0.9368
 3353SOL    HW210638   5.210   2.235   8.571  0.6163 -0.5141  0.2667
 3354SOL     OW10639   4.730   3.031   6.415  0.0617  0.2785 -0.0344
 3354SOL    HW110640   4.667   2.974   6.372  2.0301 -2.2586  0.2194
 3354SOL    HW210641   4.705   3.030   6.508 -0.6652  0.9205 -0.2126
 3355SOL     OW10642   1.602   1.199   6.525  0.0989  0.3561  0.1114
 3355SOL    HW110643   1.510   1.183   6.501  0.5052 -0.4135 -1.0345
 3355SOL    HW210644   1.598   1.271   6.588 -1.1876  1.3022 -0.9894
 3356SOL     OW10645   0.704   6.058   2.613 -0.1828 -0.0181  0.1324
 3356SOL    HW110646   0.678   6.015   2.532 -0.4073 -0.6076  0.5101
 3356SOL    HW210647   0.752   6.136   2.585 -1.1320  0.3329 -0.5732
 3357SOL     OW10648   4.155   2.823   7.398  0.2342 -0.0437  0.9118
 3357SOL    HW110649   4.100   2.881   7.451  1.1067  1.1129  0.5775
 3357SOL    HW210650   4.239   2.867   7.393  0.9544 -1.3875  0.7061
 3358SOL     OW10651   2.624   3.019   0.961 -0.2050  0.2620  0.0663
 3358SOL    HW110652   2.589   3.045   1.046 -0.7596 -0.5811  0.1020
 3358SOL    HW210653   2.593   2.930   0.948 -0.1201  0.3796 -1.0205
 3359SOL     OW10654   9.942   0.161   0.997 -0.0986  0.2205  0.2557
 3359SOL    HW110655  10.005   0.090   1.011 -0.9142 -0.5825 -0.0522
 3359SOL    HW210656   9.856   0.118   1.003 -0.5870  0.9853 -0.9692
 3360SOL     OW10657   7.535   7.677   5.675  0.2634 -0.5931 -0.5271
 3360SOL    HW110658   7.478   7.746   5.710  0.5120  0.1159 -1.4829
 3360SOL    HW210659   7.475   7.616   5.632 -0.0196 -1.3329  0.8578
 3361SOL     OW10660   0.118   3.988   1.147  0.0925  0.1840  0.5109
 3361SOL    HW110661   0.201   4.029   1.172  1.0095 -1.0926 -0.3374
 3361SOL    HW210662   0.066   3.989   1.227  0.4958  1.9451  0.8077
 3362SOL     OW10663   6.839   8.133   2.344  0.0092  0.1239  0.2457
 3362SOL    HW110664   6.753   8.092   2.346 -0.4716  1.1058  0.6966
 3362SOL    HW210665   6.897   8.071   2.387 -0.6389 -0.2082  0.6456
 3363SOL     OW10666   1.438   3.406   6.684  0.4359  0.2491 -0.4429
 3363SOL    HW110667   1.384   3.328   6.700  0.1816  0.7896  1.5775
 3363SOL    HW210668   1.508   3.400   6.750  0.4171  1.7070 -0.2711
 3364SOL     OW10669   5.049   7.455   7.233  0.1531  0.5082 -0.0161
 3364SOL    HW110670   5.046   7.463   7.137  0.7570  0.4101 -0.0449
 3364SOL    HW210671   5.140   7.473   7.256 -0.1010  1.0557  0.5924
 3365SOL     OW10672   3.307   8.125   7.159  0.0692  0.1478 -0.2917
 3365SOL    HW110673   3.226   8.143   7.207 -0.4602 -0.6414 -0.8734
 3365SOL    HW210674   3.323   8.032   7.173  1.1395  0.3873  0.1891
 3366SOL     OW10675   0.199   9.839   1.313  0.1305  0.7877 -0.7012
 3366SOL    HW110676   0.276   9.785   1.332 -0.0493  1.1996  1.4954
 3366SOL    HW210677   0.232   9.928   1.311 -0.3972  1.1241  1.6984
 3367SOL     OW10678   8.318   7.201   2.390 -0.5138  0.1198 -0.2013
 3367SOL    HW110679   8.401   7.207   2.343 -0.5518 -1.0443 -0.4517
 3367SOL    HW210680   8.252   7.193   2.321 -0.6778 -0.5130  0.0213
 3368SOL     OW10681   4.718   0.975   5.360 -0.6957  0.3920  0.0089
 3368SOL    HW110682   4.652   0.910   5.385  0.5651 -0.5144  1.0800
 3368SOL    HW210683   4.785   0.925   5.314  0.7881  0.7097  1.7261
 3369SOL     OW10684   2.934   3.953   1.953 -0.0761 -0.4745 -0.4229
 3369SOL    HW110685   2.970   3.944   2.041 -0.5577 -0.5555 -0.2354
 3369SOL    HW210686   2.908   3.865   1.928 -0.4738 -0.3606 -0.4186
 3370SOL     OW10687   3.296   3.064   9.579  0.0700  0.7232  0.0683
 3370SOL    HW110688   3.243   3.095   9.506  1.4931 -0.0313 -1.3501
 3370SOL    HW210689   3.369   3.017   9.538  0.7552 -0.0074  1.9873
 3371SOL     OW10690   9.766   3.973   4.263  0.2564 -0.1394 -0.1394
 3371SOL    HW110691   9.688   4.023   4.237  0.1857 -0.2163 -0.0765
 3371SOL    HW210692   9.836   4.006   4.207 -0.0483 -0.8222 -0.9326
 3372SOL     OW10693   1.371   2.387   1.771 -0.5041  0.0047 -0.1928
 3372SOL    HW110694   1.450   2.372   1.719 -0.4940 -0.9199  0.0653
 3372SOL    HW210695   1.396   2.455   1.834 -0.3588  0.7513 -1.0275
 3373SOL     OW10696   0.644   8.974   4.073 -0.1900 -0.0797  0.0100
 3373SOL    HW110697   0.609   8.891   4.040 -0.4999  0.5225 -1.2631
 3373SOL    HW210698   0.737   8.971   4.052 -0.6248  0.8939 -2.3648
 3374SOL     OW10699   6.050   1.791   8.063  0.0138  0.0885 -0.4193
 3374SOL    HW110700   6.094   1.843   7.996  0.1465 -0.5015 -0.7915
 3374SOL    HW210701   6.114   1.782   8.133 -0.0844  0.6038 -0.2542
 3375SOL     OW10702   5.735   2.786   5.035  0.6522 -0.1627 -0.3080
 3375SOL    HW110703   5.650   2.771   5.075  0.2220 -2.3920 -1.8630
 3375SOL    HW210704   5.715   2.815   4.946  1.5789  2.6724  0.3171
 3376SOL     OW10705   1.261   0.492   0.815  0.5769 -0.2225 -0.2223
 3376SOL    HW110706   1.228   0.408   0.847  0.3839 -0.3186 -0.6610
 3376SOL    HW210707   1.227   0.556   0.877 -0.2664 -0.3432 -0.5385
 3377SOL     OW10708   8.943   6.400   4.419  0.2929 -0.0109  0.5221
 3377SOL    HW110709   8.848   6.412   4.424  0.3376  0.8984 -0.4266
 3377SOL    HW210710   8.955   6.325   4.361  0.1408 -0.9050  1.6226
 3378SOL     OW10711   9.714   4.223   0.345  0.4801  0.2954  0.0881
 3378SOL    HW110712   9.770   4.298   0.362  2.4549 -1.1758  0.3913
 3378SOL    HW210713   9.770   4.147   0.360 -1.6423 -1.2721  0.5221
 3379SOL     OW10714   6.914   6.842   7.346 -0.0339 -0.3223  0.2687
 3379SOL    HW110715   7.000   6.882   7.356  0.9100 -1.8901 -1.0154
 3379SOL    HW210716   6.916   6.767   7.405 -0.6558 -0.1773  0.4820
 3380SOL     OW10717   6.167   3.639   3.245  0.1477  0.3263  0.1864
 3380SOL    HW110718   6.110   3.585   3.299  0.7643  0.4467  0.9789
 3380SOL    HW210719   6.109   3.704   3.206 -0.3648  0.0187  0.4286
 3381SOL     OW10720   7.769   6.635   7.351  0.3021  1.3204  0.3747
 3381SOL    HW110721   7.765   6.547   7.387  2.6669 -0.2502 -2.6495
 3381SOL    HW210722   7.838   6.678   7.402  0.6514  0.6467  0.4871
 3382SOL     OW10723   1.133   4.350   4.562  0.4706 -0.2946  0.0892
 3382SOL    HW110724   1.157   4.440   4.540  0.2823 -0.5594 -1.2690
 3382SOL    HW210725   1.213   4.300   4.546  0.4807 -0.4193  0.5265
 3383SOL     OW10726   1.777   3.258   1.623  0.5139 -0.3847  0.1303
 3383SOL    HW110727   1.681   3.259   1.629  0.3892 -0.8635 -1.3223
 3383SOL    HW210728   1.807   3.272   1.712 -0.9140  0.2253  0.5387
 3384SOL     OW10729   2.657   0.108   5.914 -0.0618  0.4506  0.4007
 3384SOL    HW110730   2.636   0.093   6.006  1.7756 -1.6358  0.5651
 3384SOL    HW210731   2.598   0.048   5.867 -1.4517  1.9750  0.1124
 3385SOL     OW10732   4.003   8.301   7.927  0.2907 -0.2193 -0.3952
 3385SOL    HW110733   4.093   8.282   7.951  0.2497 -0.0546 -0.0978
 3385SOL    HW210734   3.988   8.252   7.847  1.5593  2.0459 -2.1325
 3386SOL     OW10735   2.283   3.343   7.315  0.6884 -0.2359  0.1818
 3386SOL    HW110736   2.269   3.324   7.222  2.2114 -1.0453  0.0886
 3386SOL    HW210737   2.219   3.288   7.361 -1.4311  1.5974 -0.3930
 3387SOL     OW10738   5.279   6.589   5.037 -0.1873  0.3545  0.1780
 3387SOL    HW110739   5.198   6.638   5.025 -1.1816 -1.5714 -1.5954
 3387SOL    HW210740   5.272   6.515   4.977  2.7414 -0.1097  0.2400
 3388SOL     OW10741   8.061   4.919   1.488  0.0779  0.0588 -0.3876
 3388SOL    HW110742   8.139   4.949   1.534  0.9447 -1.8075 -0.5889
 3388SOL    HW210743   8.026   4.849   1.542 -1.9871  1.3740  0.1260
 3389SOL     OW10744   0.808   0.996   5.084  0.0552 -0.1483  0.4578
 3389SOL    HW110745   0.866   1.048   5.029  0.3519 -0.5655  0.3746
 3389SOL    HW210746   0.738   0.967   5.025 -1.0771  1.5903  0.8676
 3390SOL     OW10747   6.330   5.764   5.091 -0.1227 -0.0548 -0.2148
 3390SOL    HW110748   6.258   5.825   5.079  0.7036  0.9512 -0.2663
 3390SOL    HW210749   6.301   5.706   5.161 -1.1085  0.1070 -0.4755
 3391SOL     OW10750   0.847   9.444   1.185 -0.0358  0.7085 -0.6692
 3391SOL    HW110751   0.928   9.403   1.214 -0.7109 -0.6374 -0.6450
 3391SOL    HW210752   0.868   9.538   1.182  0.6232  0.7850  2.4411
 3392SOL     OW10753   1.152   3.931   2.457 -0.0855  0.3252 -0.5081
 3392SOL    HW110754   1.159   4.026   2.459  1.8901  0.3061 -2.4366
 3392SOL    HW210755   1.166   3.908   2.365  0.5025 -1.8765  0.0810
 3393SOL     OW10756   3.181   4.703   0.508  0.0271 -0.0572  0.3983
 3393SOL    HW110757   3.271   4.718   0.481  0.4427  0.6654  2.0575
 3393SOL    HW210758   3.188   4.671   0.598 -1.4153  1.6826  1.1845
 3394SOL     OW10759   9.523   2.280   6.581  0.0186  0.5441 -0.0940
 3394SOL    HW110760   9.487   2.216   6.642  0.4792 -0.7681 -1.1764
 3394SOL    HW210761   9.448   2.338   6.561 -0.5795 -0.0556  0.3664
 3395SOL     OW10762   6.498   3.610   0.198 -1.0503 -0.2845  0.1408
 3395SOL    HW110763   6.467   3.694   0.233 -2.9194 -0.8520 -0.0424
 3395SOL    HW210764   6.527   3.630   0.109  0.6162  0.5451  0.8242
 3396SOL     OW10765   3.934   9.799   5.144 -0.4024  0.2356 -0.1600
 3396SOL    HW110766   3.890   9.792   5.228  0.4318 -0.2641  0.2547
 3396SOL    HW210767   3.911   9.886   5.111 -0.5622  0.5240  0.6882
 3397SOL     OW10768   0.627   3.981   1.332  0.5216 -0.7853  0.2229
 3397SOL    HW110769   0.703   4.024   1.292  1.6949 -2.5976  0.3887
 3397SOL    HW210770   0.599   4.042   1.400  1.7685 -0.0095  0.0909
 3398SOL     OW10771   3.097   2.420   2.494  0.3502 -0.1913  0.5044
 3398SOL    HW110772   3.176   2.398   2.543  0.1984 -0.0016  0.8393
 3398SOL    HW210773   3.026   2.386   2.549  0.2673 -2.4413 -0.8452
 3399SOL     OW10774   9.955   9.875   5.203  0.1121 -0.3749  0.4614
 3399SOL    HW110775   9.886   9.831   5.153  1.0761 -1.5492  0.1343
 3399SOL    HW210776   9.907   9.928   5.268 -1.1006 -0.7443 -0.1002
 3400SOL     OW10777   7.566   2.874   6.460  0.7285 -0.4446  0.1663
 3400SOL    HW110778   7.491   2.932   6.472  1.5086  0.4882  0.6386
 3400SOL    HW210779   7.642   2.932   6.456  1.5402 -1.4292  0.6462
 3401SOL     OW10780   5.427   5.029   6.948  0.4137 -0.1133 -0.5397
 3401SOL    HW110781   5.358   5.021   6.882 -0.9077 -1.0399  0.8801
 3401SOL    HW210782   5.382   5.061   7.026  1.9312  0.9190 -0.0321
 3402SOL     OW10783   1.820   8.317   5.665 -0.6761 -0.4149  0.8838
 3402SOL    HW110784   1.774   8.255   5.721 -0.0166 -1.6234  0.1442
 3402SOL    HW210785   1.889   8.265   5.624  0.3131  0.9713  0.7229
 3403SOL     OW10786   1.831   4.467   7.006  0.0955  0.0244 -0.0228
 3403SOL    HW110787   1.822   4.562   7.018  0.7135  0.1404 -0.4758
 3403SOL    HW210788   1.895   4.457   6.936 -1.8601 -0.6997 -1.8127
 3404SOL     OW10789   3.640   2.945   2.885 -0.3774  0.3782 -0.8314
 3404SOL    HW110790   3.630   2.905   2.799 -1.1092 -0.7235 -0.2699
 3404SOL    HW210791   3.567   3.007   2.891 -0.7462 -0.0577 -0.7457
 3405SOL     OW10792   3.367   4.104   0.633  0.2863 -0.3096 -0.3324
 3405SOL    HW110793   3.313   4.123   0.710  1.8582  0.1333  0.7093
 3405SOL    HW210794   3.346   4.174   0.571  1.2646  1.1707  0.9390
 3406SOL     OW10795   7.221   9.674   0.131 -0.3347 -0.0842 -0.5050
 3406SOL    HW110796   7.268   9.637   0.056 -0.8136  0.3057 -1.0060
 3406SOL    HW210797   7.248   9.620   0.205 -0.3388 -0.8722 -1.0622
 3407SOL     OW10798   7.421   5.044   5.037 -0.1754 -0.2039 -0.0869
 3407SOL    HW110799   7.393   4.959   5.073  2.6526 -1.1854  0.0520
 3407SOL    HW210800   7.352   5.105   5.063 -2.6506 -2.5393 -0.7622
 3408SOL     OW10801   6.042   9.232   1.171  0.4527  0.1653  0.4370
 3408SOL    HW110802   6.134   9.256   1.166  0.7220 -0.6177  1.5356
 3408SOL    HW210803   5.998   9.295   1.112  1.7453  0.1186 -0.6103
 3409SOL     OW10804   8.454   3.938   1.335  0.5709  0.1135 -0.4740
 3409SOL    HW110805   8.440   3.912   1.244 -1.9109  1.2317 -0.4756
 3409SOL    HW210806   8.488   4.028   1.328  1.4945 -0.2070 -0.2852
 3410SOL     OW10807   1.322   5.929   4.212 -0.5191 -0.0039 -0.7813
 3410SOL    HW110808   1.305   5.875   4.289  2.2313  0.6561  0.4202
 3410SOL    HW210809   1.260   6.001   4.218 -0.3209  0.0500  0.8446
 3411SOL     OW10810   7.333   9.600   9.602  0.0539  0.1706 -0.3502
 3411SOL    HW110811   7.413   9.652   9.599 -0.5387  1.0980 -0.3670
 3411SOL    HW210812   7.264   9.660   9.575 -0.9721 -0.0002  1.7490
 3412SOL     OW10813   8.708   6.662   1.642 -0.0045 -0.0397  0.2718
 3412SOL    HW110814   8.761   6.739   1.661  0.2903  0.1783 -1.2769
 3412SOL    HW210815   8.771   6.590   1.635  0.3107  0.3834 -2.5053
 3413SOL     OW10816   3.182   4.208   2.323 -0.2200 -0.3198 -0.0287
 3413SOL    HW110817   3.205   4.115   2.321  0.0063 -0.2544 -1.0927
 3413SOL    HW210818   3.265   4.253   2.341 -0.4072 -0.3313  0.9364
 3414SOL     OW10819   3.874   5.944   1.841 -1.0523 -0.5708 -0.2274
 3414SOL    HW110820   3.822   5.876   1.799  0.1631 -0.9446 -1.1578
 3414SOL    HW210821   3.964   5.928   1.813 -0.4305  0.1506  1.2335
 3415SOL     OW10822   9.066   5.490   9.909 -0.0615 -0.1121 -0.2120
 3415SOL    HW110823   9.075   5.437   9.829 -1.0502  0.8800 -1.0149
 3415SOL    HW210824   9.133   5.455   9.968  2.8013  1.0498 -2.5297
 3416SOL     OW10825   0.526   3.344   9.334  0.0533 -0.6617 -0.0886
 3416SOL    HW110826   0.525   3.380   9.423 -0.0018  0.1041 -0.3916
 3416SOL    HW210827   0.537   3.249   9.346  1.6132 -0.4110  0.6826
 3417SOL     OW10828   5.126   3.660   2.421 -0.6420  0.2454 -0.2252
 3417SOL    HW110829   5.084   3.742   2.394 -1.1598  0.1897  0.3936
 3417SOL    HW210830   5.064   3.620   2.482  0.0538 -0.1264  0.2520
 3418SOL     OW10831   4.103   6.987   9.455 -0.1494  0.1751 -0.3997
 3418SOL    HW110832   4.113   7.082   9.446 -0.4113  0.4189  1.3735
 3418SOL    HW210833   4.187   6.958   9.491 -0.8498  0.1214  1.2786
 3419SOL     OW10834   4.856   5.950   5.674  0.1515 -0.1643  0.1116
 3419SOL    HW110835   4.916   5.875   5.664 -0.2424 -0.7256  1.6083
 3419SOL    HW210836   4.913   6.023   5.697  0.6298  0.2337 -2.1554
 3420SOL     OW10837   8.372   1.209   5.161  0.6873  0.0202 -0.0594
 3420SOL    HW110838   8.314   1.262   5.107  2.1999  0.8235 -0.9402
 3420SOL    HW210839   8.313   1.155   5.214 -0.8433  0.6886 -1.0384
 3421SOL     OW10840   0.346   8.336   2.240 -0.2626  0.1156  0.1417
 3421SOL    HW110841   0.314   8.277   2.308  1.3091  2.9358  3.6354
 3421SOL    HW210842   0.282   8.407   2.238  0.6256  0.9342 -0.0076
 3422SOL     OW10843   6.683   7.835   9.063 -0.5625 -0.3092  0.0999
 3422SOL    HW110844   6.647   7.751   9.092 -1.3648 -0.2104 -0.5922
 3422SOL    HW210845   6.608   7.894   9.060 -0.3796 -0.1184 -1.4371
 3423SOL     OW10846   3.813   2.293   6.459  0.2630  0.0524 -0.3426
 3423SOL    HW110847   3.871   2.338   6.521 -1.0802  1.4421 -0.0124
 3423SOL    HW210848   3.755   2.363   6.427 -0.5946 -1.1020 -1.3756
 3424SOL     OW10849   9.752   7.080   1.449 -0.3453  0.1997  0.1947
 3424SOL    HW110850   9.711   6.995   1.466 -0.3161 -0.0013 -0.6966
 3424SOL    HW210851   9.813   7.063   1.378 -0.6069  1.0502 -0.2379
 3425SOL     OW10852   3.549   8.273   5.082  0.4880  0.2351  0.0704
 3425SOL    HW110853   3.566   8.344   5.144  1.6768 -1.6264  1.9529
 3425SOL    HW210854   3.614   8.287   5.012 -0.3792  1.9054 -0.4728
 3426SOL     OW10855   4.630   9.774   2.287  0.0589 -0.0148 -0.5404
 3426SOL    HW110856   4.542   9.757   2.255 -0.4119 -0.5444  0.9561
 3426SOL    HW210857   4.628   9.865   2.318 -0.4244 -0.4877  0.8761
 3427SOL     OW10858   5.184   0.726   1.939 -0.4565  0.1372 -0.0976
 3427SOL    HW110859   5.229   0.809   1.954 -0.4154  0.8821 -3.6525
 3427SOL    HW210860   5.254   0.664   1.920 -0.5770 -0.4381  1.2254
 3428SOL     OW10861   7.013   7.937   2.579  0.0632  0.7020  0.6584
 3428SOL    HW110862   7.012   8.031   2.594 -3.2917  1.0339 -0.6656
 3428SOL    HW210863   7.037   7.899   2.663  3.1615  2.6717  0.7933
 3429SOL     OW10864   6.212   0.638   3.283 -0.1515 -0.0975 -0.0972
 3429SOL    HW110865   6.292   0.591   3.305  0.6857  0.1411 -2.4000
 3429SOL    HW210866   6.222   0.723   3.327  1.6041  0.4995 -1.5251
 3430SOL     OW10867   8.052   9.903   2.490  0.4258  0.0508 -0.4435
 3430SOL    HW110868   8.114   9.961   2.446 -0.3810  0.5123 -0.9940
 3430SOL    HW210869   8.099   9.873   2.568  0.5625  2.1390  0.3263
 3431SOL     OW10870   7.702   2.831   8.323  0.4858 -0.2336  0.2596
 3431SOL    HW110871   7.714   2.864   8.412  0.2124 -1.6750  0.8551
 3431SOL    HW210872   7.688   2.737   8.334  0.1109 -0.3821 -1.2875
 3432SOL     OW10873   0.436   6.100   5.035  0.1217  0.0174 -0.3896
 3432SOL    HW110874   0.383   6.132   4.961 -0.5256 -0.2143 -0.0396
 3432SOL    HW210875   0.519   6.073   4.996 -0.7892 -1.6445 -1.3146
 3433SOL     OW10876   4.755   9.731   4.400 -0.3194  0.4798 -0.0053
 3433SOL    HW110877   4.709   9.656   4.362  0.7185 -0.3985  0.4415
 3433SOL    HW210878   4.759   9.712   4.493  0.7813  0.6297 -0.0136
 3434SOL     OW10879   0.134   8.845   6.643  0.1716 -0.8088 -0.6195
 3434SOL    HW110880   0.039   8.841   6.631 -0.0299 -0.8044  0.7584
 3434SOL    HW210881   0.156   8.937   6.632 -0.1416 -0.6554 -0.0392
 3435SOL     OW10882   3.639   7.846   3.296 -0.3108  0.5988  0.0373
 3435SOL    HW110883   3.663   7.938   3.302  2.9251 -0.0890 -0.7197
 3435SOL    HW210884   3.620   7.832   3.203  0.7081  0.1869 -0.1128
 3436SOL     OW10885   0.199   4.427   5.843  0.2682  0.0041 -0.7814
 3436SOL    HW110886   0.285   4.417   5.882  0.2830 -1.1491 -1.0853
 3436SOL    HW210887   0.212   4.486   5.769  0.7504  0.0184 -0.6841
 3437SOL     OW10888   1.114   0.481   9.436  0.0046 -0.2951  0.1922
 3437SOL    HW110889   1.203   0.465   9.405  0.1625  0.1966  0.3770
 3437SOL    HW210890   1.123   0.488   9.531 -0.5425 -2.2409  0.4266
 3438SOL     OW10891   6.823   2.379   1.258 -0.1475  0.2202 -0.1986
 3438SOL    HW110892   6.852   2.466   1.230 -1.0465  0.4434 -0.4376
 3438SOL    HW210893   6.728   2.381   1.251 -0.4250  0.1723  2.4925
 3439SOL     OW10894   8.117   7.358   5.956  0.3396  0.9100 -0.4113
 3439SOL    HW110895   8.027   7.348   5.924  0.3939  0.5722 -0.4610
 3439SOL    HW210896   8.164   7.284   5.919  0.7375  1.3222 -0.7241
 3440SOL     OW10897   3.331   7.030   0.891  0.2536 -0.1682 -0.0351
 3440SOL    HW110898   3.283   7.030   0.808  2.1166 -0.6393 -1.1641
 3440SOL    HW210899   3.337   6.938   0.916  0.0813 -0.0646  0.4027
 3441SOL     OW10900   3.081   5.259   6.434 -1.0232 -0.2841  0.3316
 3441SOL    HW110901   3.143   5.198   6.474 -0.6163 -1.0087 -1.3387
 3441SOL    HW210902   3.133   5.338   6.418 -0.6040 -0.7697 -0.7514
 3442SOL     OW10903   3.543   3.584   9.239 -0.0808 -0.5255 -0.1950
 3442SOL    HW110904   3.625   3.617   9.277  0.8647 -2.5182 -0.3999
 3442SOL    HW210905   3.520   3.649   9.172  0.1939  1.1180  1.2373
 3443SOL     OW10906   5.337   7.382   5.554 -0.4298 -0.8653  0.6557
 3443SOL    HW110907   5.323   7.466   5.511  0.3379 -1.9962 -2.0147
 3443SOL    HW210908   5.305   7.317   5.491 -0.1344 -2.6134  2.2213
 3444SOL     OW10909   5.916   0.280   8.011 -0.5282  0.2628  0.3636
 3444SOL    HW110910   5.932   0.243   8.098  0.5130 -0.3274 -0.0589
 3444SOL    HW210911   5.947   0.370   8.017 -0.5014  0.2365  0.6177
 3445SOL     OW10912   4.567   4.069   0.121 -0.1032  0.1351 -0.0592
 3445SOL    HW110913   4.482   4.107   0.100  0.1388  1.4955  1.2535
 3445SOL    HW210914   4.560   3.977   0.095 -1.9391  0.2328 -0.0103
 3446SOL     OW10915   5.104   1.923   1.256  0.2658  0.0406 -0.1263
 3446SOL    HW110916   5.134   2.008   1.224 -0.7634  0.8504  0.9252
 3446SOL    HW210917   5.024   1.943   1.305  0.8524 -1.3089  1.5009
 3447SOL     OW10918   9.677   7.610   1.821 -0.2377 -0.3222 -0.1984
 3447SOL    HW110919   9.674   7.545   1.891 -0.4456 -1.8316 -1.5448
 3447SOL    HW210920   9.769   7.611   1.795 -0.1843  0.1433  0.0020
 3448SOL     OW10921   2.673   4.869   7.755 -0.1607 -0.3796  0.6704
 3448SOL    HW110922   2.698   4.939   7.695  1.2515 -0.5004  1.0803
 3448SOL    HW210923   2.678   4.909   7.842 -2.9460  0.0216  0.7403
 3449SOL     OW10924   7.580   1.572   8.729 -0.1077 -0.3186  0.4678
 3449SOL    HW110925   7.616   1.645   8.780 -2.3799  1.0522  0.2942
 3449SOL    HW210926   7.651   1.545   8.671  1.4773  0.3022  2.0441
 3450SOL     OW10927   9.313   3.084   9.108 -0.0351 -0.2374 -0.5020
 3450SOL    HW110928   9.238   3.115   9.158 -1.0868  1.5073 -2.9174
 3450SOL    HW210929   9.386   3.138   9.138 -0.0704 -0.8762  0.7778
 3451SOL     OW10930   0.704   6.838   8.749 -1.1534  0.4110 -0.5554
 3451SOL    HW110931   0.788   6.882   8.751 -0.0599 -1.5130 -1.4980
 3451SOL    HW210932   0.650   6.890   8.690 -1.1045  2.3551  1.0145
 3452SOL     OW10933   3.856   2.461   3.385  0.0755 -0.1065  0.4254
 3452SOL    HW110934   3.833   2.549   3.358  0.9473 -0.1198 -0.3855
 3452SOL    HW210935   3.945   2.468   3.420 -0.6407 -0.2706  2.4278
 3453SOL     OW10936   8.656   1.214   9.421 -0.0581 -0.0292 -0.9016
 3453SOL    HW110937   8.590   1.187   9.358 -1.8750 -0.6418  1.1597
 3453SOL    HW210938   8.724   1.147   9.414 -0.7165 -0.6577 -1.4684
 3454SOL     OW10939   7.498   2.279   1.966 -0.1747  0.4660 -0.1519
 3454SOL    HW110940   7.480   2.348   2.031 -2.0324 -0.1243  0.0120
 3454SOL    HW210941   7.412   2.244   1.945  0.3390  0.7897 -3.1475
 3455SOL     OW10942   6.136   5.451   4.927 -0.6415 -0.1287  0.1228
 3455SOL    HW110943   6.117   5.540   4.959 -0.1129 -0.0296  0.1787
 3455SOL    HW210944   6.201   5.464   4.858  0.7334 -0.5838  1.2799
 3456SOL     OW10945   6.473   1.867   0.321 -0.1165 -0.3913 -0.1457
 3456SOL    HW110946   6.420   1.902   0.250  0.3624 -0.2972 -0.4652
 3456SOL    HW210947   6.418   1.873   0.398 -1.2301 -1.8976 -0.7569
 3457SOL     OW10948   5.805   1.453   2.314 -0.0568 -0.0614  0.3889
 3457SOL    HW110949   5.888   1.491   2.283 -0.1398 -0.9496 -0.9925
 3457SOL    HW210950   5.832   1.385   2.376  0.2418 -0.0941  0.2283
 3458SOL     OW10951   1.440   9.800   8.508  0.0862 -0.3588  0.5404
 3458SOL    HW110952   1.387   9.789   8.429  0.8428 -2.1582  0.2305
 3458SOL    HW210953   1.407   9.735   8.569  2.5544 -2.3820 -0.0737
 3459SOL     OW10954   2.539   2.683   4.544  0.1446 -0.2137  0.1939
 3459SOL    HW110955   2.527   2.737   4.466 -0.5311  1.5967  1.4911
 3459SOL    HW210956   2.562   2.745   4.613  0.0570 -1.6883  1.5985
 3460SOL     OW10957   3.962   9.351   6.405  0.7511 -0.5039 -0.3658
 3460SOL    HW110958   4.025   9.290   6.368  0.7931  0.0801 -1.2734
 3460SOL    HW210959   3.919   9.302   6.476  0.9285 -1.5008 -0.9399
 3461SOL     OW10960   6.239   8.200   0.499 -0.5823  0.4907  0.0745
 3461SOL    HW110961   6.325   8.233   0.525 -0.3563  0.4738 -0.6104
 3461SOL    HW210962   6.191   8.278   0.469 -0.4909  0.3839 -0.3649
 3462SOL     OW10963   4.851  -0.017   3.702 -0.1870 -0.2707  0.0946
 3462SOL    HW110964   4.853   0.011   3.793  1.0786  1.0927 -0.3159
 3462SOL    HW210965   4.782   0.036   3.662  1.2431  1.3355 -0.3596
 3463SOL     OW10966   7.695   5.850   1.564 -0.0448  0.3017  0.0478
 3463SOL    HW110967   7.634   5.784   1.596 -1.3727  2.6370  2.8213
 3463SOL    HW210968   7.672   5.930   1.612  2.7578  2.3062 -1.5973
 3464SOL     OW10969   4.085   7.619   4.299 -0.1190  0.0675 -0.0805
 3464SOL    HW110970   4.114   7.706   4.272  1.0480 -0.6514 -1.2394
 3464SOL    HW210971   4.159   7.583   4.349 -0.3922 -0.4469 -0.0342
 3465SOL     OW10972   2.277   5.761   0.420  0.5036  0.1968  0.0386
 3465SOL    HW110973   2.241   5.673   0.409  0.4896  0.3023 -0.8683
 3465SOL    HW210974   2.216   5.805   0.479 -0.0443 -0.0955 -0.2996
 3466SOL     OW10975   9.205   2.796   6.212 -0.1894  0.8402  0.4908
 3466SOL    HW110976   9.220   2.849   6.134 -0.3237  1.4231  0.8572
 3466SOL    HW210977   9.273   2.822   6.273  0.7306 -0.5603  0.1041
 3467SOL     OW10978   1.135   2.158   2.752  0.0492  0.2335 -0.3247
 3467SOL    HW110979   1.112   2.228   2.692 -2.4559  0.1051  0.3796
 3467SOL    HW210980   1.100   2.079   2.711 -0.6532 -0.0188  0.7381
 3468SOL     OW10981   7.512   6.966   3.363  0.1491 -0.0075  0.0955
 3468SOL    HW110982   7.580   6.990   3.426  0.1688  0.7283 -0.1951
 3468SOL    HW210983   7.560   6.920   3.294  0.3584  0.4829 -0.0951
 3469SOL     OW10984   5.427   7.162   1.867  0.0535  0.5939 -0.3561
 3469SOL    HW110985   5.393   7.151   1.778  1.3665  2.9706 -1.2277
 3469SOL    HW210986   5.508   7.111   1.869  0.2351  0.8716 -0.6581
 3470SOL     OW10987   6.054   8.410   8.836 -0.4807  0.2947 -0.3801
 3470SOL    HW110988   6.125   8.465   8.870 -0.5801 -0.1988  0.6651
 3470SOL    HW210989   5.977   8.468   8.835 -0.4573  0.3442  0.1794
 3471SOL     OW10990   8.583   2.436   6.558  0.5493  0.0032 -0.7782
 3471SOL    HW110991   8.666   2.428   6.512 -0.1385  0.8429 -2.2114
 3471SOL    HW210992   8.518   2.452   6.490 -0.7226 -0.0675  0.3591
 3472SOL     OW10993   8.805   9.122   2.303 -0.3275 -0.0643  0.1674
 3472SOL    HW110994   8.845   9.046   2.345  2.1351  0.6471 -0.7375
 3472SOL    HW210995   8.788   9.094   2.213 -0.1914  0.1896  0.0604
 3473SOL     OW10996   8.560   6.227   0.490 -0.2966 -0.0591  0.4583
 3473SOL    HW110997   8.550   6.251   0.582  1.5799  2.6995  0.0764
 3473SOL    HW210998   8.650   6.194   0.484 -0.5267 -0.5661 -0.3364
 3474SOL     OW10999   0.140   3.107   1.843  0.6545 -0.6089 -0.0494
 3474SOL    HW111000   0.167   3.163   1.916  0.2786 -0.0234 -0.3467
 3474SOL    HW211001   0.176   3.150   1.766 -0.0048 -0.5288 -0.3229
 3475SOL     OW11002   0.117   3.241   7.386  0.0711 -0.4060  0.3683
 3475SOL    HW111003   0.179   3.312   7.405 -2.3224  1.3455  2.1498
 3475SOL    HW211004   0.168   3.161   7.399  2.1941  0.9234  0.7755
 3476SOL     OW11005   0.492   3.747   7.554 -1.1325  0.3465 -0.8660
 3476SOL    HW111006   0.569   3.719   7.604  0.0013  2.1848 -1.4783
 3476SOL    HW211007   0.528   3.784   7.474 -2.7430  0.2239 -1.6807
 3477SOL     OW11008   0.469   1.746   9.859 -0.0641 -0.7984 -0.0915
 3477SOL    HW111009   0.534   1.732   9.928 -0.2684 -0.3673  0.1949
 3477SOL    HW211010   0.410   1.671   9.865 -1.1549  0.1401  1.4245
 3478SOL     OW11011   0.112   0.933   5.297 -0.0533 -0.6966  0.0274
 3478SOL    HW111012   0.030   0.887   5.280 -0.1353  0.1825 -2.3021
 3478SOL    HW211013   0.108   1.011   5.241  1.7620  0.1080  0.9374
 3479SOL     OW11014   6.206   9.194   8.375  0.5103  0.2999  0.3093
 3479SOL    HW111015   6.177   9.176   8.464  0.2241 -0.4034  0.0798
 3479SOL    HW211016   6.299   9.216   8.384  0.2438  1.2258  0.8905
 3480SOL     OW11017   8.647   1.383   7.786 -0.2563 -0.1743 -0.4714
 3480SOL    HW111018   8.726   1.436   7.794 -0.5843  0.2706 -0.1496
 3480SOL    HW211019   8.618   1.370   7.876 -0.0951 -1.0323 -0.5360
 3481SOL     OW11020   3.027   1.794   6.659 -0.3134  0.0271 -0.1569
 3481SOL    HW111021   3.056   1.796   6.568 -0.1861  0.8466 -0.1038
 3481SOL    HW211022   3.027   1.885   6.686 -2.7693  0.0677 -0.0790
 3482SOL     OW11023   2.648   8.397   1.035  0.2479  0.0777 -0.2546
 3482SOL    HW111024   2.600   8.314   1.047  0.1510  0.2614  0.7702
 3482SOL    HW211025   2.736   8.378   1.067  0.0069  0.5728  0.7634
 3483SOL     OW11026   8.185   4.818   0.761 -0.4090 -0.0632  0.2898
 3483SOL    HW111027   8.135   4.788   0.685 -1.6497 -0.3767  1.2035
 3483SOL    HW211028   8.119   4.844   0.825  0.6090 -0.0030  1.3460
 3484SOL     OW11029   4.442   5.977   2.155 -0.3140 -0.7446  0.0757
 3484SOL    HW111030   4.476   5.962   2.244 -2.0021 -0.4672  0.7985
 3484SOL    HW211031   4.466   6.068   2.135  1.3331 -1.2337 -0.3771
 3485SOL     OW11032   8.226   6.139   3.401  0.8105 -0.4923  0.2668
 3485SOL    HW111033   8.159   6.177   3.457  1.5905 -0.2324  1.0524
 3485SOL    HW211034   8.181   6.120   3.319 -0.5700 -1.6329  1.2261
 3486SOL     OW11035   4.691   7.288   9.196  0.2907  1.1267 -0.5130
 3486SOL    HW111036   4.608   7.335   9.195 -2.2831 -2.9184 -1.7744
 3486SOL    HW211037   4.731   7.307   9.111 -0.6055  1.1317 -0.9364
 3487SOL     OW11038   6.770   4.825   6.702 -0.2451 -0.0112  0.0317
 3487SOL    HW111039   6.693   4.773   6.678  0.6755 -0.9267 -1.0796
 3487SOL    HW211040   6.842   4.761   6.705  0.5152  0.8461  0.8853
 3488SOL     OW11041   2.418   0.051   2.735  0.3566 -0.1216  0.6162
 3488SOL    HW111042   2.398   0.124   2.793 -1.3793 -0.2362  0.2137
 3488SOL    HW211043   2.369  -0.023   2.771 -1.6392  0.0580 -1.4995
 3489SOL     OW11044   2.615   8.114   8.667  0.2096  0.0462 -0.2013
 3489SOL    HW111045   2.701   8.155   8.667  0.3838 -0.2619 -1.4858
 3489SOL    HW211046   2.598   8.092   8.759  1.6122 -0.1285  0.0357
 3490SOL     OW11047   6.889   8.900   8.202  0.1682 -0.7710  0.5807
 3490SOL    HW111048   6.909   8.917   8.293  1.0334  0.5533  0.1618
 3490SOL    HW211049   6.802   8.939   8.188  0.8082  0.6202  0.4040
 3491SOL     OW11050   5.354   3.225   2.201  0.1561 -0.6938  0.1349
 3491SOL    HW111051   5.281   3.287   2.212  1.9355  1.4213  0.6944
 3491SOL    HW211052   5.396   3.223   2.287  3.6797  2.1550 -1.2636
 3492SOL     OW11053   2.315   3.373   4.518  0.6692  0.3650  0.1820
 3492SOL    HW111054   2.270   3.310   4.574 -1.1714  0.9357 -0.5805
 3492SOL    HW211055   2.408   3.349   4.524  0.3557 -0.5595  2.1912
 3493SOL     OW11056   7.083   7.085   5.870 -0.0303 -0.3978 -0.2445
 3493SOL    HW111057   7.147   7.015   5.864 -0.5886 -0.9969  0.4804
 3493SOL    HW211058   7.012   7.057   5.813 -0.6032 -0.8379  0.6491
 3494SOL     OW11059   4.129   4.288   2.215  0.0557  0.2806  0.7941
 3494SOL    HW111060   4.074   4.210   2.215  0.1185  0.0242 -3.4742
 3494SOL    HW211061   4.217   4.256   2.197 -0.1702  1.1921 -2.8377
 3495SOL     OW11062   8.704   0.399   2.793 -0.5000  0.4066 -0.2372
 3495SOL    HW111063   8.771   0.363   2.735 -1.2070  0.4909 -1.1457
 3495SOL    HW211064   8.752   0.447   2.859  0.4234 -1.3002  0.3896
 3496SOL     OW11065   5.696   3.164   7.090  0.2932 -0.2395 -0.3227
 3496SOL    HW111066   5.622   3.221   7.072 -3.2165 -4.3827 -0.6848
 3496SOL    HW211067   5.724   3.133   7.004 -0.4150 -1.8349 -0.0096
 3497SOL     OW11068   4.543   2.120   0.652 -0.3436 -0.1535 -0.2939
 3497SOL    HW111069   4.522   2.174   0.729  1.2610 -1.0021  0.8085
 3497SOL    HW211070   4.594   2.178   0.596 -0.0737 -0.0171  0.0849
 3498SOL     OW11071   0.559   8.298   4.469  0.0896 -0.2077 -0.3527
 3498SOL    HW111072   0.589   8.268   4.555 -1.1595  1.9096  0.9100
 3498SOL    HW211073   0.570   8.222   4.412  2.8199 -1.0886  1.1744
 3499SOL     OW11074   2.653   8.789   5.109 -0.3756  0.4224 -0.0148
 3499SOL    HW111075   2.645   8.883   5.124 -1.8785  0.3714 -0.3893
 3499SOL    HW211076   2.581   8.767   5.050  0.6376 -0.7673 -0.8793
 3500SOL     OW11077   9.558   2.103   1.460 -0.2659  0.2244 -0.0991
 3500SOL    HW111078   9.491   2.038   1.482 -0.0153 -0.2115 -0.6057
 3500SOL    HW211079   9.557   2.107   1.365  3.6290 -3.3066 -0.5678
 3501SOL     OW11080   9.390   3.552   2.276 -0.5687 -0.7353  0.3777
 3501SOL    HW111081   9.396   3.485   2.208 -1.2801  0.3213 -0.7663
 3501SOL    HW211082   9.375   3.634   2.229  0.7047  0.3218  1.7109
 3502SOL     OW11083   2.947   7.786   3.524 -0.2257 -0.7340  0.0494
 3502SOL    HW111084   2.869   7.821   3.566  0.4137  0.6491  0.1579
 3502SOL    HW211085   2.984   7.861   3.476  0.3784 -1.6579 -0.9810
 3503SOL     OW11086   9.916   6.884   5.673 -0.2987 -0.0965 -0.3618
 3503SOL    HW111087   9.908   6.834   5.592 -1.6063 -1.2179  0.4170
 3503SOL    HW211088   9.839   6.858   5.725  0.9224 -0.0194  1.5707
 3504SOL     OW11089   5.580   1.640   2.491 -0.1208  0.1370  0.3350
 3504SOL    HW111090   5.624   1.714   2.534 -1.5204  1.0566  0.2541
 3504SOL    HW211091   5.630   1.628   2.410 -2.1082  3.7091 -1.6963
 3505SOL     OW11092   7.241   5.437   8.741  0.1675 -0.4122 -0.2565
 3505SOL    HW111093   7.272   5.486   8.664  0.5370  0.1607  0.2432
 3505SOL    HW211094   7.152   5.468   8.755  1.0492  1.6751  1.2471
 3506SOL     OW11095   0.404   5.486   4.117 -0.1132 -0.1676  0.3178
 3506SOL    HW111096   0.392   5.579   4.134 -0.3258  0.2464 -1.8189
 3506SOL    HW211097   0.320   5.456   4.084  0.6440 -0.4946 -1.4200
 3507SOL     OW11098   1.212   5.642   9.153  0.7294 -0.1523  0.0148
 3507SOL    HW111099   1.290   5.615   9.105  0.3301 -0.0298 -0.7080
 3507SOL    HW211100   1.222   5.737   9.164 -0.2078  0.1883 -1.7492
 3508SOL     OW11101   9.288   2.497   4.544 -0.5149 -0.6324  0.3585
 3508SOL    HW111102   9.331   2.555   4.606 -1.9840  0.3926  0.4800
 3508SOL    HW211103   9.337   2.508   4.462 -2.0260  2.5576 -0.2647
 3509SOL     OW11104   7.189   1.942   8.713  0.4241  0.2080  0.1837
 3509SOL    HW111105   7.217   2.004   8.645 -1.0365  1.2615  0.4993
 3509SOL    HW211106   7.180   1.859   8.667  2.3972  0.1926 -0.2582
 3510SOL     OW11107   8.256   9.351   7.792  0.3122  0.2900  0.2751
 3510SOL    HW111108   8.211   9.298   7.725  0.5757  1.0291 -0.5079
 3510SOL    HW211109   8.189   9.366   7.859 -0.2791  0.4241 -0.3319
 3511SOL     OW11110   5.587   5.620   3.849 -0.1822 -0.3618  0.2709
 3511SOL    HW111111   5.549   5.542   3.889 -1.1880  0.0125  0.0636
 3511SOL    HW211112   5.606   5.594   3.759  1.5316 -1.0205  0.7731
 3512SOL     OW11113   5.327   9.053   1.378  0.0901  0.7691 -0.1416
 3512SOL    HW111114   5.325   8.959   1.395 -1.0546  1.0638  1.6961
 3512SOL    HW211115   5.398   9.086   1.433 -1.4368  1.3051  1.6243
 3513SOL     OW11116   7.351   5.850   4.731  0.2466 -0.4267  0.6631
 3513SOL    HW111117   7.271   5.798   4.736  1.3881 -2.2739  0.9018
 3513SOL    HW211118   7.370   5.873   4.822 -0.9700  1.6756  0.4539
 3514SOL     OW11119   2.155   0.316   1.379  0.4307  0.5769 -0.4727
 3514SOL    HW111120   2.135   0.408   1.362 -0.1380  0.7203  0.8392
 3514SOL    HW211121   2.176   0.313   1.472 -0.1153 -0.7128 -0.3697
 3515SOL     OW11122   9.927   0.846   4.717  0.0791  0.0702 -0.1722
 3515SOL    HW111123   9.982   0.836   4.794  1.3646  0.6142 -0.9836
 3515SOL    HW211124   9.950   0.772   4.661  1.0861  1.0714 -1.1397
 3516SOL     OW11125   2.389   2.707   2.988  0.0041 -0.1730 -0.7607
 3516SOL    HW111126   2.385   2.619   3.025 -3.3481 -0.3396 -1.1879
 3516SOL    HW211127   2.340   2.701   2.906  1.7329  1.6269 -2.0368
 3517SOL     OW11128   5.568   5.175   8.852  0.4960 -0.2823 -0.1221
 3517SOL    HW111129   5.609   5.167   8.766  0.8065 -1.1078  0.0938
 3517SOL    HW211130   5.564   5.270   8.867  1.1557 -0.1469 -0.7048
 3518SOL     OW11131   8.518   1.315   3.080  0.2584 -0.3034  0.1600
 3518SOL    HW111132   8.443   1.272   3.122  0.5819 -0.7239  0.3097
 3518SOL    HW211133   8.585   1.317   3.148 -0.1162  1.4571  0.5302
 3519SOL     OW11134   3.473   2.497   1.684 -0.2492  0.6199 -0.3826
 3519SOL    HW111135   3.384   2.513   1.715 -0.5963  2.2761 -2.1079
 3519SOL    HW211136   3.494   2.410   1.718 -2.6365  0.0391 -0.2073
 3520SOL     OW11137   0.554   7.633   5.008  0.2549  0.0747 -0.4794
 3520SOL    HW111138   0.629   7.666   4.959  0.6571  0.6301  0.4824
 3520SOL    HW211139   0.545   7.542   4.979 -0.1505  0.6648 -2.3048
 3521SOL     OW11140   2.353   9.287   7.763  0.1392  0.4916 -0.6446
 3521SOL    HW111141   2.384   9.341   7.690  2.0559  1.5713  0.8812
 3521SOL    HW211142   2.421   9.221   7.774  0.1889  0.7185  0.5362
 3522SOL     OW11143   5.093   4.265   6.189  0.1031  0.1053  0.3851
 3522SOL    HW111144   5.176   4.289   6.232  1.4998 -0.7147 -1.6748
 3522SOL    HW211145   5.049   4.209   6.253  1.3131  0.2564  1.3919
 3523SOL     OW11146   1.673   1.272   6.030  0.1908  0.1393  0.5205
 3523SOL    HW111147   1.734   1.300   5.961  1.4373  1.5540  2.1252
 3523SOL    HW211148   1.592   1.253   5.983  0.7965  1.6707 -1.2723
 3524SOL     OW11149   2.794   5.991   3.945 -0.2951  0.1586 -0.2280
 3524SOL    HW111150   2.831   5.929   3.883 -1.0174  0.6729 -1.2031
 3524SOL    HW211151   2.858   6.063   3.947  1.0095 -0.9733  1.6107
 3525SOL     OW11152   3.667   0.929   9.164  0.4577  0.6076  0.3283
 3525SOL    HW111153   3.737   0.897   9.107  0.5288  2.8437 -0.9523
 3525SOL    HW211154   3.713   0.965   9.241  0.4687 -0.8475  1.0286
 3526SOL     OW11155   5.812   9.797   5.579 -0.2668  0.4165 -0.7481
 3526SOL    HW111156   5.834   9.736   5.650  1.2816 -0.9255 -2.2645
 3526SOL    HW211157   5.725   9.829   5.600  0.8411  1.5462  2.7153
 3527SOL     OW11158   6.692   5.442   3.173 -0.4999  0.1781  0.5049
 3527SOL    HW111159   6.609   5.418   3.134 -0.2505  0.3186 -0.1195
 3527SOL    HW211160   6.699   5.537   3.159 -0.1842  0.1487  0.4614
 3528SOL     OW11161   2.702   2.523   3.944 -0.0001 -0.1680  0.0383
 3528SOL    HW111162   2.687   2.551   4.034  0.6399 -1.6701  0.6548
 3528SOL    HW211163   2.624   2.473   3.921 -0.4284  0.7062 -0.4827
 3529SOL     OW11164   7.273   2.409   4.095  0.3594 -0.1322 -0.2309
 3529SOL    HW111165   7.358   2.445   4.120  0.4643  0.0126 -0.7793
 3529SOL    HW211166   7.231   2.386   4.178  0.5348  0.6897  0.0951
 3530SOL     OW11167   2.686   3.082   0.016 -0.4315 -0.1273 -0.9646
 3530SOL    HW111168   2.664   3.106  -0.074  0.7679  1.9081 -0.7989
 3530SOL    HW211169   2.635   3.143   0.070  0.8763  0.5279 -0.4079
 3531SOL     OW11170   0.012   1.325   0.060  0.8359  0.1642 -0.0107
 3531SOL    HW111171  -0.013   1.284   0.143 -0.5653 -0.2411 -0.6192
 3531SOL    HW211172   0.106   1.341   0.070  0.9010 -0.8074  1.2543
 3532SOL     OW11173   3.810   1.540   2.085 -0.3486 -0.9924 -0.1383
 3532SOL    HW111174   3.861   1.577   2.157 -0.3355 -1.0240 -0.1310
 3532SOL    HW211175   3.780   1.616   2.034 -0.5470 -0.9587  0.0279
 3533SOL     OW11176   0.563   8.288   1.470 -0.2428 -0.2764  0.4462
 3533SOL    HW111177   0.630   8.298   1.403 -0.9912  0.2699 -0.2404
 3533SOL    HW211178   0.481   8.279   1.421 -0.5895 -1.8004  1.2401
 3534SOL     OW11179   0.250   0.805   9.795 -0.2654 -0.1971  0.1966
 3534SOL    HW111180   0.341   0.774   9.804 -0.1930  0.2008  0.9330
 3534SOL    HW211181   0.229   0.791   9.702  0.6489 -0.0264 -0.0484
 3535SOL     OW11182   6.764   6.139   2.497 -0.2056 -0.2445 -0.3971
 3535SOL    HW111183   6.830   6.079   2.460 -1.0500  0.0105 -2.4326
 3535SOL    HW211184   6.680   6.098   2.477 -0.7346  0.2709  0.6718
 3536SOL     OW11185   4.751   6.759   6.726 -0.0018 -0.1397  0.4160
 3536SOL    HW111186   4.757   6.671   6.766  0.5212 -0.1272  0.3722
 3536SOL    HW211187   4.666   6.759   6.683 -0.6738 -0.0985  1.6754
 3537SOL     OW11188   4.589   9.105   6.629 -0.0840  0.0645  0.1542
 3537SOL    HW111189   4.499   9.121   6.599 -0.3096  0.1930  0.8686
 3537SOL    HW211190   4.644   9.134   6.557 -0.6064  0.4650 -0.0933
 3538SOL     OW11191   8.819   2.018   5.102 -0.0135  0.5070  0.4169
 3538SOL    HW111192   8.754   2.079   5.137 -0.2802  1.5943 -1.7647
 3538SOL    HW211193   8.830   2.046   5.011  0.1202 -2.4670 -0.5848
 3539SOL     OW11194   7.160   5.667   5.502  0.4477  0.0217 -0.1574
 3539SOL    HW111195   7.220   5.740   5.489  1.1638 -0.9704 -3.3895
 3539SOL    HW211196   7.209   5.605   5.557  0.1894  1.4745  1.8023
 3540SOL     OW11197   9.116   8.000   0.646 -0.0398 -0.0641 -0.2454
 3540SOL    HW111198   9.151   7.954   0.722 -1.2461 -1.6223 -0.5856
 3540SOL    HW211199   9.183   7.988   0.578  0.8783  1.0324  0.4186
 3541SOL     OW11200   2.157   5.478   3.041 -0.3995 -1.3789 -0.3905
 3541SOL    HW111201   2.184   5.388   3.057 -0.1545 -1.1829  0.3976
 3541SOL    HW211202   2.109   5.503   3.120 -1.3198 -1.1271 -1.0157
 3542SOL     OW11203   6.916   8.018   7.941  0.1311  0.2811  0.0251
 3542SOL    HW111204   6.850   8.074   7.980  0.4831  1.0365 -0.4420
 3542SOL    HW211205   6.988   8.077   7.920  1.3051 -0.6323  1.2491
 3543SOL     OW11206   4.629   6.201   2.448  0.5327  0.0432 -0.6039
 3543SOL    HW111207   4.705   6.237   2.494  1.8508 -1.7068 -1.3077
 3543SOL    HW211208   4.620   6.255   2.370  0.5309  0.7673 -0.1123
 3544SOL     OW11209   3.082   7.798   0.911 -0.1427  0.1580 -0.2095
 3544SOL    HW111210   3.145   7.869   0.899 -0.2145 -0.0956 -2.3962
 3544SOL    HW211211   3.134   7.718   0.909 -0.1369  0.0700  1.6431
 3545SOL     OW11212   4.470   7.794   6.092  0.3131 -0.2618  0.2847
 3545SOL    HW111213   4.500   7.883   6.110 -0.8280  0.0438  0.7416
 3545SOL    HW211214   4.508   7.742   6.162 -0.3848  0.1638  1.0023
 3546SOL     OW11215   1.609   9.061   3.559  0.3126 -0.2253 -0.3837
 3546SOL    HW111216   1.573   9.057   3.648  1.0957  0.9426  0.0071
 3546SOL    HW211217   1.587   9.149   3.529  1.7274  0.0621 -0.6087
 3547SOL     OW11218   9.498   6.306   5.060 -0.6466  0.2762 -0.2832
 3547SOL    HW111219   9.481   6.281   5.150 -1.8044  0.4348 -0.4481
 3547SOL    HW211220   9.471   6.398   5.055  0.5054  0.6183 -0.5037
 3548SOL     OW11221   6.534   8.758   7.544  0.2588 -0.5783  0.0314
 3548SOL    HW111222   6.589   8.752   7.466 -0.2434 -1.1028 -0.2856
 3548SOL    HW211223   6.482   8.678   7.543 -0.5981 -0.0361  0.2660
 3549SOL     OW11224   7.044   5.474   0.565  0.8139  0.3715 -0.1478
 3549SOL    HW111225   6.985   5.406   0.597 -2.2056  3.1390  0.6750
 3549SOL    HW211226   7.059   5.530   0.641  2.4388  1.1835 -1.0258
 3550SOL     OW11227   3.504   2.923   1.859  0.4879 -0.1861  0.3823
 3550SOL    HW111228   3.593   2.906   1.889  0.9432  3.4357  1.5217
 3550SOL    HW211229   3.515   2.988   1.789 -1.2199 -0.6737 -0.3849
 3551SOL     OW11230   7.602   7.982   7.730 -0.4145 -0.1029 -0.1500
 3551SOL    HW111231   7.570   7.899   7.766 -2.0292  1.2391  1.7574
 3551SOL    HW211232   7.687   7.961   7.693  1.9817 -1.6977  5.1956
 3552SOL     OW11233   0.417   7.401   9.274  0.3385 -0.0725  0.0216
 3552SOL    HW111234   0.334   7.361   9.300 -0.1221  0.0423 -1.2403
 3552SOL    HW211235   0.397   7.493   9.263  0.6939 -0.0059 -0.0840
 3553SOL     OW11236   6.088   0.913   5.194  0.3249  0.4337 -0.0743
 3553SOL    HW111237   6.070   0.826   5.230 -0.5002  1.1651  1.3597
 3553SOL    HW211238   6.140   0.956   5.262  1.9279  0.6280 -1.3576
 3554SOL     OW11239   2.622   6.222   9.321  0.4684 -0.0295  0.0212
 3554SOL    HW111240   2.675   6.227   9.400  0.7921 -1.8470 -0.0419
 3554SOL    HW211241   2.532   6.223   9.353  0.5759  0.2842  0.3248
 3555SOL     OW11242   0.390   7.141   2.973 -0.0961 -0.2382 -0.2206
 3555SOL    HW111243   0.375   7.091   2.893 -0.2528 -1.3917  0.5089
 3555SOL    HW211244   0.311   7.127   3.026  1.1113 -1.8045  1.3041
 3556SOL     OW11245   9.711   8.631   7.526  0.4561 -0.0239  0.5077
 3556SOL    HW111246   9.783   8.687   7.495  0.7100 -0.7451 -0.2413
 3556SOL    HW211247   9.645   8.692   7.557  0.6980  0.7099 -0.3703
 3557SOL     OW11248   0.026   7.006   8.968  0.1192 -0.3307  0.1218
 3557SOL    HW111249  -0.039   7.074   8.951  0.9513  0.4760  0.0672
 3557SOL    HW211250   0.072   6.995   8.885  1.9291  1.1666  0.8603
 3558SOL     OW11251   3.218   9.702   0.611  0.1329  0.5171  0.1676
 3558SOL    HW111252   3.204   9.796   0.616 -0.5287  0.5250 -1.2950
 3558SOL    HW211253   3.280   9.690   0.538  2.0252 -0.0600  1.7666
 3559SOL     OW11254   3.838   2.834   3.045  0.0494  0.0766 -0.7046
 3559SOL    HW111255   3.911   2.814   2.985 -0.8602 -0.1215 -1.7724
 3559SOL    HW211256   3.761   2.839   2.988 -1.1252 -1.6340  0.6442
 3560SOL     OW11257   1.970   9.205   4.460  0.8867 -0.4076  0.2060
 3560SOL    HW111258   1.945   9.271   4.395  0.6045 -0.5262  0.1893
 3560SOL    HW211259   1.946   9.244   4.544 -1.1087 -1.2490  0.0865
 3561SOL     OW11260   8.153   7.504   8.177  0.0671 -0.6640  0.1146
 3561SOL    HW111261   8.118   7.577   8.127 -0.8424 -0.7015  0.6766
 3561SOL    HW211262   8.100   7.428   8.150  1.2364 -1.2068 -0.7348
 3562SOL     OW11263   0.509   0.840   9.063  0.4134 -0.3706  0.2212
 3562SOL    HW111264   0.442   0.900   9.030  0.5875  0.0030  0.5342
 3562SOL    HW211265   0.549   0.804   8.984 -1.1362 -1.7337  0.0213
 3563SOL     OW11266   9.855   3.754   0.358  0.0802 -0.2358  0.5932
 3563SOL    HW111267   9.785   3.816   0.377  1.0615  1.5539 -1.1949
 3563SOL    HW211268   9.839   3.726   0.268  0.7031 -1.1607  0.7514
 3564SOL     OW11269   4.643   7.768   5.213 -0.2018 -0.3136  0.0892
 3564SOL    HW111270   4.661   7.675   5.223 -0.1958 -0.7295 -3.0663
 3564SOL    HW211271   4.716   7.801   5.161  1.6956  2.3278  3.8825
 3565SOL     OW11272   7.153   1.307   8.171 -0.0500 -0.3480  0.1627
 3565SOL    HW111273   7.155   1.348   8.085 -1.1551 -1.2649 -0.3273
 3565SOL    HW211274   7.102   1.367   8.226  2.0568  1.0829  0.6946
 3566SOL     OW11275   6.712   8.515   1.198 -0.4042 -0.1968 -0.2993
 3566SOL    HW111276   6.741   8.435   1.241  1.4845  0.9207  0.6371
 3566SOL    HW211277   6.758   8.585   1.244 -1.3547  1.3774 -1.6323
 3567SOL     OW11278   6.601   5.340   7.579  0.3088 -0.5763 -0.2021
 3567SOL    HW111279   6.572   5.269   7.637  0.6084 -0.6489 -0.1370
 3567SOL    HW211280   6.553   5.417   7.610  1.0806 -0.4306  0.6959
 3568SOL     OW11281   4.583   2.609   6.448  0.1000 -0.1883 -0.2673
 3568SOL    HW111282   4.594   2.686   6.393  0.2542  0.3184  0.4481
 3568SOL    HW211283   4.623   2.634   6.532 -1.4305 -0.3936  0.5536
 3569SOL     OW11284   9.179   1.958   6.870 -0.3789  0.2204  0.3199
 3569SOL    HW111285   9.171   1.989   6.779  0.7887 -0.8417 -0.1769
 3569SOL    HW211286   9.204   1.866   6.862 -2.9697 -0.7081  1.7418
 3570SOL     OW11287   8.286   4.428   2.804  0.5094 -0.0904 -0.3218
 3570SOL    HW111288   8.250   4.507   2.763 -0.0061  0.4340  1.0754
 3570SOL    HW211289   8.363   4.407   2.751 -0.0447  0.6159 -1.4636
 3571SOL     OW11290   3.136   0.977   2.331  0.1059 -0.0784  0.4277
 3571SOL    HW111291   3.230   0.981   2.314  0.1140  0.5020  0.6020
 3571SOL    HW211292   3.102   1.062   2.305 -0.6844 -0.8946 -1.3970
 3572SOL     OW11293   1.454   9.154   5.834 -0.0559  0.4069 -0.0406
 3572SOL    HW111294   1.534   9.119   5.795  2.7865  5.1853  0.7054
 3572SOL    HW211295   1.470   9.148   5.929 -0.9183  0.7671  0.1299
 3573SOL     OW11296   0.236   9.723   8.159 -0.2691 -0.0176 -0.7307
 3573SOL    HW111297   0.195   9.644   8.193 -0.7553  0.8878  0.9104
 3573SOL    HW211298   0.244   9.781   8.235 -0.1435  1.6111 -1.9174
 3574SOL     OW11299   9.872   9.734   0.924  0.6856  0.2403  0.3066
 3574SOL    HW111300   9.948   9.781   0.957  1.1674 -0.0637 -0.3308
 3574SOL    HW211301   9.872   9.651   0.973  0.2791  0.5787  0.8883
 3575SOL     OW11302   1.802   2.019   5.128  0.4966  0.7134  0.5152
 3575SOL    HW111303   1.840   1.935   5.101 -0.2426 -0.1144  1.9699
 3575SOL    HW211304   1.785   2.065   5.045  0.4212 -0.7730 -0.3298
 3576SOL     OW11305   9.166   8.995   8.845  0.0474 -0.3517  0.0075
 3576SOL    HW111306   9.249   9.012   8.889  0.5173 -0.4486 -0.8353
 3576SOL    HW211307   9.165   9.053   8.770 -0.6025 -0.4300 -0.0532
 3577SOL     OW11308   9.842   8.287   1.271  0.5440  0.4707  0.2079
 3577SOL    HW111309   9.796   8.319   1.193  0.3047 -1.7524 -0.6520
 3577SOL    HW211310   9.804   8.201   1.287  3.0536 -0.6606  0.6057
 3578SOL     OW11311   5.980   6.473   7.274 -0.2231  0.4793  0.3772
 3578SOL    HW111312   5.920   6.419   7.222  0.3628  0.0525  0.1389
 3578SOL    HW211313   5.930   6.554   7.292 -0.0760  1.0849 -1.7266
 3579SOL     OW11314   7.140   1.307   9.662 -0.1797  0.5678  0.0605
 3579SOL    HW111315   7.193   1.362   9.604 -0.2026  0.9657  0.4011
 3579SOL    HW211316   7.079   1.369   9.703 -1.5062 -0.0234 -0.9801
 3580SOL     OW11317   4.322   4.167   7.668  0.3544 -0.1237 -0.0638
 3580SOL    HW111318   4.370   4.103   7.615  1.9188 -0.2228  1.3985
 3580SOL    HW211319   4.322   4.131   7.756  1.3169  1.8585  0.8175
 3581SOL     OW11320   8.937   3.540   6.737 -0.6987 -0.3135  0.1827
 3581SOL    HW111321   8.857   3.552   6.684 -1.2099 -1.7215  0.5871
 3581SOL    HW211322   8.917   3.465   6.793  1.2361 -1.2494 -0.3165
 3582SOL     OW11323   1.285   6.342   5.491  0.2887 -0.1563  0.5896
 3582SOL    HW111324   1.215   6.374   5.549  0.0371 -0.0515  0.2314
 3582SOL    HW211325   1.328   6.422   5.459  0.2725 -0.2054  0.4446
 3583SOL     OW11326   0.964   8.093   3.020  0.3302 -0.1326  0.4282
 3583SOL    HW111327   0.869   8.078   3.017  0.4663 -1.0595  0.3021
 3583SOL    HW211328   0.976   8.160   3.087 -0.2375 -1.6447  2.1445
 3584SOL     OW11329   0.229   1.902   0.167  0.1197 -0.4314  0.4943
 3584SOL    HW111330   0.162   1.851   0.213 -1.2335  1.0045  0.1978
 3584SOL    HW211331   0.197   1.992   0.170  2.3323  0.4029  0.8139
 3585SOL     OW11332   0.400   4.327   4.719  0.0899  0.0541  0.4046
 3585SOL    HW111333   0.453   4.329   4.799  0.4293  0.7286  0.1740
 3585SOL    HW211334   0.310   4.338   4.749 -0.1224 -2.6302  0.9409
 3586SOL     OW11335   3.898   4.840   5.937 -0.2384 -0.0432  0.3144
 3586SOL    HW111336   3.973   4.862   5.882 -1.0462  1.8611 -0.1093
 3586SOL    HW211337   3.890   4.745   5.929  1.0643 -0.0866 -1.0045
 3587SOL     OW11338   5.384   9.525   3.304  0.4549 -0.2501 -0.0626
 3587SOL    HW111339   5.454   9.471   3.267 -0.5875 -1.2130 -0.7184
 3587SOL    HW211340   5.379   9.601   3.245 -0.6892 -1.4077 -1.5554
 3588SOL     OW11341   8.236   2.189   8.987 -0.0955 -0.1968 -0.4150
 3588SOL    HW111342   8.179   2.152   8.920  0.0838  0.2524 -0.8212
 3588SOL    HW211343   8.288   2.115   9.018 -0.8045 -0.5860 -0.1264
 3589SOL     OW11344   6.197   3.521   2.258 -0.2144  0.0890 -0.4535
 3589SOL    HW111345   6.161   3.571   2.331  1.0955  0.1370  0.1931
 3589SOL    HW211346   6.141   3.543   2.183 -0.7265  1.1431  0.2159
 3590SOL     OW11347   6.298   0.580   6.172 -0.1740 -0.2510 -0.2082
 3590SOL    HW111348   6.392   0.597   6.167 -0.3206  0.2512 -2.5879
 3590SOL    HW211349   6.285   0.539   6.258  2.0001  0.8265  0.7041
 3591SOL     OW11350   7.737   1.152   5.523  0.1206  0.3194  0.1576
 3591SOL    HW111351   7.785   1.069   5.533 -1.0261 -0.4385 -0.4124
 3591SOL    HW211352   7.685   1.159   5.603 -0.6380 -0.1018 -0.2865
 3592SOL     OW11353   2.382   5.694   8.894 -0.1998 -0.0741  0.7024
 3592SOL    HW111354   2.438   5.632   8.941  0.1556  0.9842  1.7282
 3592SOL    HW211355   2.391   5.776   8.943 -0.8257  0.7321 -0.4933
 3593SOL     OW11356   3.512   0.997   4.885 -0.3549 -0.0824 -0.1350
 3593SOL    HW111357   3.417   1.001   4.868 -0.1016  1.8351 -1.4611
 3593SOL    HW211358   3.534   1.084   4.917  0.7109 -1.0568  1.9559
 3594SOL     OW11359   7.155   1.828   0.135  0.3964 -0.3535  0.0929
 3594SOL    HW111360   7.218   1.879   0.186  1.0083 -1.7885  0.8325
 3594SOL    HW211361   7.195   1.741   0.128 -0.6371 -0.7543 -1.0818
 3595SOL     OW11362   3.926   5.638   5.645 -0.4244 -0.3319 -0.2523
 3595SOL    HW111363   3.951   5.639   5.552  1.2691  1.1039  0.1686
 3595SOL    HW211364   3.972   5.712   5.683  1.7436 -2.7902  2.4140
 3596SOL     OW11365   4.312   4.053   7.903  0.8322 -0.3005 -0.1245
 3596SOL    HW111366   4.394   4.081   7.944  0.1201  1.1919  0.3649
 3596SOL    HW211367   4.246   4.061   7.972  0.6564 -4.4277  0.4395
 3597SOL     OW11368   5.097   0.021   7.388 -0.5934 -0.0080 -0.0267
 3597SOL    HW111369   5.158   0.080   7.343 -0.5878 -1.3681 -1.9457
 3597SOL    HW211370   5.112   0.037   7.481  3.0061 -0.5448 -0.3882
 3598SOL     OW11371   0.819   1.054   2.684 -0.2770 -0.0854  0.0646
 3598SOL    HW111372   0.837   0.962   2.702  0.7093 -0.1963 -1.3319
 3598SOL    HW211373   0.826   1.097   2.769  0.4867 -1.1173  0.5398
 3599SOL     OW11374   4.143   7.490   8.349 -0.4115  0.1499  0.0225
 3599SOL    HW111375   4.100   7.418   8.395 -1.4746  1.1925  0.7701
 3599SOL    HW211376   4.100   7.569   8.384  0.8456  1.1556 -0.5993
 3600SOL     OW11377   7.379   7.773   8.634  0.5068  0.5348 -0.4723
 3600SOL    HW111378   7.458   7.754   8.583  0.8091  0.3011  0.0723
 3600SOL    HW211379   7.306   7.750   8.575  0.8494 -1.3373 -0.2415
 3601SOL     OW11380   8.195   6.989   5.230  0.2262  0.4310 -0.1576
 3601SOL    HW111381   8.167   6.901   5.256 -1.4798  0.7802 -0.6601
 3601SOL    HW211382   8.279   6.976   5.187  0.3429 -0.8606  0.4154
 3602SOL     OW11383   4.658   2.851   7.410 -0.1091  0.9392 -0.0552
 3602SOL    HW111384   4.596   2.877   7.342 -0.3968  0.0335 -0.1458
 3602SOL    HW211385   4.742   2.841   7.364 -0.2349  0.6307 -0.2162
 3603SOL     OW11386   9.620   6.785   3.913 -0.1585  0.5139 -0.7441
 3603SOL    HW111387   9.657   6.798   3.825 -0.7975  1.4613 -0.8840
 3603SOL    HW211388   9.651   6.860   3.963  0.9797 -0.4999  0.1301
 3604SOL     OW11389   4.802   4.055   6.083 -0.1012 -0.2658  0.9282
 3604SOL    HW111390   4.791   3.961   6.068 -1.1740 -0.1242  0.7028
 3604SOL    HW211391   4.877   4.062   6.142 -0.8564 -1.3678  2.0584
 3605SOL     OW11392   9.662   0.867   2.741 -0.8799 -0.2511 -0.4464
 3605SOL    HW111393   9.626   0.932   2.681 -1.2932 -0.5854 -0.5724
 3605SOL    HW211394   9.589   0.848   2.801 -0.7778 -0.6182 -0.4345
 3606SOL     OW11395   8.008   5.832   8.703  0.1570 -0.1997 -0.1780
 3606SOL    HW111396   8.075   5.899   8.719 -0.2748  0.2633 -0.2911
 3606SOL    HW211397   8.057   5.756   8.672  0.5437  0.4621 -1.2449
 3607SOL     OW11398   3.316   2.729   2.314 -0.0390 -0.6056  0.2841
 3607SOL    HW111399   3.227   2.716   2.348 -0.1223 -1.1110 -0.1151
 3607SOL    HW211400   3.306   2.730   2.219  0.4620 -1.3195  0.2126
 3608SOL     OW11401   0.860   4.609   4.941  0.8757 -0.1030 -0.4824
 3608SOL    HW111402   0.868   4.527   4.990  0.0622 -0.8499 -1.5583
 3608SOL    HW211403   0.949   4.630   4.914  1.0978 -0.6077 -0.1491
 3609SOL     OW11404   8.944   3.011   6.381 -0.1584  0.0772 -0.0924
 3609SOL    HW111405   8.894   3.010   6.300 -0.3987  0.3895  0.0525
 3609SOL    HW211406   8.912   2.935   6.431 -0.7411  0.4770  0.1529
 3610SOL     OW11407   0.833   2.299   1.772  0.0767 -0.2024  0.0558
 3610SOL    HW111408   0.861   2.389   1.786 -1.2244  0.4696 -1.2828
 3610SOL    HW211409   0.896   2.263   1.710  1.3237 -0.6581  1.5349
 3611SOL     OW11410   7.237   5.228   3.397  0.5416 -0.1276 -0.1516
 3611SOL    HW111411   7.263   5.140   3.423 -0.0664 -1.0837 -2.5113
 3611SOL    HW211412   7.181   5.259   3.468  1.4921 -1.2664  1.1357
 3612SOL     OW11413   5.151   2.052   4.398 -0.7526 -0.5571 -0.3948
 3612SOL    HW111414   5.181   1.979   4.344 -1.8382  0.0005 -1.8239
 3612SOL    HW211415   5.151   2.127   4.338 -2.6173 -0.0537  0.1663
 3613SOL     OW11416   3.920   8.335   1.084  0.1201 -0.0208  0.0283
 3613SOL    HW111417   3.862   8.412   1.081  0.7674  0.4939  0.6231
 3613SOL    HW211418   4.007   8.370   1.068  0.1399 -0.9900 -2.5196
 3614SOL     OW11419   0.811   1.920   4.436 -0.4955 -0.7524 -0.6422
 3614SOL    HW111420   0.750   1.869   4.384 -1.0403  0.4941 -1.2666
 3614SOL    HW211421   0.821   2.002   4.388 -0.0720 -0.0437  0.6032
 3615SOL     OW11422   3.889   9.661   7.661  0.8618 -0.9440 -0.4352
 3615SOL    HW111423   3.806   9.698   7.690  1.9674  0.5883  0.9963
 3615SOL    HW211424   3.894   9.577   7.705  0.8983 -0.2022  1.0266
 3616SOL     OW11425   5.415   2.606   3.578 -0.1713  0.1197  0.1904
 3616SOL    HW111426   5.474   2.682   3.582 -2.3923  1.8814  1.6870
 3616SOL    HW211427   5.474   2.531   3.571  2.1498  1.9044 -0.7734
 3617SOL     OW11428   6.458   1.490   5.890 -0.1963 -0.3283  0.1704
 3617SOL    HW111429   6.538   1.478   5.940  0.2480 -2.9464 -1.0037
 3617SOL    HW211430   6.392   1.515   5.955  0.8923 -1.2042  1.6647
 3618SOL     OW11431   3.630   5.002   2.394  0.0469 -0.1917  0.3222
 3618SOL    HW111432   3.684   4.975   2.469 -0.2274  0.0277  0.6017
 3618SOL    HW211433   3.693   5.015   2.323  0.8961  3.5356  1.5369
 3619SOL     OW11434   7.430   6.645   1.487 -0.1258  0.3039 -0.4717
 3619SOL    HW111435   7.486   6.718   1.464  0.6988 -0.0712  0.3280
 3619SOL    HW211436   7.419   6.650   1.582 -0.4107 -0.3514 -0.4578
 3620SOL     OW11437   9.798   4.073   2.580 -0.4227  0.4337 -0.1652
 3620SOL    HW111438   9.856   4.047   2.509  0.2490  1.4202 -0.0025
 3620SOL    HW211439   9.725   4.012   2.575 -0.0282  0.0238 -1.2325
 3621SOL     OW11440   4.934   1.403   0.262 -0.4776  0.0815  0.4502
 3621SOL    HW111441   4.954   1.383   0.171 -3.1123 -0.0666 -0.1811
 3621SOL    HW211442   5.003   1.360   0.312 -0.0890 -1.5493 -1.3824
 3622SOL     OW11443   1.922   6.354   6.648  0.4301 -0.3592  0.0673
 3622SOL    HW111444   1.834   6.371   6.615  0.3672  1.4301  1.0578
 3622SOL    HW211445   1.933   6.259   6.638 -1.2745 -0.4976 -0.8423
 3623SOL     OW11446   4.943   4.523   9.549 -0.6583  0.0831  0.1190
 3623SOL    HW111447   4.962   4.454   9.612 -0.8521  1.1588  1.4041
 3623SOL    HW211448   5.025   4.535   9.500  0.2086  0.7208  1.6668
 3624SOL     OW11449   3.778   6.751   2.223 -0.7919 -0.1287 -0.1740
 3624SOL    HW111450   3.699   6.804   2.212 -2.1441 -2.2776 -1.6896
 3624SOL    HW211451   3.746   6.661   2.226  1.3478 -0.9645  2.6863
 3625SOL     OW11452   0.412   4.559   0.252  0.6326  0.2590 -0.5430
 3625SOL    HW111453   0.358   4.480   0.256  0.8386  0.1331 -0.2141
 3625SOL    HW211454   0.350   4.631   0.254  0.3279  0.1059 -2.4953
 3626SOL     OW11455   7.503   5.085   8.560  0.4469 -0.2035  0.2725
 3626SOL    HW111456   7.533   5.145   8.492  1.0452  0.2376  0.9067
 3626SOL    HW211457   7.483   5.004   8.514  0.5215  0.1943 -0.4676
 3627SOL     OW11458   2.322   7.285   7.575 -0.1543  0.2513 -0.2414
 3627SOL    HW111459   2.243   7.314   7.531  2.0163  1.3036 -3.8108
 3627SOL    HW211460   2.393   7.306   7.515  2.7449 -2.2002  1.9793
 3628SOL     OW11461   4.881   8.606   2.198 -0.4798  0.2989  0.4515
 3628SOL    HW111462   4.799   8.655   2.204 -0.3531  0.6031 -0.2505
 3628SOL    HW211463   4.913   8.601   2.288 -0.8102  0.9654  0.6098
 3629SOL     OW11464   8.458   8.448   4.538  0.1000  0.5941 -0.2841
 3629SOL    HW111465   8.467   8.482   4.449  0.9102 -0.4391 -0.6237
 3629SOL    HW211466   8.478   8.355   4.530  1.3766  0.7003  1.1733
 3630SOL     OW11467   5.987   8.786   0.671  0.0682  0.3344  0.3568
 3630SOL    HW111468   5.924   8.827   0.730  1.0109  1.0031  0.9218
 3630SOL    HW211469   6.004   8.700   0.710 -0.4679  0.1591  0.2112
 3631SOL     OW11470   3.598   0.049   6.839 -0.6184 -0.2080  0.3156
 3631SOL    HW111471   3.692   0.035   6.827 -0.3370 -0.5374  2.4273
 3631SOL    HW211472   3.557   0.003   6.766  0.8443 -0.3192 -0.4781
 3632SOL     OW11473  -0.016   3.177   0.096  0.4140  0.0234  0.4084
 3632SOL    HW111474   0.005   3.128   0.175 -0.9799  0.2579  0.9363
 3632SOL    HW211475   0.031   3.260   0.106  2.2739 -0.8830 -0.2032
 3633SOL     OW11476   0.187   5.946   8.079  0.2480  0.3977 -0.5845
 3633SOL    HW111477   0.220   5.880   8.140 -0.5902  0.6642  0.1896
 3633SOL    HW211478   0.177   5.899   7.996 -1.9719 -0.9631  0.3561
 3634SOL     OW11479   2.320   6.759   0.281 -0.5528  0.4084  0.0219
 3634SOL    HW111480   2.354   6.669   0.276 -0.2985  0.4678  0.6349
 3634SOL    HW211481   2.369   6.807   0.215 -1.7471 -0.2262 -1.3960
 3635SOL     OW11482   4.063   3.534   5.131  0.1643 -0.1177  0.2763
 3635SOL    HW111483   4.106   3.607   5.176 -1.7829 -0.4229  2.7870
 3635SOL    HW211484   4.121   3.459   5.145  0.2644  0.1067  1.0896
 3636SOL     OW11485   1.437   4.961   6.503  0.0494 -0.0415  0.2429
 3636SOL    HW111486   1.379   4.942   6.429  1.9932 -2.5567 -0.7740
 3636SOL    HW211487   1.407   4.901   6.572  0.5629 -0.3527  0.1954
 3637SOL     OW11488   3.292   5.918   8.872 -0.3179  0.5254 -0.0849
 3637SOL    HW111489   3.265   5.882   8.956 -1.0659  0.7394 -0.2201
 3637SOL    HW211490   3.386   5.902   8.868 -0.4498 -0.4335  0.3203
 3638SOL     OW11491   7.662   2.822   9.157  0.2971  0.4164  0.7271
 3638SOL    HW111492   7.606   2.752   9.190 -1.2702  0.7721 -0.9887
 3638SOL    HW211493   7.643   2.896   9.215 -0.3251  0.2635  0.7266
 3639SOL     OW11494   9.946   9.369   2.211  0.2035 -0.0148  0.8769
 3639SOL    HW111495   9.908   9.456   2.222 -0.4232  0.0899 -1.3983
 3639SOL    HW211496   9.896   9.331   2.138  1.3426 -1.7640  0.9478
 3640SOL     OW11497   3.949   4.277   1.384 -0.7193  0.1546 -0.1420
 3640SOL    HW111498   4.011   4.294   1.313 -0.2719 -0.8490 -0.0012
 3640SOL    HW211499   3.981   4.331   1.456 -0.7447  0.6031 -0.4585
 3641SOL     OW11500   0.427   5.900   7.505  0.8125 -0.5229  0.3284
 3641SOL    HW111501   0.417   5.825   7.446 -1.7716 -0.2730  0.3322
 3641SOL    HW211502   0.518   5.928   7.493  1.3053 -2.4745 -1.0693
 3642SOL     OW11503   4.379   7.009   3.050 -0.4622 -0.4569 -0.2062
 3642SOL    HW111504   4.370   7.040   3.140  0.4532  0.3172 -0.3686
 3642SOL    HW211505   4.300   6.957   3.035 -0.5414 -0.7518  1.1016
 3643SOL     OW11506   6.972   9.459   9.957  0.1901 -0.3696 -0.6598
 3643SOL    HW111507   6.967   9.378   9.906  1.7188 -0.9516  0.0503
 3643SOL    HW211508   7.031   9.516   9.907  0.4582 -0.3510 -0.3289
 3644SOL     OW11509   6.060   5.571   6.929  0.2469  0.9737  0.4663
 3644SOL    HW111510   6.053   5.563   7.024  0.0875  2.7985  0.6499
 3644SOL    HW211511   6.003   5.502   6.894  0.3370  0.2622  1.6745
 3645SOL     OW11512   8.425   7.271   7.404 -0.0985  0.6711 -0.2934
 3645SOL    HW111513   8.466   7.342   7.355  0.4202 -0.4957 -1.6002
 3645SOL    HW211514   8.469   7.191   7.374 -1.3677 -0.3263  0.3545
 3646SOL     OW11515   1.180   9.557   1.074 -0.6632  0.3667  0.7093
 3646SOL    HW111516   1.201   9.550   1.167  3.7925 -2.7035 -0.2055
 3646SOL    HW211517   1.202   9.646   1.050 -1.4565  1.0655  2.4366
 3647SOL     OW11518   6.641   1.705   5.777 -0.4153  0.1771  0.1668
 3647SOL    HW111519   6.699   1.644   5.733  1.0665  1.5656  0.1194
 3647SOL    HW211520   6.563   1.708   5.721 -0.4295 -1.4648  0.0615
 3648SOL     OW11521   9.476   7.123   8.755 -0.2490  0.3100 -0.1878
 3648SOL    HW111522   9.455   7.206   8.711 -1.1489 -0.8289 -2.0098
 3648SOL    HW211523   9.558   7.141   8.801  0.0039  1.9878 -1.1894
 3649SOL     OW11524   3.253   9.506   8.321  0.0818  0.8225  0.2717
 3649SOL    HW111525   3.219   9.476   8.237  1.3146 -0.8457  0.3190
 3649SOL    HW211526   3.348   9.512   8.307  0.3022  0.5090  1.5350
 3650SOL     OW11527   0.100   9.516   9.991  0.2766  0.0108 -0.0131
 3650SOL    HW111528   0.175   9.468   9.955  0.1798  0.4064 -0.7773
 3650SOL    HW211529   0.031   9.502   9.926 -0.0511  0.3429  0.2654
 3651SOL     OW11530   3.921   1.690   5.812  0.2697 -0.3831 -0.1055
 3651SOL    HW111531   3.881   1.603   5.808 -0.2134 -0.4410  3.0442
 3651SOL    HW211532   3.994   1.680   5.873  0.7199  1.2385 -0.3364
 3652SOL     OW11533   3.182   5.934   8.418 -0.9658  0.3120 -0.0096
 3652SOL    HW111534   3.276   5.945   8.411 -1.0911  1.4948 -0.0813
 3652SOL    HW211535   3.155   5.897   8.334 -0.3769 -1.7228  0.6418
 3653SOL     OW11536   6.827   8.162   0.596 -0.3229  0.2950  0.5724
 3653SOL    HW111537   6.877   8.198   0.523 -1.4392 -0.7571 -0.7719
 3653SOL    HW211538   6.893   8.126   0.655  0.6190  1.5473  0.3079
 3654SOL     OW11539   5.910   4.223   5.128  0.0233  0.0734 -0.5363
 3654SOL    HW111540   5.889   4.276   5.205 -0.3029 -0.8048  0.0064
 3654SOL    HW211541   5.900   4.132   5.159  1.9952 -0.3486 -1.0053
 3655SOL     OW11542   8.508   8.491   4.231 -0.0430  0.1555  0.1325
 3655SOL    HW111543   8.576   8.435   4.268 -0.1445 -0.8932 -1.1835
 3655SOL    HW211544   8.539   8.512   4.143 -1.4366 -0.4688 -0.5485
 3656SOL     OW11545   3.074   5.258   8.120 -0.2048  0.7125  0.3902
 3656SOL    HW111546   3.040   5.174   8.088  1.1868  0.1388  0.3406
 3656SOL    HW211547   3.144   5.233   8.180 -0.0167  1.8506  0.6550
 3657SOL     OW11548   4.373   7.071   9.272  0.5470  0.8975  0.1932
 3657SOL    HW111549   4.361   7.033   9.185  0.9023  1.0657  0.0688
 3657SOL    HW211550   4.467   7.085   9.280  0.6384 -0.0470  1.0080
 3658SOL     OW11551   1.752   1.677   1.336 -0.3515  0.1465 -0.3247
 3658SOL    HW111552   1.718   1.737   1.402  0.0208 -0.3960  0.3689
 3658SOL    HW211553   1.740   1.724   1.253  1.7136  2.0534  0.3352
 3659SOL     OW11554   2.326   2.325   1.642 -0.2334  0.2302  0.1767
 3659SOL    HW111555   2.267   2.368   1.581 -1.9784 -1.1677  0.7915
 3659SOL    HW211556   2.288   2.238   1.655  1.7008 -0.5621  1.0043
 3660SOL     OW11557   2.810   9.302   8.935 -0.7673  0.2249 -1.2286
 3660SOL    HW111558   2.805   9.264   8.847 -0.7753 -2.0153 -0.3047
 3660SOL    HW211559   2.730   9.273   8.979  0.4788 -0.9954  0.3561
 3661SOL     OW11560   1.615   9.898   7.836 -0.3426 -0.7031 -0.1691
 3661SOL    HW111561   1.596   9.880   7.744 -0.0953 -0.9234 -0.1763
 3661SOL    HW211562   1.686   9.962   7.833 -0.8773 -0.0854 -0.1380
 3662SOL     OW11563   6.728   2.679   4.012  0.2695  0.1624  0.2781
 3662SOL    HW111564   6.646   2.715   3.979 -1.2262 -2.2356  1.0699
 3662SOL    HW211565   6.795   2.716   3.956 -1.4669  1.4275 -1.0700
 3663SOL     OW11566   1.237   8.938   3.890 -0.0008  0.3204 -0.1704
 3663SOL    HW111567   1.242   8.886   3.810  1.5899  1.8327 -1.1296
 3663SOL    HW211568   1.235   9.029   3.860 -1.6340  0.8939  1.4781
 3664SOL     OW11569   5.663   4.494   9.443  0.8729 -0.8961 -0.5311
 3664SOL    HW111570   5.608   4.532   9.374  2.5719  0.0226 -1.4282
 3664SOL    HW211571   5.743   4.468   9.398  0.9897 -2.6966  0.6583
 3665SOL     OW11572   5.762   7.073   6.606 -0.2616 -0.1613  0.6100
 3665SOL    HW111573   5.685   7.074   6.662  1.1783 -2.6032  2.8173
 3665SOL    HW211574   5.798   7.162   6.614 -1.5047  0.2984  1.4248
 3666SOL     OW11575   2.784   4.222   6.806  0.2694 -0.0523 -0.3571
 3666SOL    HW111576   2.831   4.138   6.810  1.5152  0.6357 -0.0472
 3666SOL    HW211577   2.829   4.277   6.870  0.5882  1.4006 -1.7591
 3667SOL     OW11578   5.000   1.494   5.964 -0.5455  0.0495 -0.3116
 3667SOL    HW111579   4.982   1.458   5.877  1.5139 -1.1573 -0.3129
 3667SOL    HW211580   4.919   1.480   6.013 -1.7252  0.7046 -1.9918
 3668SOL     OW11581   6.329   4.566   5.284  1.1514  0.0861 -0.6526
 3668SOL    HW111582   6.273   4.602   5.352  3.0652 -1.0422  1.6790
 3668SOL    HW211583   6.389   4.637   5.262  1.8656 -0.1688  0.4180
 3669SOL     OW11584   6.435   3.782   4.280  0.4476 -0.0173  0.5060
 3669SOL    HW111585   6.411   3.867   4.318  1.5010  0.6231 -0.2220
 3669SOL    HW211586   6.431   3.721   4.354  1.1149  0.9501  1.3637
 3670SOL     OW11587   9.584   2.604   5.869 -0.2287  0.3288 -0.1964
 3670SOL    HW111588   9.541   2.519   5.868  1.8760 -0.7817 -1.4368
 3670SOL    HW211589   9.522   2.661   5.915 -2.0799 -1.6291 -0.1080
 3671SOL     OW11590   8.315   1.981   8.191  0.0898 -0.0905 -0.2597
 3671SOL    HW111591   8.326   2.071   8.222 -0.9332 -0.1278  0.2470
 3671SOL    HW211592   8.395   1.936   8.221  0.2796  0.4763  0.1056
 3672SOL     OW11593   3.739   9.788   2.543  0.1675 -0.0008 -0.1171
 3672SOL    HW111594   3.705   9.845   2.474  0.1246  0.5824  0.3685
 3672SOL    HW211595   3.665   9.775   2.602  0.2225 -0.4301 -0.1441
 3673SOL     OW11596   9.213   6.861   0.439 -0.2110  0.1805  0.2372
 3673SOL    HW111597   9.262   6.909   0.505  0.4943  0.2264 -0.3165
 3673SOL    HW211598   9.165   6.795   0.489  2.6651 -1.8314  0.5805
 3674SOL     OW11599   0.424   5.034   9.299 -0.1277  0.8727  0.0616
 3674SOL    HW111600   0.396   4.957   9.350 -0.6955  0.5924 -0.6524
 3674SOL    HW211601   0.344   5.084   9.286 -0.9786 -1.1628 -4.1239
 3675SOL     OW11602   8.917   3.885   9.254 -0.3326 -0.1134 -0.0260
 3675SOL    HW111603   8.973   3.852   9.324  1.4796 -1.2202 -1.8957
 3675SOL    HW211604   8.885   3.806   9.210  0.0602  0.5523 -1.5546
 3676SOL     OW11605   5.530   7.884   3.136 -0.2525  0.1111 -0.0204
 3676SOL    HW111606   5.451   7.916   3.179 -1.5322  0.2892 -2.3459
 3676SOL    HW211607   5.558   7.956   3.079  0.1160 -0.8417 -1.0817
 3677SOL     OW11608   9.137   8.376   0.544 -0.3657  0.1985 -0.1960
 3677SOL    HW111609   9.069   8.390   0.478 -1.9743  1.4386  1.5914
 3677SOL    HW211610   9.128   8.284   0.569  0.0549 -0.1951 -1.4510
 3678SOL     OW11611   1.451   7.358   1.498  0.1210 -0.0024 -0.2729
 3678SOL    HW111612   1.545   7.369   1.514 -0.1419  1.4726  0.4592
 3678SOL    HW211613   1.419   7.447   1.483 -1.2021 -0.4679 -0.3201
 3679SOL     OW11614   3.621   6.111   5.470 -0.1880  0.1425  0.8686
 3679SOL    HW111615   3.538   6.124   5.517  0.1711  0.0491  1.5431
 3679SOL    HW211616   3.671   6.053   5.527  0.3407  0.1881  0.4540
 3680SOL     OW11617   5.655   8.780   7.380 -0.2194  0.3640 -0.2112
 3680SOL    HW111618   5.683   8.851   7.322 -0.8246  0.4117 -0.4599
 3680SOL    HW211619   5.735   8.734   7.403 -0.0620 -0.4196 -2.0969
 3681SOL     OW11620   7.389   1.153   1.552  0.0373  0.3880 -0.0773
 3681SOL    HW111621   7.458   1.142   1.486 -0.6395  1.4319 -0.9993
 3681SOL    HW211622   7.416   1.096   1.625  1.3328 -0.0051 -0.8277
 3682SOL     OW11623   1.829   6.972   2.533 -0.3505  0.8659 -0.5005
 3682SOL    HW111624   1.827   6.894   2.589 -1.4486 -0.4723 -2.2550
 3682SOL    HW211625   1.877   7.037   2.583 -0.3543 -0.5856  1.5121
 3683SOL     OW11626   9.628   4.412   0.985  0.4169 -0.1621  0.1154
 3683SOL    HW111627   9.662   4.323   0.984 -1.4472 -1.0099  2.2880
 3683SOL    HW211628   9.551   4.409   0.929  1.2038  0.5141 -1.0298
 3684SOL     OW11629   5.578   7.705   5.192 -0.0748 -0.1327 -0.3095
 3684SOL    HW111630   5.484   7.696   5.178  0.0996 -1.6694 -0.6144
 3684SOL    HW211631   5.615   7.710   5.104  0.1408  0.3615 -0.1921
 3685SOL     OW11632   8.140   1.923   1.291 -0.4994  0.1627  0.4275
 3685SOL    HW111633   8.136   1.997   1.352  0.7569  0.3814  0.2657
 3685SOL    HW211634   8.233   1.914   1.270 -0.9457  0.5569 -2.0363
 3686SOL     OW11635   1.645   1.156   4.610  0.0856  0.1781 -0.4120
 3686SOL    HW111636   1.724   1.159   4.665 -0.0974 -2.3194  0.1186
 3686SOL    HW211637   1.651   1.234   4.555  2.5813  0.4302  0.0869
 3687SOL     OW11638   6.680   4.181   1.791 -0.0813 -0.0362 -0.8495
 3687SOL    HW111639   6.732   4.140   1.722  1.4108  1.8976 -0.9315
 3687SOL    HW211640   6.652   4.264   1.755 -1.0407  0.1028  0.1596
 3688SOL     OW11641   8.353   9.494   0.860 -0.7606  0.2206 -0.0478
 3688SOL    HW111642   8.442   9.459   0.865 -1.0349 -0.3271  1.5633
 3688SOL    HW211643   8.303   9.426   0.815 -0.5582  0.1217 -0.1238
 3689SOL     OW11644   9.181   0.752   1.879 -0.1028 -0.2174 -0.7971
 3689SOL    HW111645   9.114   0.686   1.863  1.0977 -1.3845 -1.2160
 3689SOL    HW211646   9.204   0.784   1.792 -0.1787  0.2645 -0.6456
 3690SOL     OW11647   9.092   5.496   1.210 -0.0347  0.4475 -0.4605
 3690SOL    HW111648   9.015   5.494   1.153 -0.6369 -0.0168  0.3625
 3690SOL    HW211649   9.067   5.445   1.287  0.7874  1.0198  0.2038
 3691SOL     OW11650   7.196   3.594   8.772 -0.2788  0.6152  0.0387
 3691SOL    HW111651   7.226   3.526   8.832  0.3990 -0.0844 -1.0538
 3691SOL    HW211652   7.271   3.612   8.716 -1.1989  0.4344 -1.3255
 3692SOL     OW11653   5.446   0.388   5.604  0.5711  0.1499  0.0912
 3692SOL    HW111654   5.423   0.375   5.696 -0.2546 -1.9233 -0.3566
 3692SOL    HW211655   5.385   0.333   5.556  1.2915  0.8298 -1.6925
 3693SOL     OW11656   3.845   7.499   6.762  0.5943  0.3899  0.3482
 3693SOL    HW111657   3.853   7.593   6.776 -1.4187  0.9720 -1.8138
 3693SOL    HW211658   3.867   7.486   6.670 -0.8386 -0.9706  0.1434
 3694SOL     OW11659   1.223   7.624   9.361 -0.2073  0.1762  0.3702
 3694SOL    HW111660   1.266   7.594   9.282 -1.4275 -1.0162  0.1182
 3694SOL    HW211661   1.293   7.629   9.426  0.2986 -2.0280  0.0779
 3695SOL     OW11662   4.227   3.142   8.251 -0.9359 -0.1941 -0.7217
 3695SOL    HW111663   4.186   3.172   8.332 -1.3980 -0.8327 -0.7097
 3695SOL    HW211664   4.222   3.217   8.192  0.4231  0.6597  0.1902
 3696SOL     OW11665   4.751   3.156   9.843  0.1583  0.2976 -0.0381
 3696SOL    HW111666   4.788   3.229   9.893 -0.1564 -0.4854  1.4199
 3696SOL    HW211667   4.689   3.115   9.904  0.5841 -1.3847 -0.6787
 3697SOL     OW11668   9.629   7.962   2.903 -0.4278 -0.0402 -0.3535
 3697SOL    HW111669   9.552   7.974   2.958 -0.7910  1.9637 -1.2209
 3697SOL    HW211670   9.696   8.017   2.943  0.5328 -1.5988  0.2676
 3698SOL     OW11671   4.846   2.884   8.723  0.4721  0.3266  0.2971
 3698SOL    HW111672   4.794   2.948   8.771 -1.1123 -0.0272 -0.8454
 3698SOL    HW211673   4.915   2.935   8.680 -0.3240  1.1628 -0.0079
 3699SOL     OW11674   2.210   8.852   1.178  0.1623  0.2113  0.1346
 3699SOL    HW111675   2.242   8.782   1.235  0.1444 -0.0885 -0.2223
 3699SOL    HW211676   2.281   8.865   1.115  0.6747  1.3211  0.8948
 3700SOL     OW11677   0.236   9.375   7.533 -0.1064  0.1361 -0.8024
 3700SOL    HW111678   0.151   9.414   7.515 -0.7376 -1.7301 -2.1967
 3700SOL    HW211679   0.217   9.285   7.558  1.3863  0.1496  0.5819
 3701SOL     OW11680   5.555   0.895   3.283  0.8925  0.1397  0.0478
 3701SOL    HW111681   5.526   0.900   3.374  0.2403  1.3993 -0.2048
 3701SOL    HW211682   5.482   0.856   3.237  0.7199  0.6535 -0.1243
 3702SOL     OW11683   1.586   0.960   6.696  0.2312 -0.0547  0.3393
 3702SOL    HW111684   1.591   0.911   6.614 -0.7982  0.6898 -0.1881
 3702SOL    HW211685   1.625   1.045   6.675 -1.4511  0.7118  0.1406
 3703SOL     OW11686   2.469   1.864   0.532 -0.2025  0.1120 -0.1332
 3703SOL    HW111687   2.392   1.810   0.517 -0.5961  0.1841  1.4058
 3703SOL    HW211688   2.457   1.897   0.621  1.7076 -0.0221  0.2037
 3704SOL     OW11689   0.249   1.486   4.895  0.0652  0.3672  0.2105
 3704SOL    HW111690   0.277   1.426   4.825  1.9522  0.9748  0.3898
 3704SOL    HW211691   0.288   1.570   4.871  0.1394  0.7532  1.6196
 3705SOL     OW11692   2.535   0.329   4.264 -0.0993  0.5559  0.2370
 3705SOL    HW111693   2.616   0.379   4.275  2.4219 -3.1396  0.2517
 3705SOL    HW211694   2.533   0.307   4.171 -0.5554 -0.1507  0.4056
 3706SOL     OW11695   5.589   3.220   3.387 -0.0226 -0.4472 -0.4076
 3706SOL    HW111696   5.612   3.297   3.440  0.2042 -1.1331  0.5244
 3706SOL    HW211697   5.548   3.256   3.309  4.4145  0.9564 -2.4565
 3707SOL     OW11698   3.443   2.847   4.836  0.0999 -0.3074  0.2714
 3707SOL    HW111699   3.456   2.753   4.849 -0.0117 -0.4426 -0.5357
 3707SOL    HW211700   3.458   2.861   4.743 -1.9221  0.1026 -0.0540
 3708SOL     OW11701   0.528   6.328   2.660 -0.0852  0.2981  0.7480
 3708SOL    HW111702   0.498   6.239   2.677 -0.3110  0.1591 -0.2743
 3708SOL    HW211703   0.451   6.383   2.675 -0.7582  0.0044 -1.2924
 3709SOL     OW11704   2.555   6.471   1.790 -0.3142  0.3805  0.4468
 3709SOL    HW111705   2.476   6.420   1.807  0.0700  0.4085  2.6695
 3709SOL    HW211706   2.548   6.496   1.698 -1.7574 -1.5092 -0.0249
 3710SOL     OW11707   1.468   5.948   3.972  0.0712 -0.0022 -0.2824
 3710SOL    HW111708   1.455   6.040   3.953 -0.0444  0.3481  1.3228
 3710SOL    HW211709   1.443   5.939   4.064  0.4472 -1.5559 -0.3026
 3711SOL     OW11710   4.562   8.203   8.132 -0.3615 -0.2939  0.7609
 3711SOL    HW111711   4.638   8.155   8.164 -0.4912 -0.7319  0.4341
 3711SOL    HW211712   4.491   8.139   8.134 -0.3420 -0.3865 -0.5094
 3712SOL     OW11713   1.881   5.130   1.190 -0.5131  0.0200 -0.0958
 3712SOL    HW111714   1.926   5.205   1.229 -0.8739  0.4068 -0.4157
 3712SOL    HW211715   1.949   5.062   1.183  0.0073  0.5740 -0.5187
 3713SOL     OW11716   1.704   3.519   4.915  0.1348 -0.0802  0.1046
 3713SOL    HW111717   1.780   3.574   4.896 -0.0178  0.2522  0.4334
 3713SOL    HW211718   1.653   3.519   4.835  1.0309 -1.2165 -0.4951
 3714SOL     OW11719   8.211   4.153   4.232  0.4048  0.2914  0.1650
 3714SOL    HW111720   8.158   4.076   4.212 -0.8373  0.9867  0.6866
 3714SOL    HW211721   8.160   4.202   4.296  0.6867  2.0782 -0.9024
 3715SOL     OW11722   1.810   0.868   3.525 -0.0431  0.0127  0.4192
 3715SOL    HW111723   1.817   0.778   3.559 -2.1695  0.2089  1.5576
 3715SOL    HW211724   1.890   0.911   3.557  0.8529 -1.3517  0.1330
 3716SOL     OW11725   0.686   6.789   0.667 -0.0981  0.2297  0.4380
 3716SOL    HW111726   0.694   6.693   0.674 -1.5440  0.0277 -0.2457
 3716SOL    HW211727   0.767   6.817   0.626 -0.2228 -0.8893 -0.6371
 3717SOL     OW11728   9.704   8.931   9.237  0.3112  0.0779 -0.2158
 3717SOL    HW111729   9.615   8.965   9.225 -0.2175 -1.6452 -1.3940
 3717SOL    HW211730   9.741   8.989   9.304 -1.1846  1.7366 -0.7168
 3718SOL     OW11731   8.214   6.701   8.233  0.2955  0.2725 -0.4258
 3718SOL    HW111732   8.246   6.639   8.167 -0.1768  0.2172 -0.6032
 3718SOL    HW211733   8.270   6.778   8.221  1.9417 -0.6657  0.8487
 3719SOL     OW11734   8.475   4.611   3.618  0.1753  0.2015 -0.8179
 3719SOL    HW111735   8.523   4.669   3.677  0.7414 -0.6312 -0.4376
 3719SOL    HW211736   8.522   4.616   3.535  1.7009 -1.5081 -0.1277
 3720SOL     OW11737   0.626   2.876   7.387 -0.6187 -0.1534 -0.3233
 3720SOL    HW111738   0.573   2.799   7.409  0.9986 -0.8015  1.5266
 3720SOL    HW211739   0.633   2.925   7.469  2.2451 -0.4962 -0.2879
 3721SOL     OW11740   4.481   7.900   2.690 -0.2468  0.0884 -0.2472
 3721SOL    HW111741   4.541   7.843   2.642 -1.6677 -0.1076 -1.9017
 3721SOL    HW211742   4.477   7.862   2.778  1.1194 -0.5736 -0.4435
 3722SOL     OW11743   4.924   3.069   8.290 -0.0730  0.5614  0.2732
 3722SOL    HW111744   4.834   3.088   8.316 -0.0282  2.1861 -0.6379
 3722SOL    HW211745   4.920   3.057   8.195  0.8525  1.9498  0.0449
 3723SOL     OW11746   0.352   0.133   6.418  0.4836  0.0015  0.3514
 3723SOL    HW111747   0.440   0.169   6.431 -0.2852  2.0133  0.1688
 3723SOL    HW211748   0.321   0.173   6.337 -0.8053 -0.3013  0.6807
 3724SOL     OW11749   1.622   6.986   6.180  0.1139 -0.1186  0.7028
 3724SOL    HW111750   1.591   6.897   6.196  1.7492 -0.6704  1.0366
 3724SOL    HW211751   1.715   6.984   6.206  0.6076  1.2578 -0.7939
 3725SOL     OW11752   9.581   9.224   1.252 -0.5863 -0.3056 -0.2993
 3725SOL    HW111753   9.557   9.259   1.167  0.0373 -0.7575 -0.6755
 3725SOL    HW211754   9.543   9.136   1.253 -2.2243  0.3592  0.6724
 3726SOL     OW11755   8.089   9.232   2.951 -0.7944  0.4837 -1.0273
 3726SOL    HW111756   8.171   9.184   2.942 -0.0711  1.1620  1.2198
 3726SOL    HW211757   8.109   9.321   2.922 -0.3944  0.9183  0.5018
 3727SOL     OW11758   7.324   4.324   0.505 -0.3775  0.2972  0.1582
 3727SOL    HW111759   7.335   4.381   0.429  0.8427 -0.6097 -0.3641
 3727SOL    HW211760   7.260   4.259   0.477  0.9626 -0.7608 -0.5575
 3728SOL     OW11761   4.792   7.175   6.207 -0.0752 -0.3826  0.0861
 3728SOL    HW111762   4.766   7.083   6.202  0.6629 -0.5514 -2.3842
 3728SOL    HW211763   4.712   7.222   6.230 -0.8374 -1.4974 -0.1954
 3729SOL     OW11764   7.150   8.263   4.770 -0.1855  0.0381  0.5195
 3729SOL    HW111765   7.187   8.245   4.856  2.5476  2.6877  0.0688
 3729SOL    HW211766   7.208   8.219   4.708 -1.8304 -1.4116 -0.0829
 3730SOL     OW11767   2.342   2.575   4.984 -0.1117 -0.2154  0.4055
 3730SOL    HW111768   2.397   2.598   4.909 -0.1529  1.8961  0.9411
 3730SOL    HW211769   2.255   2.559   4.947  0.2611 -0.9950 -0.1619
 3731SOL     OW11770   4.845   2.680   9.859 -0.1056 -0.7814 -0.5805
 3731SOL    HW111771   4.809   2.596   9.888  1.5818 -0.9801  1.1018
 3731SOL    HW211772   4.773   2.720   9.809 -1.2683 -2.7959 -0.6418
 3732SOL     OW11773   3.270   9.273   4.870  0.6476  0.3836  0.6459
 3732SOL    HW111774   3.321   9.223   4.934  0.9395  0.8001  0.7386
 3732SOL    HW211775   3.196   9.216   4.850  0.4259  0.3521  1.5314
 3733SOL     OW11776   5.725   4.097   2.881 -0.4851 -1.0306  0.4609
 3733SOL    HW111777   5.728   4.074   2.788 -1.3853 -2.6757  0.8046
 3733SOL    HW211778   5.636   4.132   2.893 -0.6654 -1.6242  0.8677
 3734SOL     OW11779   2.698   2.011   8.959  0.0929  0.1356 -0.3066
 3734SOL    HW111780   2.646   2.032   9.036  0.4879  0.3319 -0.0905
 3734SOL    HW211781   2.786   2.042   8.980  1.0751 -2.8433  0.6116
 3735SOL     OW11782   4.552   8.243   8.486  0.1885 -0.2026  0.5068
 3735SOL    HW111783   4.560   8.186   8.409 -1.6019  0.2214 -0.0468
 3735SOL    HW211784   4.639   8.281   8.497  0.5426 -0.4348 -1.1942
 3736SOL     OW11785   8.742   0.220   7.530  0.4441  0.0320 -0.5925
 3736SOL    HW111786   8.689   0.300   7.520 -0.8896 -0.7073  0.2542
 3736SOL    HW211787   8.785   0.210   7.445 -0.3277  0.9829 -1.1330
 3737SOL     OW11788   4.163   7.585   2.630 -0.2633 -0.2482 -0.3732
 3737SOL    HW111789   4.195   7.636   2.556 -1.6226  0.6048 -0.4161
 3737SOL    HW211790   4.242   7.557   2.676  0.5585  0.5260 -1.2672
 3738SOL     OW11791   0.317   6.321   7.119  0.3671  0.2530  0.2627
 3738SOL    HW111792   0.289   6.346   7.031 -1.4197 -1.4582  0.2694
 3738SOL    HW211793   0.364   6.238   7.107  1.4735  0.7905  0.7782
 3739SOL     OW11794   2.984   4.475   0.851  0.1749 -0.0470  0.6292
 3739SOL    HW111795   2.921   4.546   0.844  1.5203  1.2948  1.6451
 3739SOL    HW211796   3.029   4.474   0.767 -1.1961 -1.0653 -0.1317
 3740SOL     OW11797   3.692   5.815   6.811  0.2678  0.8342  0.1691
 3740SOL    HW111798   3.659   5.858   6.732 -0.1033  0.7262  0.2612
 3740SOL    HW211799   3.642   5.855   6.883 -0.8219 -0.4472  0.1710
 3741SOL     OW11800   8.902   6.492   8.205  0.1358  0.4686 -0.2989
 3741SOL    HW111801   8.864   6.539   8.279  0.0703  2.6243 -1.6187
 3741SOL    HW211802   8.990   6.468   8.235 -0.7236 -0.8876  1.2954
 3742SOL     OW11803   4.826   2.083   3.224  0.1647 -0.2840  0.4506
 3742SOL    HW111804   4.740   2.043   3.238 -0.0593 -0.0176 -0.1211
 3742SOL    HW211805   4.806   2.170   3.189  0.6194  0.6639  2.3801
 3743SOL     OW11806   6.344   4.207   6.661 -0.6963 -0.5138 -0.0974
 3743SOL    HW111807   6.255   4.243   6.665  0.1681  1.6165  2.4533
 3743SOL    HW211808   6.399   4.281   6.636  0.6332 -1.1663  0.7896
 3744SOL     OW11809   4.315   2.397   2.219 -0.3033 -0.2988  0.9040
 3744SOL    HW111810   4.251   2.365   2.283 -0.1783 -1.9021  0.2806
 3744SOL    HW211811   4.269   2.465   2.171 -1.6961 -1.6477  0.2492
 3745SOL     OW11812   1.308   2.336   9.511 -0.0559  0.0536  0.0312
 3745SOL    HW111813   1.230   2.347   9.455  0.7957 -0.7726 -1.3789
 3745SOL    HW211814   1.358   2.416   9.496 -0.9137  0.9099  1.4826
 3746SOL     OW11815   2.082   9.481   6.209  0.0866  0.1941 -0.2273
 3746SOL    HW111816   2.035   9.543   6.153 -0.8091 -1.0989 -0.9805
 3746SOL    HW211817   2.144   9.535   6.258  0.5385  1.4572 -2.0756
 3747SOL     OW11818   0.218   8.837   4.901 -0.0199  0.4495 -0.3189
 3747SOL    HW111819   0.289   8.817   4.962 -0.2509 -2.1099 -0.7898
 3747SOL    HW211820   0.239   8.786   4.823 -1.9035  0.3850 -0.8219
 3748SOL     OW11821   5.038   6.067   4.588 -0.1549  0.0500  0.3267
 3748SOL    HW111822   4.996   5.981   4.592  0.3514 -0.2781 -0.9606
 3748SOL    HW211823   5.093   6.070   4.666  1.2796 -1.6008 -0.5298
 3749SOL     OW11824   2.946   3.112   0.314 -0.6387  0.4104  0.2907
 3749SOL    HW111825   3.029   3.135   0.356 -0.5701  1.4024 -0.3753
 3749SOL    HW211826   2.966   3.109   0.221 -1.2199  0.0450  0.1726
 3750SOL     OW11827   1.043   3.956   1.803 -0.4181  0.2033 -0.6046
 3750SOL    HW111828   0.979   4.027   1.806  0.8056  1.4282 -1.7490
 3750SOL    HW211829   1.089   3.969   1.720 -0.4768 -2.2446 -1.0903
 3751SOL     OW11830   8.706   6.148   5.415  0.2799  0.8665 -0.4090
 3751SOL    HW111831   8.794   6.148   5.452  0.6557  0.7411 -1.2737
 3751SOL    HW211832   8.696   6.061   5.377  0.0947  1.1541 -1.0228
 3752SOL     OW11833   5.974   8.444   5.890 -0.1103  0.0406 -0.2496
 3752SOL    HW111834   5.996   8.441   5.983 -0.5438  1.4675 -0.0733
 3752SOL    HW211835   5.946   8.535   5.875 -1.5671 -0.5665 -1.4190
 3753SOL     OW11836   5.624   8.376   5.771  0.2666 -0.4427  0.0193
 3753SOL    HW111837   5.593   8.339   5.854  2.1751 -0.3887  0.7990
 3753SOL    HW211838   5.639   8.468   5.790 -0.1036 -0.2438 -0.6367
 3754SOL     OW11839   9.065   1.068   1.683  0.1345  0.4121 -0.1949
 3754SOL    HW111840   9.015   1.024   1.614 -0.6713  1.8410 -0.5677
 3754SOL    HW211841   9.004   1.134   1.718  1.8112  2.3743 -0.8045
 3755SOL     OW11842   2.509   8.136   8.050 -0.1572  0.1427 -0.3105
 3755SOL    HW111843   2.513   8.041   8.066  0.6316  0.0778 -0.8651
 3755SOL    HW211844   2.448   8.168   8.116  0.9679 -0.5017  1.0968
 3756SOL     OW11845   3.004   5.048   4.496 -0.1710  0.5874 -0.5507
 3756SOL    HW111846   3.060   5.095   4.559 -0.1457 -1.2042  0.8329
 3756SOL    HW211847   2.923   5.099   4.493 -0.5003  0.2756  1.6323
 3757SOL     OW11848   2.659   9.249   0.645 -0.1285 -0.4993  0.0255
 3757SOL    HW111849   2.735   9.257   0.701 -0.1672 -1.2551  0.2054
 3757SOL    HW211850   2.585   9.273   0.700  0.0248  0.8341 -0.3253
 3758SOL     OW11851   6.908   0.342   1.585  0.0063  0.1229 -0.2950
 3758SOL    HW111852   6.922   0.433   1.611 -0.3554  0.5243 -1.4403
 3758SOL    HW211853   6.982   0.322   1.528 -0.8384  0.3047 -1.4982
 3759SOL     OW11854   8.194   3.652   0.646  0.2191 -0.1814  0.3223
 3759SOL    HW111855   8.215   3.704   0.724  1.0127 -1.7260  1.1856
 3759SOL    HW211856   8.271   3.597   0.632  0.4889  0.6506 -2.1095
 3760SOL     OW11857   9.234   8.609   1.501 -0.1296  0.3926  0.0413
 3760SOL    HW111858   9.285   8.559   1.437 -2.0485 -0.8217 -0.5998
 3760SOL    HW211859   9.145   8.607   1.468 -1.0039  0.6220  2.2386
 3761SOL     OW11860   1.866   4.571   3.372 -0.1337  0.2587 -0.1583
 3761SOL    HW111861   1.923   4.550   3.298  0.5425  0.4174  0.3057
 3761SOL    HW211862   1.874   4.665   3.382  0.7299  0.0973  0.8578
 3762SOL     OW11863   4.490   0.841   8.652 -0.8954  0.3336  0.4019
 3762SOL    HW111864   4.524   0.840   8.563  0.7377 -1.7343  0.9521
 3762SOL    HW211865   4.425   0.910   8.653  1.4479  2.7454 -1.4732
 3763SOL     OW11866   1.898   2.250   2.473 -0.4023  0.1663 -0.1763
 3763SOL    HW111867   1.836   2.196   2.522  1.6781 -2.4961 -0.2640
 3763SOL    HW211868   1.863   2.252   2.384 -0.8253 -0.5429 -0.0309
 3764SOL     OW11869   8.306   7.479   2.473  0.1938 -0.2637  1.1235
 3764SOL    HW111870   8.289   7.387   2.453 -0.9138 -0.0604  1.0788
 3764SOL    HW211871   8.221   7.522   2.465  0.8609  0.9502  0.1970
 3765SOL     OW11872   6.923   9.683   3.993 -0.2472 -0.0474 -0.0626
 3765SOL    HW111873   6.946   9.595   4.023  0.5377  0.3818  0.6325
 3765SOL    HW211874   6.995   9.738   4.023 -1.6996  1.1894  1.3413
 3766SOL     OW11875   0.363   9.033   2.589  0.3348 -0.1840 -0.0405
 3766SOL    HW111876   0.308   8.956   2.605  0.5501 -0.0791  1.2415
 3766SOL    HW211877   0.306   9.108   2.607  0.1832 -0.0242 -1.0989
 3767SOL     OW11878   4.909   6.905   4.195  0.1510 -0.5910  0.3820
 3767SOL    HW111879   4.960   6.831   4.162  1.5100 -0.2484  1.6256
 3767SOL    HW211880   4.849   6.865   4.259 -1.7357 -1.0927 -1.5473
 3768SOL     OW11881   2.069   9.679   7.480 -0.1160  0.2145  0.1087
 3768SOL    HW111882   2.147   9.681   7.537 -0.8677  2.2177  1.1555
 3768SOL    HW211883   2.086   9.607   7.419  1.5604 -0.8216  1.6990
 3769SOL     OW11884   3.843   7.610   4.199  0.3018  0.3981 -0.6893
 3769SOL    HW111885   3.932   7.623   4.231  0.4784 -2.8378  0.4993
 3769SOL    HW211886   3.787   7.650   4.265  0.8409 -1.1235  0.7585
 3770SOL     OW11887   3.895   4.956   6.189  0.4658 -0.5968 -0.1098
 3770SOL    HW111888   3.885   4.925   6.099 -0.5080  0.6507 -0.4609
 3770SOL    HW211889   3.989   4.951   6.207  0.6468 -0.9807 -1.1510
 3771SOL     OW11890   9.165   1.919   4.521  0.4284 -0.3410 -0.8125
 3771SOL    HW111891   9.176   1.916   4.616  0.3862 -3.3473 -0.8060
 3771SOL    HW211892   9.246   1.957   4.489  0.8043 -0.1039  0.3644
 3772SOL     OW11893   8.102   0.917   0.429  0.5217 -0.4396 -0.4722
 3772SOL    HW111894   8.042   0.940   0.358 -1.1094  0.7653  1.1868
 3772SOL    HW211895   8.066   0.835   0.465  1.6380 -1.3257 -1.3185
 3773SOL     OW11896   1.449   4.794   6.206 -0.0794 -0.4051 -0.2493
 3773SOL    HW111897   1.536   4.822   6.233 -0.6750  0.3819  0.9517
 3773SOL    HW211898   1.405   4.873   6.177 -0.1535 -0.9214 -1.6071
 3774SOL     OW11899   5.092   0.508   6.731  0.3892  0.0206 -0.3361
 3774SOL    HW111900   5.129   0.471   6.652  1.9043  0.8541 -0.0614
 3774SOL    HW211901   5.002   0.531   6.708 -0.1093 -2.2926 -0.9524
 3775SOL     OW11902   7.920   4.101   4.663 -0.6405  0.2065 -0.4395
 3775SOL    HW111903   7.947   4.030   4.721 -1.1456  0.5756  0.2681
 3775SOL    HW211904   7.861   4.060   4.600  0.4459 -0.3321 -1.1320
 3776SOL     OW11905   3.608   1.080   1.438  0.0376  0.0423  0.1123
 3776SOL    HW111906   3.636   1.012   1.376  2.2795  1.2976 -0.3728
 3776SOL    HW211907   3.576   1.151   1.383 -0.6583  0.0627  0.5351
 3777SOL     OW11908   5.439   0.222   1.886 -0.2678 -0.4461 -0.0735
 3777SOL    HW111909   5.416   0.229   1.794 -0.0503 -0.8462 -0.1611
 3777SOL    HW211910   5.503   0.150   1.890  1.3361  0.9206  0.0953
 3778SOL     OW11911   1.364   4.596   6.046  0.3625  0.0848  0.2353
 3778SOL    HW111912   1.412   4.644   6.113 -1.6033  2.3253  0.1999
 3778SOL    HW211913   1.282   4.571   6.088  0.7851 -2.2483 -0.1581
 3779SOL     OW11914   8.972   8.466   6.107 -0.0151  0.1505 -0.1341
 3779SOL    HW111915   8.881   8.440   6.093  0.1637 -0.1049 -0.8562
 3779SOL    HW211916   8.973   8.560   6.089 -0.2323  0.2521  0.3665
 3780SOL     OW11917   2.792   0.168   6.773 -0.2569  0.1354 -0.4078
 3780SOL    HW111918   2.743   0.133   6.847  2.0747 -2.2797  0.1493
 3780SOL    HW211919   2.884   0.156   6.797  0.6114 -0.7741 -3.6496
 3781SOL     OW11920   9.591   3.369   3.372  0.8990 -0.0250  0.0753
 3781SOL    HW111921   9.515   3.313   3.359  1.7076 -1.3418  0.7300
 3781SOL    HW211922   9.589   3.392   3.465  0.9363  0.5064 -0.0485
 3782SOL     OW11923   8.004   5.874   9.176  1.0948 -0.4012  0.2017
 3782SOL    HW111924   8.006   5.826   9.259  2.0935  2.5539  2.0456
 3782SOL    HW211925   8.086   5.924   9.176  0.4361  0.7920 -1.8851
 3783SOL     OW11926   5.864   2.742   4.356  0.7681 -0.1272  0.6416
 3783SOL    HW111927   5.959   2.752   4.363  0.8309  0.2062 -0.4706
 3783SOL    HW211928   5.838   2.806   4.290  0.0148 -1.4757 -0.4083
 3784SOL     OW11929   1.007   7.110   1.517  0.1929 -0.3968  0.1258
 3784SOL    HW111930   0.963   7.087   1.435  0.0098 -0.7751  0.3270
 3784SOL    HW211931   1.090   7.063   1.514  1.3096  1.4949 -0.9468
 3785SOL     OW11932   3.905   2.648   7.800 -0.1032  0.3430  0.0072
 3785SOL    HW111933   3.831   2.693   7.759 -1.1543 -1.0232  0.3623
 3785SOL    HW211934   3.970   2.642   7.730 -1.2235 -0.4737 -1.0131
 3786SOL     OW11935   4.764   7.230   7.217 -0.2429  0.3322  0.1138
 3786SOL    HW111936   4.767   7.139   7.249  4.3869 -0.0233 -0.6425
 3786SOL    HW211937   4.814   7.279   7.282 -3.4718  2.7109  1.0125
 3787SOL     OW11938   5.118   4.925   4.200  0.0427 -0.3571  0.2067
 3787SOL    HW111939   5.191   4.967   4.154 -0.0080 -0.7039 -0.1890
 3787SOL    HW211940   5.121   4.834   4.173 -0.3515 -0.4400  0.4309
 3788SOL     OW11941   2.433   7.915   2.657  0.2206 -0.4765  0.3995
 3788SOL    HW111942   2.520   7.884   2.682  0.3578 -1.8716 -1.5921
 3788SOL    HW211943   2.414   7.985   2.720  2.2617 -0.9236  1.6171
 3789SOL     OW11944   2.776   6.327   6.940 -0.0741  0.5706 -0.1615
 3789SOL    HW111945   2.737   6.386   6.876  0.2956  1.2937  0.2603
 3789SOL    HW211946   2.723   6.339   7.019  0.2522  0.6553  0.0488
 3790SOL     OW11947   9.136   1.560   7.608  0.0077 -0.2060  0.0999
 3790SOL    HW111948   9.094   1.646   7.617  1.3570  0.5120 -0.1873
 3790SOL    HW211949   9.193   1.553   7.684  1.9796  0.3998 -1.2374
 3791SOL     OW11950   0.892   9.425   4.523  0.1953 -0.3178 -0.0364
 3791SOL    HW111951   0.805   9.387   4.512 -0.0217 -0.3481  1.4864
 3791SOL    HW211952   0.888   9.467   4.610  1.7132 -0.3703  0.0737
 3792SOL     OW11953   5.075   1.199   9.041 -0.2069  0.0513 -0.3759
 3792SOL    HW111954   5.053   1.171   9.130  1.0284 -2.2802 -0.7139
 3792SOL    HW211955   5.163   1.163   9.026  0.2494  1.6981 -2.0219
 3793SOL     OW11956   2.515   4.521   3.024  0.4517  0.2101 -0.0111
 3793SOL    HW111957   2.455   4.559   2.959  1.2728  1.8409  0.1164
 3793SOL    HW211958   2.463   4.456   3.070 -0.4898 -0.1654 -1.5309
 3794SOL     OW11959   4.693   7.544   5.867  0.4524 -0.3135 -0.2404
 3794SOL    HW111960   4.598   7.532   5.879  0.5145  0.1409  0.7619
 3794SOL    HW211961   4.726   7.457   5.848  0.0697 -0.7742  1.1159
 3795SOL     OW11962   1.924   7.371   0.634  0.2675  0.3865 -0.5726
 3795SOL    HW111963   1.843   7.326   0.657  0.6108 -0.1738 -0.4394
 3795SOL    HW211964   1.899   7.431   0.564 -0.6218  1.4923  0.6459
 3796SOL     OW11965   1.874   2.865   4.198 -0.1294 -0.3693 -0.1670
 3796SOL    HW111966   1.909   2.796   4.255  1.0346 -0.0258 -0.4259
 3796SOL    HW211967   1.942   2.933   4.199 -1.9715  1.5784  1.4396
 3797SOL     OW11968   1.552   7.182   5.671  0.0438 -0.1925  0.1804
 3797SOL    HW111969   1.629   7.125   5.672 -0.1260 -0.4358 -0.2938
 3797SOL    HW211970   1.481   7.128   5.707  0.2729  0.3092  1.4391
 3798SOL     OW11971   9.592   7.354   9.466  0.1346  0.6937 -0.2762
 3798SOL    HW111972   9.549   7.439   9.455  0.1416  0.7718  0.2895
 3798SOL    HW211973   9.532   7.291   9.427  0.1682  0.9666 -0.7765
 3799SOL     OW11974   0.743   4.974   7.743  0.0695  0.0209 -0.4810
 3799SOL    HW111975   0.712   5.027   7.816 -1.3361 -0.7949 -0.4517
 3799SOL    HW211976   0.698   4.890   7.754 -0.4658  0.0006 -2.4753
 3800SOL     OW11977   3.205   9.642   1.216  0.7806 -0.0826  0.5401
 3800SOL    HW111978   3.191   9.688   1.298 -0.3077  0.5142  0.0403
 3800SOL    HW211979   3.131   9.668   1.161  2.8406  1.6343 -1.5875
 3801SOL     OW11980   3.782   5.575   5.165  0.7018  0.6692 -0.2027
 3801SOL    HW111981   3.783   5.496   5.111 -1.1015 -0.1912  0.9373
 3801SOL    HW211982   3.875   5.593   5.183  1.2199 -0.2233 -1.8036
 3802SOL     OW11983   0.549   9.335   2.757  0.1057 -0.3988 -0.5024
 3802SOL    HW111984   0.457   9.362   2.760  0.0610 -0.6227  0.5652
 3802SOL    HW211985   0.561   9.298   2.670 -0.3235  1.3208 -1.3443
 3803SOL     OW11986   2.593   9.541   0.066  0.2663  0.6771 -0.2252
 3803SOL    HW111987   2.554   9.626   0.045 -1.0198  0.2058  0.1877
 3803SOL    HW211988   2.525   9.477   0.045  0.9134 -0.1919  0.2753
 3804SOL     OW11989   2.394   4.547   8.782 -0.1156  0.0982  0.2604
 3804SOL    HW111990   2.343   4.572   8.705  0.2988 -0.6282 -0.2562
 3804SOL    HW211991   2.328   4.521   8.847 -0.4226 -0.4876 -0.2748
 3805SOL     OW11992   8.926   8.337   5.242  0.3285  0.4452 -0.7939
 3805SOL    HW111993   8.883   8.379   5.167  0.0904  1.8808  0.1129
 3805SOL    HW211994   8.918   8.243   5.225  1.3120  0.7103 -3.1483
 3806SOL     OW11995   8.676   4.237   5.415 -0.1539 -0.3816  0.4853
 3806SOL    HW111996   8.686   4.319   5.464 -0.4116 -0.2159  0.2613
 3806SOL    HW211997   8.753   4.185   5.439  0.7015  0.4404 -0.3489
 3807SOL     OW11998   8.971   0.946   6.633  0.1525 -0.3235  0.1291
 3807SOL    HW111999   8.880   0.920   6.641  0.6305 -1.7501  1.4789
 3807SOL    HW212000   9.020   0.864   6.635  1.4595  0.3695 -1.1805
 3808SOL     OW12001   5.605   8.661   3.749 -0.1025  0.0109 -0.3696
 3808SOL    HW112002   5.667   8.592   3.774 -0.4322 -0.0812  0.2180
 3808SOL    HW212003   5.605   8.659   3.653  0.3184 -0.4227 -0.3679
 3809SOL     OW12004   8.383   4.105   2.201 -0.5085 -0.2152  0.0282
 3809SOL    HW112005   8.370   4.015   2.172  1.3283 -0.8471  1.0042
 3809SOL    HW212006   8.369   4.102   2.296 -0.9151  0.6301  0.0027
 3810SOL     OW12007   4.590   3.180   0.960  0.0121  0.6075 -0.1972
 3810SOL    HW112008   4.610   3.213   1.048  1.8148 -0.0054 -0.3185
 3810SOL    HW212009   4.631   3.093   0.958 -2.3802 -0.5690 -0.7503
 3811SOL     OW12010   0.333   2.462   6.583 -0.4346 -0.5380 -0.1466
 3811SOL    HW112011   0.310   2.524   6.513  1.1957  0.8977  0.5019
 3811SOL    HW212012   0.257   2.461   6.640 -0.6608  0.5819 -0.3923
 3812SOL     OW12013   9.058   1.299   7.794 -0.2349  0.1004  0.3063
 3812SOL    HW112014   9.071   1.207   7.820  1.8140  0.2542  0.0417
 3812SOL    HW212015   9.126   1.315   7.728  0.2929  2.1425  1.2512
 3813SOL     OW12016   3.324   3.130   5.307 -0.1308 -0.0657 -0.2400
 3813SOL    HW112017   3.314   3.036   5.296  0.0521 -0.0993 -0.1259
 3813SOL    HW212018   3.381   3.140   5.384 -0.0426  0.1347 -0.3295
 3814SOL     OW12019   3.750   7.897   4.494 -0.5812  0.1390 -0.0890
 3814SOL    HW112020   3.755   7.941   4.578 -0.0107  0.8771 -0.4913
 3814SOL    HW212021   3.782   7.809   4.510  0.5707  0.6028  0.2586
 3815SOL     OW12022   9.548   1.146   5.785  0.0869 -0.5205  0.0540
 3815SOL    HW112023   9.527   1.207   5.856  0.3430 -0.5921  0.1927
 3815SOL    HW212024   9.573   1.202   5.712  0.2183 -0.4566  0.1477
 3816SOL     OW12025   9.545   4.953   9.534  0.2544 -0.1654  0.0869
 3816SOL    HW112026   9.513   5.029   9.485  0.8752 -0.5369 -0.9250
 3816SOL    HW212027   9.501   4.959   9.619 -0.5065  0.7419 -0.3506
 3817SOL     OW12028   2.165   5.643   4.669  0.5068 -0.3232 -0.0971
 3817SOL    HW112029   2.213   5.571   4.709  0.4620 -0.1022  0.3555
 3817SOL    HW212030   2.135   5.696   4.742 -2.2078 -1.5513 -0.1730
 3818SOL     OW12031   0.231   7.043   7.581 -0.2051  0.0184  0.1362
 3818SOL    HW112032   0.143   7.061   7.614  0.5424  0.5237  2.0098
 3818SOL    HW212033   0.281   7.123   7.598  0.7624 -0.4602 -0.3327
 3819SOL     OW12034   6.082   8.505   2.319  0.3072 -0.3804 -0.3030
 3819SOL    HW112035   6.011   8.503   2.384 -1.0754  0.1510 -1.7127
 3819SOL    HW212036   6.161   8.485   2.369 -0.5259  1.0629  1.7556
 3820SOL     OW12037   1.071   8.579   1.833  0.2748 -0.5103  0.0801
 3820SOL    HW112038   1.139   8.562   1.768 -2.1049 -1.2217 -2.4114
 3820SOL    HW212039   1.105   8.652   1.885  3.5648 -1.8322  0.0900
 3821SOL     OW12040   4.605   4.373   0.096  0.6871  0.1173 -0.3050
 3821SOL    HW112041   4.550   4.371   0.017 -0.7791 -1.1685  0.7037
 3821SOL    HW212042   4.689   4.338   0.067 -0.0527 -1.0259 -1.1564
 3822SOL     OW12043   0.166   0.496   9.444  0.4539 -0.1956  0.0529
 3822SOL    HW112044   0.121   0.462   9.366 -0.8591  3.7496 -1.1205
 3822SOL    HW212045   0.258   0.504   9.417  0.4249 -0.8971 -0.2859
 3823SOL     OW12046   3.022   0.956   0.367  0.7292 -0.2142  0.0616
 3823SOL    HW112047   2.978   1.023   0.419  2.0391  0.4791  0.3225
 3823SOL    HW212048   2.992   0.873   0.403 -3.0595  0.0572 -1.9886
 3824SOL     OW12049   9.897   3.372   4.590  0.4222  0.1135 -0.4170
 3824SOL    HW112050   9.824   3.378   4.652  1.0421 -0.6356  0.4057
 3824SOL    HW212051   9.885   3.447   4.532 -0.4743  0.5248  0.2725
 3825SOL     OW12052   1.417   9.583   3.123 -0.2773  0.0086  0.2287
 3825SOL    HW112053   1.326   9.560   3.138  0.0491 -2.1475 -0.7454
 3825SOL    HW212054   1.461   9.500   3.105  2.0098  0.9053  1.1828
 3826SOL     OW12055   0.536   1.876   0.832  0.1633 -0.3463  0.4307
 3826SOL    HW112056   0.556   1.894   0.923  0.7396  2.8785 -0.2296
 3826SOL    HW212057   0.565   1.954   0.785 -3.7617 -0.1000 -2.0100
 3827SOL     OW12058   0.702   8.099   1.613  0.2198 -0.4270  0.1505
 3827SOL    HW112059   0.667   8.080   1.700 -0.2291 -0.4053 -0.0261
 3827SOL    HW212060   0.640   8.161   1.575  1.0226  0.4585  0.2478
 3828SOL     OW12061   7.775   8.600   1.467 -0.3267 -0.4428 -0.4931
 3828SOL    HW112062   7.717   8.673   1.445 -0.5425 -0.6019 -0.4584
 3828SOL    HW212063   7.717   8.524   1.470 -0.1874 -0.5318 -0.0361
 3829SOL     OW12064   6.412   8.593   7.276  0.1998  0.4911 -0.0872
 3829SOL    HW112065   6.436   8.673   7.323  2.3986  0.7288 -1.4550
 3829SOL    HW212066   6.422   8.523   7.341 -2.5130  1.3024  1.3485
 3830SOL     OW12067   9.970   0.530   8.860 -1.0642  0.4286  0.7586
 3830SOL    HW112068   9.955   0.443   8.899  0.9681 -0.3524 -0.0624
 3830SOL    HW212069   9.991   0.512   8.768 -0.5453  1.7836  0.5869
 3831SOL     OW12070   7.884   9.782   9.773 -0.0019  0.0591  0.5129
 3831SOL    HW112071   7.927   9.806   9.691  0.4807 -1.0016  0.4362
 3831SOL    HW212072   7.792   9.803   9.759  0.0919 -0.0256 -0.2807
 3832SOL     OW12073   5.375   0.282   3.363  0.8405  0.4509 -0.3898
 3832SOL    HW112074   5.426   0.321   3.434  0.3982 -0.4847  0.4568
 3832SOL    HW212075   5.428   0.207   3.334  0.2392 -0.1904  0.1192
 3833SOL     OW12076   7.391   5.830   0.954 -0.3459  0.6500 -0.6547
 3833SOL    HW112077   7.389   5.894   1.026 -2.3144 -0.6535  0.5597
 3833SOL    HW212078   7.451   5.762   0.985 -3.4288 -1.4520  1.3725
 3834SOL     OW12079   0.911   4.758   5.625 -0.1083 -0.4354  0.0590
 3834SOL    HW112080   0.948   4.670   5.628 -0.7554 -0.6906  1.7168
 3834SOL    HW212081   0.825   4.750   5.667 -0.3850  0.8936 -0.1860
 3835SOL     OW12082   1.289   3.505   5.014 -0.3521  0.4514  0.0035
 3835SOL    HW112083   1.233   3.531   5.087 -1.1433 -0.5932 -0.2055
 3835SOL    HW212084   1.373   3.482   5.054 -0.2016  1.6099  0.3679
 3836SOL     OW12085   5.285   3.768   0.106  0.4028  0.0942 -0.5201
 3836SOL    HW112086   5.349   3.704   0.075 -1.2489 -2.2773  0.6828
 3836SOL    HW212087   5.287   3.759   0.202 -0.4957  1.2426 -0.3780
 3837SOL     OW12088   2.302   7.216   2.156  0.2139 -0.2305  0.8394
 3837SOL    HW112089   2.292   7.154   2.228  0.0931  0.3931  1.3651
 3837SOL    HW212090   2.373   7.274   2.184  0.9535 -0.6866 -0.0491
 3838SOL     OW12091   4.030   3.588   8.297  0.5710 -0.2507 -0.6850
 3838SOL    HW112092   3.973   3.597   8.373 -0.7831 -1.7605 -1.4419
 3838SOL    HW212093   4.118   3.586   8.333 -0.0049 -0.4204  0.7929
 3839SOL     OW12094   2.219   7.681   6.505 -0.0392 -0.7233  0.5706
 3839SOL    HW112095   2.264   7.745   6.559  0.8501 -0.6878 -0.1844
 3839SOL    HW212096   2.229   7.598   6.552  1.9698 -0.9630 -0.1773
 3840SOL     OW12097   1.525   8.342   7.544 -0.0728 -0.0138 -0.3132
 3840SOL    HW112098   1.612   8.382   7.548 -0.0313 -0.1357  2.6240
 3840SOL    HW212099   1.465   8.417   7.539  0.1525  0.0806 -2.0461
 3841SOL     OW12100   3.066   8.275   5.908 -0.3039 -0.2575  0.1528
 3841SOL    HW112101   3.093   8.367   5.913 -1.0157  0.0254 -0.9443
 3841SOL    HW212102   3.129   8.229   5.963  1.8334  0.5156 -1.4902
 3842SOL     OW12103   2.968   5.459   0.568  0.3439  0.3323  0.3121
 3842SOL    HW112104   3.057   5.493   0.571  1.1665 -1.6982  0.3913
 3842SOL    HW212105   2.931   5.481   0.653  0.4181  1.9743 -0.0426
 3843SOL     OW12106   8.162   6.277   2.655  0.0091  0.7503 -0.3372
 3843SOL    HW112107   8.067   6.279   2.663 -0.2190 -0.6197 -2.0082
 3843SOL    HW212108   8.193   6.245   2.740 -1.1491 -0.2393 -0.2610
 3844SOL     OW12109   4.682   3.675   0.148 -0.5038  0.1837  1.1154
 3844SOL    HW112110   4.678   3.584   0.120 -0.6744  0.3219  0.6873
 3844SOL    HW212111   4.773   3.689   0.172  0.7562  1.2075 -3.3187
 3845SOL     OW12112   0.982   8.560   6.940 -0.3919  0.2815 -0.2337
 3845SOL    HW112113   0.939   8.478   6.916 -1.5264  0.6165  0.5798
 3845SOL    HW212114   1.021   8.542   7.026  1.0482  0.0128 -0.9132
 3846SOL     OW12115   2.063   1.088   4.277  0.2625  0.1876  0.6329
 3846SOL    HW112116   2.015   1.082   4.360  0.1337  0.4468  0.5769
 3846SOL    HW212117   2.055   1.180   4.251 -2.5049 -0.4671 -1.3353
 3847SOL     OW12118   4.073   0.770   7.848 -0.2169 -0.0440  1.5100
 3847SOL    HW112119   4.079   0.696   7.909 -1.4696  0.7356  2.6502
 3847SOL    HW212120   3.988   0.758   7.805  0.2293 -0.0552  0.6192
 3848SOL     OW12121   4.885   7.665   1.728  0.1585 -0.1797  0.2696
 3848SOL    HW112122   4.911   7.756   1.747 -1.2205  0.0556  1.2555
 3848SOL    HW212123   4.895   7.620   1.812  0.4984 -0.8556 -0.1308
 3849SOL     OW12124   9.476   3.292   9.210 -0.5212  0.2335 -0.2777
 3849SOL    HW112125   9.506   3.367   9.158 -2.0160  0.7166 -0.4864
 3849SOL    HW212126   9.507   3.310   9.298  0.7747  0.1343 -0.6925
 3850SOL     OW12127   3.253   7.276   3.000 -0.2666  0.0575  0.2551
 3850SOL    HW112128   3.183   7.334   3.030 -0.3370  0.9982 -1.5704
 3850SOL    HW212129   3.315   7.335   2.956 -0.1104 -1.1768 -1.2667
 3851SOL     OW12130   7.823   0.675   8.468  0.6255  0.2552 -0.6535
 3851SOL    HW112131   7.749   0.645   8.416  0.8245 -0.9930 -0.2576
 3851SOL    HW212132   7.900   0.642   8.422  0.8935  0.7163 -0.5440
 3852SOL     OW12133   3.908   4.232   5.312 -0.7119 -0.3690  0.0359
 3852SOL    HW112134   3.920   4.278   5.395  0.2388 -3.2323  1.6223
 3852SOL    HW212135   3.979   4.263   5.256 -0.1414  0.1400  1.0223
 3853SOL     OW12136   6.438   6.506   1.460  0.2872  0.2350  0.1033
 3853SOL    HW112137   6.483   6.475   1.538  1.9210  1.2564 -0.3842
 3853SOL    HW212138   6.501   6.492   1.389  0.5957  3.2694 -0.3477
 3854SOL     OW12139   0.872   7.340   7.322  0.3450  0.1721  0.4351
 3854SOL    HW112140   0.797   7.280   7.324 -0.2564  0.8313 -1.0461
 3854SOL    HW212141   0.833   7.427   7.313  1.2208  0.7943  2.1209
 3855SOL     OW12142   3.687   3.658   0.552  0.1652 -0.1317 -0.4399
 3855SOL    HW112143   3.606   3.649   0.602  0.6157 -0.1685  0.2964
 3855SOL    HW212144   3.754   3.615   0.605  1.0537  1.5901 -0.0891
 3856SOL     OW12145   6.311   5.633   9.661 -0.1236 -0.1922  0.0270
 3856SOL    HW112146   6.380   5.585   9.707 -0.2904 -0.3564  0.1069
 3856SOL    HW212147   6.354   5.669   9.583 -0.0726 -0.7320 -0.1962
 3857SOL     OW12148   9.591   9.114   0.480  0.1100 -0.2308 -0.0052
 3857SOL    HW112149   9.588   9.205   0.449  2.6093  0.4144  1.3667
 3857SOL    HW212150   9.606   9.062   0.401 -0.6727  0.6095 -0.7225
 3858SOL     OW12151   2.828   5.360   8.316  0.0957 -0.1812  0.2271
 3858SOL    HW112152   2.907   5.356   8.261 -1.0115 -0.1280 -1.4171
 3858SOL    HW212153   2.820   5.272   8.353  1.1917 -0.0513  0.8167
 3859SOL     OW12154   2.519   9.553   1.071 -0.4067 -0.9533  0.2767
 3859SOL    HW112155   2.507   9.623   1.135 -0.6046  0.1660 -0.9310
 3859SOL    HW212156   2.433   9.511   1.066 -0.8146 -0.0762 -0.3237
 3860SOL     OW12157   7.519   4.543   2.488  0.6453  0.1519  0.3218
 3860SOL    HW112158   7.496   4.468   2.433  0.6474 -1.1960  2.0567
 3860SOL    HW212159   7.442   4.558   2.542  1.6463 -0.5899  2.0624
 3861SOL     OW12160   1.109   3.280   5.982 -0.5302  0.4074 -0.5000
 3861SOL    HW112161   1.102   3.355   5.923 -1.4249  0.2398 -0.6090
 3861SOL    HW212162   1.076   3.313   6.066 -0.5223  0.2536 -0.4373
 3862SOL     OW12163   4.721   5.800   9.241 -0.3478 -0.5073 -0.2227
 3862SOL    HW112164   4.673   5.754   9.310 -0.9051  0.7275  0.2445
 3862SOL    HW212165   4.802   5.750   9.230 -0.2884 -0.7783  1.2783
 3863SOL     OW12166   5.042   2.030   1.506 -0.1504  0.5923  0.1641
 3863SOL    HW112167   5.131   2.057   1.528 -0.3221 -0.1663  1.9855
 3863SOL    HW212168   4.988   2.105   1.532 -0.0869  0.9274 -0.6455
 3864SOL     OW12169   8.702   3.138   4.205  0.6178  0.3203 -0.4110
 3864SOL    HW112170   8.619   3.185   4.198  1.4192  1.9473  0.5219
 3864SOL    HW212171   8.680   3.048   4.181 -1.4491  0.6755 -0.0684
 3865SOL     OW12172   3.763   2.026   5.015 -0.2623  0.7115 -0.5273
 3865SOL    HW112173   3.732   2.116   5.003  0.2629  0.8974 -0.4806
 3865SOL    HW212174   3.854   2.027   4.986  0.1430  0.4858  0.6857
 3866SOL     OW12175   7.757   4.169   0.292  0.2703  0.1168  0.2033
 3866SOL    HW112176   7.805   4.156   0.374  1.2604  1.4693 -0.1390
 3866SOL    HW212177   7.666   4.182   0.320  0.5801  0.4874  1.0818
 3867SOL     OW12178   1.708   6.314   7.867  0.2476 -0.0696  0.3026
 3867SOL    HW112179   1.628   6.266   7.888  0.5302  0.0107  1.6420
 3867SOL    HW212180   1.778   6.263   7.906  0.9326 -0.3615 -1.2081
 3868SOL     OW12181   1.180   9.212   3.779  0.5118 -0.2759 -0.2950
 3868SOL    HW112182   1.249   9.275   3.757  1.2524 -0.7250  0.6681
 3868SOL    HW212183   1.166   9.163   3.697  1.3097 -0.1442 -0.5243
 3869SOL     OW12184   8.168   5.959   0.606  0.3378  0.0079 -0.3117
 3869SOL    HW112185   8.194   6.051   0.612 -0.9189  0.2755  2.1064
 3869SOL    HW212186   8.210   5.928   0.525  2.0040  2.2890 -0.4360
 3870SOL     OW12187   9.008   1.113   6.420  0.5305  0.5091 -0.4397
 3870SOL    HW112188   9.033   1.033   6.466 -0.0155  0.0973 -0.8402
 3870SOL    HW212189   8.922   1.135   6.456  0.3901  0.5461 -0.7918
 3871SOL     OW12190   2.770   3.113   8.054 -0.0574 -0.4790  0.0625
 3871SOL    HW112191   2.804   3.194   8.014  1.5029 -1.6938 -1.2231
 3871SOL    HW212192   2.677   3.112   8.031  0.4918 -0.4153 -2.4524
 3872SOL     OW12193   9.168   3.042   1.930  0.5960 -0.0965  0.2974
 3872SOL    HW112194   9.238   2.985   1.963  0.5253  0.6715  1.8558
 3872SOL    HW212195   9.192   3.058   1.839  0.9896 -2.0292  0.0031
 3873SOL     OW12196   0.570   1.414   6.720  0.5081 -0.1368  0.6288
 3873SOL    HW112197   0.540   1.461   6.643  0.1825 -0.5598  0.4908
 3873SOL    HW212198   0.524   1.330   6.716  1.4455 -0.6562  0.6159
 3874SOL     OW12199   8.177   4.416   2.068 -0.1630 -0.3581 -0.1325
 3874SOL    HW112200   8.092   4.458   2.078 -0.0410  0.9884 -3.4694
 3874SOL    HW212201   8.157   4.330   2.033 -0.1872 -1.1945  1.8099
 3875SOL     OW12202   0.133   7.749   1.594  0.0410  0.1105 -0.2992
 3875SOL    HW112203   0.084   7.757   1.676 -0.9628 -3.1267 -0.4168
 3875SOL    HW212204   0.216   7.707   1.619  0.5009  0.7396 -0.7377
 3876SOL     OW12205   5.187   7.360   8.786 -0.1704  0.0122  0.4022
 3876SOL    HW112206   5.252   7.290   8.789  0.0443  0.2200  0.6651
 3876SOL    HW212207   5.204   7.412   8.864 -0.2734  0.4060  0.1658
 3877SOL     OW12208   0.608   2.169   4.634 -0.7170  0.2095  0.4619
 3877SOL    HW112209   0.574   2.219   4.709  0.2664  0.4891  0.7289
 3877SOL    HW212210   0.689   2.213   4.610 -0.1191 -0.9301  0.3448
 3878SOL     OW12211   9.883   6.387   4.784  0.2703 -1.0636 -0.8850
 3878SOL    HW112212   9.798   6.430   4.771  0.3359 -0.3275  0.8217
 3878SOL    HW212213   9.864   6.316   4.845  1.0631 -0.0341  0.6353
 3879SOL     OW12214   5.493   7.768   5.532 -0.5637  0.0704 -0.2290
 3879SOL    HW112215   5.459   7.781   5.621 -0.1893 -1.0301  0.0901
 3879SOL    HW212216   5.491   7.855   5.493 -1.2230  0.4855  0.6819
 3880SOL     OW12217   3.852   9.893   5.685  0.0591 -0.9707 -0.4062
 3880SOL    HW112218   3.915   9.936   5.627 -0.4851 -2.1604 -1.9763
 3880SOL    HW212219   3.767   9.917   5.649 -0.2673 -2.6356 -0.8460
 3881SOL     OW12220   2.198   8.156   8.630  0.0897 -0.1982 -0.0633
 3881SOL    HW112221   2.152   8.106   8.697  0.3250  0.0470  0.2837
 3881SOL    HW212222   2.140   8.230   8.611 -0.0574 -0.3639 -0.2584
 3882SOL     OW12223   4.764   1.645   3.140 -0.4759 -0.3296 -0.1871
 3882SOL    HW112224   4.796   1.670   3.226 -0.3266 -1.2494  0.0370
 3882SOL    HW212225   4.669   1.646   3.148 -0.4950  0.7575 -0.3695
 3883SOL     OW12226   3.024   0.672   8.443  0.2532  0.7033  0.2534
 3883SOL    HW112227   3.096   0.730   8.465  1.9268 -1.2387  0.1450
 3883SOL    HW212228   3.065   0.598   8.399 -1.6524 -1.0602  1.2788
 3884SOL     OW12229   6.358   6.134   7.864  0.5986  0.1675  0.1559
 3884SOL    HW112230   6.308   6.058   7.834  1.0328 -0.2464  0.4537
 3884SOL    HW212231   6.295   6.187   7.912 -0.1938  1.0102 -1.7143
 3885SOL     OW12232   6.667   0.020   5.130 -0.4063  0.1396  0.4409
 3885SOL    HW112233   6.636  -0.070   5.144  1.3857 -0.5547  0.1948
 3885SOL    HW212234   6.609   0.055   5.062 -0.0095 -1.4626 -0.7847
 3886SOL     OW12235   0.303   0.585   7.817  0.4474 -0.1586 -0.0080
 3886SOL    HW112236   0.368   0.577   7.747 -0.1881 -0.5725 -0.5676
 3886SOL    HW212237   0.257   0.501   7.818  0.2261 -0.0378  0.6890
 3887SOL     OW12238   2.577   7.692   7.100 -0.4749  0.2716 -0.2914
 3887SOL    HW112239   2.598   7.718   7.010 -2.1364 -1.7255 -1.3474
 3887SOL    HW212240   2.517   7.761   7.131  1.3315  1.8236 -0.0556
 3888SOL     OW12241   3.166   8.669   7.717 -0.1055  0.5417 -0.3247
 3888SOL    HW112242   3.146   8.648   7.626 -0.9514  0.7119 -0.1907
 3888SOL    HW212243   3.255   8.637   7.730 -0.5242 -0.9103 -0.7692
 3889SOL     OW12244   3.674   4.934   4.689  0.3818 -0.1697 -0.0618
 3889SOL    HW112245   3.662   5.020   4.729  0.5921 -0.4095  0.5297
 3889SOL    HW212246   3.711   4.880   4.759  1.4780 -0.4001 -0.7994
 3890SOL     OW12247   6.752   2.149   1.816 -0.4185  0.0341  0.0153
 3890SOL    HW112248   6.717   2.088   1.752  0.0101 -0.7683  0.5201
 3890SOL    HW212249   6.677   2.201   1.845 -0.9594 -0.8199  0.1839
 3891SOL     OW12250   3.184   5.809   4.892 -0.2331 -0.2153 -0.2103
 3891SOL    HW112251   3.246   5.736   4.892 -0.9065 -0.8627  1.8000
 3891SOL    HW212252   3.235   5.884   4.921  0.3506  0.0555 -1.8240
 3892SOL     OW12253   8.303   7.269   7.773 -0.2106  0.1297 -0.2189
 3892SOL    HW112254   8.273   7.357   7.746 -0.4843  0.2429  0.4282
 3892SOL    HW212255   8.224   7.215   7.766 -0.4080  0.2641  0.7758
 3893SOL     OW12256   0.676   1.274   8.084 -0.9692 -0.0762 -0.0869
 3893SOL    HW112257   0.676   1.331   8.008  0.9872  0.9053  0.5757
 3893SOL    HW212258   0.598   1.220   8.074 -1.0227  0.3546 -2.5123
 3894SOL     OW12259   6.315   0.889   6.794 -0.2566  0.0858  0.1579
 3894SOL    HW112260   6.321   0.825   6.723  0.5241  0.5987 -0.2451
 3894SOL    HW212261   6.246   0.949   6.766  1.0204  1.1267 -0.8734
 3895SOL     OW12262   9.398   5.568   8.898  0.6564  0.0290  0.5107
 3895SOL    HW112263   9.453   5.610   8.833 -0.3325  0.5015 -0.0355
 3895SOL    HW212264   9.395   5.630   8.972  1.9040 -0.5757  1.0947
 3896SOL     OW12265   2.310   5.807   4.418  0.0343 -0.0564  0.5162
 3896SOL    HW112266   2.357   5.787   4.499 -0.5477  0.5961  1.0360
 3896SOL    HW212267   2.252   5.732   4.404 -1.2278  0.6245  1.7601
 3897SOL     OW12268   3.998   1.353   7.493 -0.2215  0.0028  0.6998
 3897SOL    HW112269   3.988   1.413   7.419 -0.0785 -1.1126 -0.2482
 3897SOL    HW212270   4.092   1.344   7.504 -0.1884 -1.9320 -0.7722
 3898SOL     OW12271   9.530   8.390   3.315 -0.1486  0.0289  0.4051
 3898SOL    HW112272   9.552   8.333   3.388  1.0408  0.6535  0.5571
 3898SOL    HW212273   9.469   8.454   3.351  0.0958  0.0717  0.7471
 3899SOL     OW12274   7.326   5.216   6.765 -0.6733  0.2609  0.0673
 3899SOL    HW112275   7.413   5.193   6.799 -0.8892 -0.4003  0.1724
 3899SOL    HW212276   7.272   5.227   6.843 -0.2864  2.4261  0.1086
 3900SOL     OW12277   1.095   6.661   6.425 -0.6885  0.0115 -0.1379
 3900SOL    HW112278   1.095   6.573   6.464 -0.9454  1.0785  2.4369
 3900SOL    HW212279   1.021   6.660   6.364 -2.5320 -0.7249  1.9761
 3901SOL     OW12280   1.986   4.398   0.340 -0.0199  0.4863 -0.1170
 3901SOL    HW112281   1.910   4.451   0.315 -1.0601 -0.6917  0.4365
 3901SOL    HW212282   1.981   4.394   0.435  0.6589  0.2673 -0.0915
 3902SOL     OW12283   4.955   3.124   1.704 -0.6507  0.7238 -0.1391
 3902SOL    HW112284   4.915   3.182   1.769 -2.7715  1.6469 -2.1272
 3902SOL    HW212285   4.899   3.046   1.704  0.9819 -0.5214  1.0342
 3903SOL     OW12286   7.140   9.559   5.926 -0.1706 -0.2565 -0.4092
 3903SOL    HW112287   7.053   9.528   5.900 -0.5456  1.3626 -1.2141
 3903SOL    HW212288   7.160   9.628   5.863  1.9693 -0.9788 -0.5830
 3904SOL     OW12289   5.804   3.889   6.999  0.2682  0.5737 -0.0847
 3904SOL    HW112290   5.813   3.823   6.930  0.1411 -0.7894  1.1581
 3904SOL    HW212291   5.876   3.951   6.983  1.1345 -0.5320 -0.5759
 3905SOL     OW12292   5.772   4.962   5.262  0.1754 -0.1527  0.7700
 3905SOL    HW112293   5.746   4.930   5.176  0.7110  1.4680 -0.0288
 3905SOL    HW212294   5.689   4.976   5.308 -0.1032 -1.3313  0.6617
 3906SOL     OW12295   6.263   8.450   2.502 -0.4464 -0.2740  0.0558
 3906SOL    HW112296   6.356   8.457   2.483 -0.8356  2.4378 -1.2779
 3906SOL    HW212297   6.258   8.461   2.597  0.5273  0.8867 -0.0003
 3907SOL     OW12298   1.166   8.930   5.094  0.3641  0.1612  0.1329
 3907SOL    HW112299   1.228   8.857   5.096 -0.7086 -0.7389  0.8116
 3907SOL    HW212300   1.157   8.957   5.185  0.3964  0.8577 -0.0607
 3908SOL     OW12301   6.423   2.739   7.153 -1.0139 -0.7009 -0.4539
 3908SOL    HW112302   6.385   2.706   7.234 -1.6518  0.4285 -0.2839
 3908SOL    HW212303   6.511   2.768   7.178 -1.6777  0.8691  0.1375
 3909SOL     OW12304   6.669   8.502   5.409 -0.1543  0.0520  0.6673
 3909SOL    HW112305   6.615   8.492   5.487  1.9540  0.5180  2.3049
 3909SOL    HW212306   6.759   8.496   5.442  0.8880  2.3696 -1.4016
 3910SOL     OW12307   8.939   9.690   3.078  0.1932 -0.2426 -0.2886
 3910SOL    HW112308   8.847   9.682   3.105  0.2952  0.3637  0.2787
 3910SOL    HW212309   8.935   9.716   2.986 -0.2471  1.2398  0.1195
 3911SOL     OW12310   7.412   1.330   8.398 -0.4855 -0.1132  0.4558
 3911SOL    HW112311   7.493   1.279   8.411 -0.4733 -0.4180 -0.6806
 3911SOL    HW212312   7.405   1.339   8.303 -2.3055 -0.9459  0.4725
 3912SOL     OW12313   6.784   2.472   5.736 -0.1303  0.6918  0.4108
 3912SOL    HW112314   6.734   2.458   5.656 -0.0573  1.0236  0.3032
 3912SOL    HW212315   6.769   2.394   5.788 -0.9100  0.8656  0.4631
 3913SOL     OW12316   5.581   4.899   3.285 -0.4281 -0.2840 -0.2741
 3913SOL    HW112317   5.622   4.946   3.358  0.5654 -0.4460 -0.7037
 3913SOL    HW212318   5.655   4.861   3.237 -1.0499 -0.0477 -1.4533
 3914SOL     OW12319   6.075   4.263   4.209 -0.4674 -0.0982  0.0541
 3914SOL    HW112320   6.066   4.279   4.303  0.6100 -0.6284  0.2687
 3914SOL    HW212321   6.169   4.248   4.196 -0.6716 -0.5732 -1.0246
 3915SOL     OW12322   0.685   0.881   1.834  0.1884  0.0198  0.0406
 3915SOL    HW112323   0.674   0.974   1.813  2.2689  0.0642 -1.1337
 3915SOL    HW212324   0.620   0.836   1.780 -0.7762  0.7604  0.5543
 3916SOL     OW12325   2.826   1.541   1.459 -0.7725  0.1235  0.2674
 3916SOL    HW112326   2.870   1.599   1.398  1.9756 -1.3552  0.6732
 3916SOL    HW212327   2.733   1.563   1.451 -0.0246  3.5359 -0.5542
 3917SOL     OW12328   4.471   3.047   5.410 -0.7190 -0.0136 -0.1825
 3917SOL    HW112329   4.513   3.115   5.357 -0.1778  0.2880  0.6127
 3917SOL    HW212330   4.488   3.073   5.500  2.0218 -2.6503  0.2369
 3918SOL     OW12331   6.265   7.552   1.055  0.2858 -0.2573 -0.0466
 3918SOL    HW112332   6.217   7.502   0.989  1.2619  0.7902 -1.6133
 3918SOL    HW212333   6.300   7.485   1.115  1.4367 -1.4986 -1.9863
 3919SOL     OW12334   4.691   6.067   8.710  0.1358  0.0115  0.3055
 3919SOL    HW112335   4.651   6.043   8.626  0.3577  1.1449 -0.1371
 3919SOL    HW212336   4.786   6.060   8.694  0.1989  0.9284  0.2370
 3920SOL     OW12337   9.488   2.778   9.367  0.7742 -0.1783 -0.3482
 3920SOL    HW112338   9.507   2.866   9.401  0.7027  0.0967 -1.0001
 3920SOL    HW212339   9.446   2.794   9.283 -2.9060 -0.7379  1.2300
 3921SOL     OW12340   3.076   1.089   8.134 -0.0918 -1.2931 -0.0841
 3921SOL    HW112341   3.010   1.036   8.090 -1.4683  0.7469 -0.5762
 3921SOL    HW212342   3.103   1.036   8.209 -2.4962 -2.0758  0.2926
 3922SOL     OW12343   6.936   2.135   5.001  0.5789 -0.1633  0.1641
 3922SOL    HW112344   6.874   2.198   4.964  2.8071  1.8606 -0.4217
 3922SOL    HW212345   6.910   2.051   4.966 -2.2626  0.4507  0.5830
 3923SOL     OW12346   3.320   6.286   9.591  0.0539  0.1745  0.1339
 3923SOL    HW112347   3.302   6.367   9.542  1.0905  1.3256  1.5928
 3923SOL    HW212348   3.405   6.256   9.558  0.0395  0.1062  0.1580
 3924SOL     OW12349   2.620   7.245   9.569 -0.1089  0.0237 -0.1991
 3924SOL    HW112350   2.634   7.177   9.502 -0.9243 -1.4276  1.0402
 3924SOL    HW212351   2.691   7.307   9.554  0.8821 -1.2692 -1.1811
 3925SOL     OW12352   2.833   4.055   1.654 -0.0380  0.0467 -0.0585
 3925SOL    HW112353   2.821   4.116   1.581 -0.3526  0.0825  0.0201
 3925SOL    HW212354   2.890   3.986   1.620 -0.1979  0.0563 -0.3426
 3926SOL     OW12355   2.386   1.645   5.297 -0.6017  0.4986 -0.3777
 3926SOL    HW112356   2.455   1.619   5.358 -0.1649 -0.7208 -1.3691
 3926SOL    HW212357   2.329   1.568   5.289 -2.6932  1.7657  1.1598
 3927SOL     OW12358   1.469   0.623   5.249 -0.4741  0.4944 -0.6300
 3927SOL    HW112359   1.545   0.668   5.213  0.6255  0.2182  1.2536
 3927SOL    HW212360   1.457   0.660   5.336 -0.0603 -2.1310  0.6555
 3928SOL     OW12361   4.040   9.310   4.531  0.2213 -0.1810 -0.2491
 3928SOL    HW112362   4.066   9.241   4.469  3.9704 -1.6803  2.5521
 3928SOL    HW212363   4.080   9.389   4.496 -2.0995  0.2155 -2.2615
 3929SOL     OW12364   8.530   4.571   5.953  0.3532  0.0841 -0.6566
 3929SOL    HW112365   8.436   4.575   5.968  0.6063  1.2064  0.9331
 3929SOL    HW212366   8.548   4.638   5.888  0.0795 -0.0211 -0.8415
 3930SOL     OW12367   9.800   0.102   1.247 -0.5097 -0.1915 -0.3557
 3930SOL    HW112368   9.863   0.118   1.318  0.2655 -0.4098 -0.9799
 3930SOL    HW212369   9.722   0.152   1.273 -0.7258 -1.3088  1.2911
 3931SOL     OW12370   7.503   2.119   9.958 -0.0742 -0.0847 -0.3197
 3931SOL    HW112371   7.541   2.104   9.872 -0.7053 -0.9908 -0.4571
 3931SOL    HW212372   7.565   2.079  10.020  1.9351  3.1532 -0.0278
 3932SOL     OW12373   1.942   9.543   9.529  0.1072  0.7022  0.1101
 3932SOL    HW112374   1.896   9.460   9.543  1.1409 -0.6751 -3.4715
 3932SOL    HW212375   1.873   9.606   9.511 -0.6522  0.4942  2.0775
 3933SOL     OW12376   0.358   9.087   5.148  0.5078 -0.1243  0.0977
 3933SOL    HW112377   0.359   9.177   5.117 -0.8963 -0.0547  0.2196
 3933SOL    HW212378   0.401   9.037   5.078 -1.1424  0.2531 -1.2392
 3934SOL     OW12379   6.736   4.798   8.919 -0.7999 -0.8583  0.6016
 3934SOL    HW112380   6.728   4.773   9.011 -0.2487 -2.3108  0.2856
 3934SOL    HW212381   6.770   4.719   8.876 -2.4412 -0.6930 -1.0976
 3935SOL     OW12382   6.100   7.482   3.593  0.1972  0.1333  0.4232
 3935SOL    HW112383   6.157   7.441   3.658  0.2225 -0.2831  0.1425
 3935SOL    HW212384   6.049   7.546   3.643  0.9533  0.5667  0.6615
 3936SOL     OW12385   5.247   6.971   0.882 -0.6994 -0.1179 -0.2442
 3936SOL    HW112386   5.234   7.064   0.864  1.4680  0.4412  0.7598
 3936SOL    HW212387   5.286   6.936   0.802  0.2100  0.2766  0.0123
 3937SOL     OW12388   9.917   1.599   4.793 -0.0164 -0.5459  0.1319
 3937SOL    HW112389   9.880   1.554   4.717 -0.1684 -0.1431 -0.0359
 3937SOL    HW212390  10.009   1.612   4.770  0.3119 -1.8027  0.6695
 3938SOL     OW12391   8.646   4.210   7.064 -0.3086  0.5333  0.0711
 3938SOL    HW112392   8.732   4.169   7.063 -1.0763 -1.2155  1.1185
 3938SOL    HW212393   8.663   4.301   7.088  1.1557 -0.1182  1.7422
 3939SOL     OW12394   1.879   7.178   5.513  0.3428 -0.4709 -0.0332
 3939SOL    HW112395   1.824   7.256   5.526  1.5655  0.2445  0.9776
 3939SOL    HW212396   1.878   7.165   5.418  0.9665  1.4440 -0.3594
 3940SOL     OW12397   3.518   8.069   7.855 -0.5190  0.1719  0.3204
 3940SOL    HW112398   3.581   8.054   7.925 -0.1167 -1.4991 -0.3371
 3940SOL    HW212399   3.433   8.055   7.896 -0.3230 -0.0741  0.6532
 3941SOL     OW12400   8.882   1.833   1.677 -0.2297 -0.2513  0.3118
 3941SOL    HW112401   8.953   1.813   1.616 -0.2919 -0.4878  0.3132
 3941SOL    HW212402   8.911   1.796   1.760 -0.7494 -1.1753  0.1011
 3942SOL     OW12403   2.090   3.690   0.152 -0.1418  0.3461 -0.1818
 3942SOL    HW112404   2.040   3.616   0.116 -1.4628  0.8368  0.5438
 3942SOL    HW212405   2.133   3.729   0.076 -1.5649  0.3993 -1.0087
 3943SOL     OW12406   6.206   1.214   6.017 -0.2284  0.0184  0.5639
 3943SOL    HW112407   6.171   1.179   6.099  0.8238 -0.9131  0.6437
 3943SOL    HW212408   6.154   1.291   5.999 -0.5854  0.1386  2.0345
 3944SOL     OW12409   9.885   9.401   6.186 -0.4431  0.5177  0.0892
 3944SOL    HW112410   9.844   9.317   6.208  0.4249  0.0297 -0.0585
 3944SOL    HW212411   9.867   9.412   6.092  1.3960 -0.7136 -0.4886
 3945SOL     OW12412   2.952   8.729   7.115  0.2701 -0.6510  0.1567
 3945SOL    HW112413   2.902   8.709   7.036  0.4537 -0.9628  0.1181
 3945SOL    HW212414   3.041   8.703   7.095  0.7021  1.0124 -0.1995
 3946SOL     OW12415   5.991   2.770   9.777 -0.1981 -0.3092  0.4153
 3946SOL    HW112416   5.897   2.785   9.786 -0.4199 -1.8326  0.9547
 3946SOL    HW212417   5.998   2.701   9.711  0.4566 -0.9056  1.0823
 3947SOL     OW12418   4.304   7.392   0.892 -0.5877 -0.3644 -0.0256
 3947SOL    HW112419   4.361   7.349   0.956 -0.1654  0.1561 -0.0437
 3947SOL    HW212420   4.289   7.479   0.928 -0.6197 -0.1818 -0.4725
 3948SOL     OW12421   0.289   0.920   6.369  0.6705  0.0880 -0.2207
 3948SOL    HW112422   0.231   0.851   6.337  1.7387 -0.0603 -1.9960
 3948SOL    HW212423   0.246   0.953   6.449 -1.3354 -0.6451 -0.9271
 3949SOL     OW12424   9.292   5.070   5.139 -0.1456  0.3047  0.2597
 3949SOL    HW112425   9.366   5.130   5.136 -0.5007  0.7406  0.0884
 3949SOL    HW212426   9.306   5.012   5.064 -0.4535  0.9643 -0.3195
 3950SOL     OW12427   5.840   9.637   0.126 -0.1630 -0.4052 -0.2332
 3950SOL    HW112428   5.890   9.668   0.050  0.9157  0.3381  0.7360
 3950SOL    HW212429   5.832   9.714   0.182 -1.2377 -0.8618  0.2580
 3951SOL     OW12430   5.683   5.088   4.107 -0.1344  0.6301  0.2724
 3951SOL    HW112431   5.655   5.176   4.132 -0.6841  0.5061  0.0957
 3951SOL    HW212432   5.606   5.049   4.067 -0.1514 -0.2425  1.1340
 3952SOL     OW12433   3.495   6.522   7.642 -0.0352 -0.2051  0.7370
 3952SOL    HW112434   3.557   6.461   7.681 -1.3573 -0.2839  2.8831
 3952SOL    HW212435   3.410   6.498   7.679 -1.1327  0.8349 -0.9496
 3953SOL     OW12436   8.435   3.012   7.833  0.5879  0.3601 -0.2837
 3953SOL    HW112437   8.434   3.058   7.917 -0.2067 -2.1628  1.2115
 3953SOL    HW212438   8.368   2.945   7.843  1.2061 -0.6702 -2.5795
 3954SOL     OW12439   4.287   1.398   2.721 -0.0177  0.4539 -0.4742
 3954SOL    HW112440   4.200   1.393   2.682  0.2221 -0.7775 -0.8942
 3954SOL    HW212441   4.272   1.400   2.815 -0.4772 -1.3383 -0.4779
 3955SOL     OW12442   0.000   1.031   9.078  0.0726 -0.2270 -0.5366
 3955SOL    HW112443   0.087   0.991   9.076  0.6753  0.9562  0.5748
 3955SOL    HW212444  -0.049   0.979   9.142  0.3126 -0.2197 -0.3464
 3956SOL     OW12445   1.188   5.199   2.842 -0.2995 -0.1822 -0.2728
 3956SOL    HW112446   1.246   5.275   2.843 -0.8749  0.2654  0.4433
 3956SOL    HW212447   1.118   5.221   2.905 -1.0097 -0.8833 -0.7918
 3957SOL     OW12448   2.579   2.716   1.274  0.3314 -0.0528  0.1170
 3957SOL    HW112449   2.644   2.712   1.203  0.3361  0.5518  0.0817
 3957SOL    HW212450   2.498   2.684   1.234  0.7087 -1.3333  0.3048
 3958SOL     OW12451   1.916   4.899   8.527  0.1251 -0.3795 -0.4831
 3958SOL    HW112452   2.011   4.911   8.530  0.3537 -1.4804 -2.0065
 3958SOL    HW212453   1.900   4.821   8.581  0.0825 -0.1545 -0.1722
 3959SOL     OW12454   2.683   8.729   2.589 -0.0804  0.1605  0.1152
 3959SOL    HW112455   2.625   8.805   2.594  0.8362  0.8811  0.0574
 3959SOL    HW212456   2.729   8.729   2.673  1.2706  0.7880 -0.5995
 3960SOL     OW12457   1.932   6.071   6.671  0.3108  0.2908 -0.1908
 3960SOL    HW112458   1.924   5.982   6.636 -1.0272  0.2787  0.0928
 3960SOL    HW212459   2.019   6.074   6.710 -0.3110 -1.5454  1.5159
 3961SOL     OW12460   7.718   4.557   1.371 -0.1409 -0.3387  0.0424
 3961SOL    HW112461   7.701   4.575   1.463  0.2456 -0.6499  0.1780
 3961SOL    HW212462   7.746   4.465   1.369  2.1122  0.2872 -0.0710
 3962SOL     OW12463   0.324   3.635   1.062  0.5330 -0.5638  0.0389
 3962SOL    HW112464   0.389   3.698   1.093 -1.1732  1.6775 -0.7220
 3962SOL    HW212465   0.352   3.612   0.974  0.2421  0.4962 -0.3372
 3963SOL     OW12466   0.538   7.638   6.615 -0.2112 -0.7025 -0.2523
 3963SOL    HW112467   0.540   7.569   6.681 -0.4694  0.9479  1.5831
 3963SOL    HW212468   0.450   7.631   6.576 -0.2900 -1.2923  0.0221
 3964SOL     OW12469   5.191   3.860   3.031 -0.0231  0.4427 -0.5503
 3964SOL    HW112470   5.270   3.813   3.060  1.1146  1.2513 -2.1585
 3964SOL    HW212471   5.186   3.935   3.090 -0.7087 -0.5945  0.7622
 3965SOL     OW12472   3.191   2.948   5.911 -0.0775  0.3960 -0.1437
 3965SOL    HW112473   3.111   2.903   5.938  0.5421 -0.7514 -0.1559
 3965SOL    HW212474   3.204   3.016   5.977  0.2721 -1.0195  1.2931
 3966SOL     OW12475   5.205   5.552   4.965  0.5462  0.0640  0.6601
 3966SOL    HW112476   5.291   5.574   4.998  0.5646  0.3280  0.4371
 3966SOL    HW212477   5.158   5.635   4.961 -0.1743 -0.2540  2.0553
 3967SOL     OW12478   5.911   4.461   1.274 -0.2132  0.1772 -0.0421
 3967SOL    HW112479   6.001   4.464   1.242  0.0866 -0.0713  0.7518
 3967SOL    HW212480   5.894   4.548   1.310  0.4703 -0.4192  1.7900
 3968SOL     OW12481   6.713   5.873   9.613 -0.6578 -0.4413  0.3310
 3968SOL    HW112482   6.656   5.911   9.680  0.7960  0.4506  1.1105
 3968SOL    HW212483   6.788   5.933   9.608  0.2976 -1.6513 -0.5530
 3969SOL     OW12484   6.907   8.206   7.685  0.2788 -0.1238 -0.5854
 3969SOL    HW112485   6.820   8.217   7.722  0.0954 -2.9852  0.0830
 3969SOL    HW212486   6.964   8.260   7.740 -0.8831  0.6771 -0.1446
 3970SOL     OW12487   4.341   5.784   2.734  0.2173  0.4102 -0.1907
 3970SOL    HW112488   4.372   5.725   2.664 -0.4363  0.1873 -0.2944
 3970SOL    HW212489   4.367   5.740   2.815 -0.6845 -0.2626 -0.2558
 3971SOL     OW12490   3.452   0.162   7.378  0.2320 -0.0786 -0.2410
 3971SOL    HW112491   3.367   0.205   7.383  0.5621  1.3310 -3.6960
 3971SOL    HW212492   3.513   0.225   7.416  0.2371  1.0764 -2.0192
 3972SOL     OW12493   6.302   4.046   5.748 -0.5891 -0.6434 -0.0260
 3972SOL    HW112494   6.302   3.961   5.703 -0.9406 -1.3910  1.3311
 3972SOL    HW212495   6.362   4.034   5.821 -0.5049  0.3527  0.0770
 3973SOL     OW12496   7.954   2.131   4.803  0.1364  0.5203 -0.0505
 3973SOL    HW112497   7.938   2.184   4.880 -1.2153  0.8661 -0.5447
 3973SOL    HW212498   8.011   2.060   4.834 -2.1151 -0.6207  1.8161
 3974SOL     OW12499   0.150   5.165   1.736 -0.2682 -0.2368  0.1712
 3974SOL    HW112500   0.140   5.259   1.717 -0.4187  0.1115  1.8153
 3974SOL    HW212501   0.208   5.163   1.813  2.0040 -1.6334 -1.4369
 3975SOL     OW12502   2.553   5.506   8.965  0.1356 -0.4395 -0.3401
 3975SOL    HW112503   2.640   5.510   8.926  0.5383 -0.9250  0.4968
 3975SOL    HW212504   2.528   5.413   8.958 -0.3640 -0.2855 -0.6726
 3976SOL     OW12505   3.788   5.799   1.196 -0.1652  0.6807  0.1288
 3976SOL    HW112506   3.811   5.856   1.122  1.0500  0.3352  0.2131
 3976SOL    HW212507   3.820   5.846   1.273  0.2040  0.2288  0.2595
 3977SOL     OW12508   6.205   5.758   1.588  0.6769  0.0057 -0.1042
 3977SOL    HW112509   6.225   5.750   1.681  0.5830 -0.7523 -0.1449
 3977SOL    HW212510   6.116   5.794   1.586  0.9590  0.7306  0.0898
 3978SOL     OW12511   6.343   8.915   7.238  0.4741  0.2747  0.0989
 3978SOL    HW112512   6.317   8.875   7.321  1.3104 -0.6527 -0.0761
 3978SOL    HW212513   6.418   8.970   7.261  0.7928 -0.0900 -0.0639
 3979SOL     OW12514   0.245   7.001   3.684 -0.0830  0.1443 -0.1608
 3979SOL    HW112515   0.235   6.987   3.778 -0.7541  0.8347 -0.1224
 3979SOL    HW212516   0.200   7.083   3.667  1.2588  0.7703 -0.8566
 3980SOL     OW12517   5.688   6.799   6.745  0.0764  0.0978 -0.1202
 3980SOL    HW112518   5.662   6.766   6.659  1.8062 -0.0301 -0.6290
 3980SOL    HW212519   5.652   6.888   6.747 -0.9195 -0.2817 -0.5136
 3981SOL     OW12520   2.815   6.953   7.168  0.0469 -0.0635  0.4048
 3981SOL    HW112521   2.762   6.985   7.094  0.9050 -1.2107 -0.7351
 3981SOL    HW212522   2.782   7.003   7.243  0.1506  2.2433 -0.9753
 3982SOL     OW12523   5.540   6.518   8.483  0.1806  0.0647  0.3243
 3982SOL    HW112524   5.466   6.493   8.537  0.0336  1.7680  0.9530
 3982SOL    HW212525   5.542   6.614   8.485  2.0216  0.0924 -0.1793
 3983SOL     OW12526   6.055   5.206   4.013 -0.6714 -0.0994  0.5333
 3983SOL    HW112527   6.035   5.239   4.101 -0.1768 -0.2581  0.7111
 3983SOL    HW212528   6.013   5.268   3.954 -2.3320 -0.8252  0.8756
 3984SOL     OW12529   1.389   4.382   0.189 -0.1571  0.1149 -0.2196
 3984SOL    HW112530   1.374   4.470   0.155 -2.6036  0.2790  1.0776
 3984SOL    HW212531   1.394   4.327   0.110 -2.1556  0.9594 -0.9943
 3985SOL     OW12532   9.217   3.587   1.985  0.7929 -0.2136 -0.4444
 3985SOL    HW112533   9.175   3.668   2.012 -0.6981 -1.0687 -0.0702
 3985SOL    HW212534   9.206   3.585   1.890 -2.5446 -1.6355 -0.1919
 3986SOL     OW12535   6.864   9.873   5.513  0.0263 -0.3518  0.2674
 3986SOL    HW112536   6.774   9.848   5.536  0.2818 -1.9172 -0.2848
 3986SOL    HW212537   6.886   9.816   5.439  1.2905  0.3763  0.0640
 3987SOL     OW12538   6.654   5.505   4.375 -0.9678 -0.2851 -0.3613
 3987SOL    HW112539   6.594   5.523   4.303  1.3009 -1.2083 -2.6410
 3987SOL    HW212540   6.599   5.464   4.443 -3.2761  1.0680 -1.3023
 3988SOL     OW12541   3.509   8.483   0.997 -0.2110 -0.3000 -0.0092
 3988SOL    HW112542   3.535   8.406   0.945  1.0118  1.2176 -1.7830
 3988SOL    HW212543   3.477   8.446   1.079  0.6428 -2.6874 -0.6491
 3989SOL     OW12544   9.459   9.893   1.904  0.8619  0.6432  0.5525
 3989SOL    HW112545   9.482   9.957   1.836 -0.9421 -0.3594 -1.0836
 3989SOL    HW212546   9.503   9.813   1.877 -0.2158  0.1214  0.2882
 3990SOL     OW12547   9.819   1.091   5.201  0.6091  0.5439  0.1016
 3990SOL    HW112548   9.770   1.080   5.282  0.8782  0.5889  0.2702
 3990SOL    HW212549   9.789   1.175   5.165  0.2066  0.3376 -0.0417
 3991SOL     OW12550   6.931   5.495   8.787 -0.3785 -0.4772 -0.0640
 3991SOL    HW112551   6.877   5.574   8.783  3.1905  2.1964 -0.5376
 3991SOL    HW212552   6.896   5.446   8.862 -1.3362  2.7506  1.8121
 3992SOL     OW12553   5.104   8.398   9.221 -0.1664 -0.1061  0.3159
 3992SOL    HW112554   5.163   8.324   9.204 -0.9192 -1.3758  2.7583
 3992SOL    HW212555   5.162   8.473   9.227  0.7428 -0.6356 -1.1401
 3993SOL     OW12556   9.566   1.253   3.302  0.0705  0.2138  0.1539
 3993SOL    HW112557   9.496   1.297   3.254 -0.2330  1.1720  1.4325
 3993SOL    HW212558   9.523   1.217   3.380  0.3986 -2.0110 -0.6241
 3994SOL     OW12559   6.244   8.226   9.456  0.4129 -0.2202 -0.3582
 3994SOL    HW112560   6.223   8.269   9.374  0.3324 -0.6498 -0.5669
 3994SOL    HW212561   6.168   8.171   9.475  0.5021 -0.2550 -0.0876
 3995SOL     OW12562   1.108   8.307   6.590  0.4437 -0.5133 -0.9805
 3995SOL    HW112563   1.152   8.319   6.506  2.8116  0.9704  0.3524
 3995SOL    HW212564   1.074   8.394   6.612 -0.2028 -0.8929 -0.4084
 3996SOL     OW12565   7.743   3.457   5.988  0.3149  0.0505 -0.4059
 3996SOL    HW112566   7.741   3.509   5.907  1.4127  0.0984 -0.4078
 3996SOL    HW212567   7.786   3.375   5.963 -2.1336 -1.2861 -0.6134
 3997SOL     OW12568   5.443   7.987   7.525  0.5053 -0.2321 -0.5789
 3997SOL    HW112569   5.487   8.043   7.589  1.4936 -1.8951  0.2842
 3997SOL    HW212570   5.353   7.981   7.555  0.2757  1.1628 -0.9142
 3998SOL     OW12571   8.352   0.209   4.828  0.3769 -0.1528 -0.4393
 3998SOL    HW112572   8.284   0.244   4.770 -1.4110 -2.1159  0.3688
 3998SOL    HW212573   8.313   0.212   4.915  0.9230 -2.2446 -0.0804
 3999SOL     OW12574   2.882   0.225   7.621  0.1836  0.1710 -0.1933
 3999SOL    HW112575   2.824   0.282   7.672  0.7648  0.8753 -0.3038
 3999SOL    HW212576   2.858   0.241   7.530 -1.0599 -1.3079 -0.1730
 4000SOL     OW12577   4.859   0.503   3.407 -0.0894 -0.7383 -0.4284
 4000SOL    HW112578   4.798   0.464   3.470  0.2868 -1.1200 -0.3023
 4000SOL    HW212579   4.844   0.454   3.326  0.4402 -1.2026 -0.2483
 4001SOL     OW12580   5.123   4.381   4.003 -0.0613  0.3300 -0.1032
 4001SOL    HW112581   5.037   4.351   4.030  0.2771 -0.4561  0.1408
 4001SOL    HW212582   5.113   4.405   3.911 -0.4606 -0.0517 -0.1598
 4002SOL     OW12583   5.818   9.548   5.096 -0.0243 -0.1658  0.5805
 4002SOL    HW112584   5.765   9.601   5.156 -1.9106 -0.7965 -0.4517
 4002SOL    HW212585   5.755   9.491   5.053  1.7285 -2.1185  0.4535
 4003SOL     OW12586   9.285   8.571   0.690  1.0255  0.3621 -0.2791
 4003SOL    HW112587   9.324   8.578   0.603 -1.4402  1.2870 -1.4082
 4003SOL    HW212588   9.253   8.481   0.695  0.7917  0.4321 -0.5072
 4004SOL     OW12589   8.848   9.276   0.106 -0.0629  0.7585 -0.2980
 4004SOL    HW112590   8.863   9.370   0.114  0.1051  0.7383 -0.3771
 4004SOL    HW212591   8.754   9.265   0.118 -0.1477  0.9862 -0.7502
 4005SOL     OW12592   3.047   4.116   6.461 -0.4768  0.0849 -0.2236
 4005SOL    HW112593   3.078   4.113   6.552  0.1605  1.2418 -0.3950
 4005SOL    HW212594   3.122   4.087   6.409 -0.7832 -0.4007 -0.4029
 4006SOL     OW12595   4.772   7.609   9.916 -0.1032  0.3317 -0.6058
 4006SOL    HW112596   4.863   7.583   9.928 -0.4339  0.2072  2.2118
 4006SOL    HW212597   4.763   7.620   9.821  2.6375 -0.2911 -1.0286
 4007SOL     OW12598   7.319   1.849   6.010 -0.0630  0.2060  0.3397
 4007SOL    HW112599   7.405   1.830   6.050 -0.1321 -0.6125  0.1262
 4007SOL    HW212600   7.263   1.872   6.085  0.0316 -0.4746  0.6326
 4008SOL     OW12601   2.275   1.330   6.936  0.5449  0.5221 -0.0926
 4008SOL    HW112602   2.325   1.275   6.996 -1.9795 -0.0851  1.5940
 4008SOL    HW212603   2.284   1.288   6.851  3.2550  0.7529 -0.0128
 4009SOL     OW12604   1.530   7.242   3.213  0.7370 -0.3506  0.5209
 4009SOL    HW112605   1.447   7.257   3.259  0.4691 -0.4177  0.0578
 4009SOL    HW212606   1.588   7.310   3.247  0.4910 -0.2957  0.8399
 4010SOL     OW12607   8.335   4.526   1.708 -0.0916 -0.5246  0.0585
 4010SOL    HW112608   8.335   4.498   1.799 -1.9021 -0.3407  0.1564
 4010SOL    HW212609   8.273   4.599   1.705  0.1584 -0.3374 -1.2687
 4011SOL     OW12610   3.146   2.562   7.644 -0.1100  0.0382  0.0019
 4011SOL    HW112611   3.219   2.580   7.703  0.1469 -0.8724 -0.0350
 4011SOL    HW212612   3.178   2.494   7.585  0.0781  1.7733 -2.0315
 4012SOL     OW12613   2.099   7.488   4.670  0.2281  0.3874  0.4375
 4012SOL    HW112614   2.043   7.454   4.601 -0.2454 -1.0183  1.4501
 4012SOL    HW212615   2.046   7.480   4.750  1.8201 -0.9581  1.4214
 4013SOL     OW12616   6.533   3.472   4.684  0.3513  0.2860 -0.0051
 4013SOL    HW112617   6.555   3.554   4.727 -0.6429  0.2516  0.6171
 4013SOL    HW212618   6.471   3.430   4.744 -0.6716 -0.0140 -1.2310
 4014SOL     OW12619   8.736   3.805   8.600  0.0372  0.0933 -0.1932
 4014SOL    HW112620   8.716   3.898   8.592  1.1143  0.2384 -1.6019
 4014SOL    HW212621   8.652   3.761   8.586 -0.4610  0.8311  0.3979
 4015SOL     OW12622   7.016   2.913   2.639 -0.1748 -0.1422 -0.6516
 4015SOL    HW112623   7.035   2.845   2.574 -3.8659 -0.3581 -1.7471
 4015SOL    HW212624   6.984   2.987   2.587 -1.0715  0.5079  0.7792
 4016SOL     OW12625   2.435   8.490   0.029 -0.0782  0.7445 -0.2458
 4016SOL    HW112626   2.437   8.421  -0.037  0.3999 -0.8588  1.3635
 4016SOL    HW212627   2.344   8.495   0.056  0.1957 -0.9289  1.2145
 4017SOL     OW12628   8.453   8.720   9.891  0.3401  0.7257 -0.8068
 4017SOL    HW112629   8.368   8.729   9.933 -0.6845  0.4796 -2.7173
 4017SOL    HW212630   8.496   8.649   9.939 -1.1371 -0.1685 -0.7452
 4018SOL     OW12631   8.928   5.370   8.810 -0.7883 -0.5469  0.3159
 4018SOL    HW112632   9.001   5.325   8.852  1.5040  2.3633 -0.2306
 4018SOL    HW212633   8.899   5.310   8.741  1.4003 -1.6577  0.2699
 4019SOL     OW12634   8.999   5.565   3.990  0.2056  0.3440 -0.4195
 4019SOL    HW112635   9.005   5.617   4.070 -0.1363 -0.1420 -0.0720
 4019SOL    HW212636   9.049   5.615   3.925  0.6223  0.6586  0.1345
 4020SOL     OW12637   4.730   8.316   3.053  0.4583  0.3499 -0.3362
 4020SOL    HW112638   4.727   8.327   3.148 -0.2944  0.6992 -0.3977
 4020SOL    HW212639   4.786   8.388   3.022  0.6920  0.2439 -0.1600
 4021SOL     OW12640   0.205   2.249   7.495  0.3578 -0.1840  0.1494
 4021SOL    HW112641   0.253   2.258   7.413 -0.2438 -0.7365 -0.2741
 4021SOL    HW212642   0.140   2.319   7.493 -1.1415 -1.5386 -0.9112
 4022SOL     OW12643   0.708   1.421   2.121  1.0846  0.0307 -0.0418
 4022SOL    HW112644   0.661   1.346   2.085  1.3652  0.8168 -2.1994
 4022SOL    HW212645   0.659   1.497   2.091  2.9369  0.8304 -1.2841
 4023SOL     OW12646   7.369   0.152   3.900  0.6711  0.3881  0.0680
 4023SOL    HW112647   7.389   0.086   3.966 -0.4435  1.1279  1.1904
 4023SOL    HW212648   7.316   0.105   3.835 -0.9598  0.3404  1.3542
 4024SOL     OW12649   7.081   8.248   5.708 -0.2920  0.3256 -0.6739
 4024SOL    HW112650   7.103   8.237   5.801 -0.9321  0.9264 -0.4439
 4024SOL    HW212651   7.156   8.210   5.662 -0.9839 -2.1383  0.0660
 4025SOL     OW12652   8.887   6.345   8.873  0.2158 -0.0529 -0.0961
 4025SOL    HW112653   8.917   6.434   8.853  0.1352  0.0879  0.4069
 4025SOL    HW212654   8.915   6.293   8.797  2.7274 -0.1621  0.8222
 4026SOL     OW12655   6.502   8.299   9.134  0.1161 -0.3449 -0.3129
 4026SOL    HW112656   6.580   8.267   9.182 -0.3730 -0.2609  0.5672
 4026SOL    HW212657   6.437   8.229   9.147 -0.0508 -0.2737 -0.7831
 4027SOL     OW12658   3.200   7.821   9.165  0.1535 -0.1606 -0.1673
 4027SOL    HW112659   3.220   7.764   9.239 -0.3629  0.2480  0.3015
 4027SOL    HW212660   3.264   7.892   9.171  0.5403 -0.4750 -0.5143
 4028SOL     OW12661   9.042   1.913   0.180  0.4063 -0.1443  0.3452
 4028SOL    HW112662   9.106   1.891   0.248 -1.4064 -0.0342  2.2345
 4028SOL    HW212663   8.958   1.911   0.227 -1.0850 -1.2413 -2.2025
 4029SOL     OW12664   1.105   4.304   6.093  0.3409  0.1444  0.0423
 4029SOL    HW112665   1.181   4.263   6.134  1.2003  0.0876 -1.5305
 4029SOL    HW212666   1.034   4.291   6.155  1.7279  0.7202  1.8447
 4030SOL     OW12667   6.009   1.104   9.266  0.0896 -0.3466 -0.0202
 4030SOL    HW112668   5.971   1.101   9.178  2.0739  0.7422 -0.9983
 4030SOL    HW212669   6.094   1.148   9.253  1.3017 -1.8987  2.1204
 4031SOL     OW12670   6.746   2.318   4.917  0.0424 -0.1159  0.2204
 4031SOL    HW112671   6.755   2.413   4.916 -0.8205 -0.0278  0.3137
 4031SOL    HW212672   6.662   2.302   4.961  0.9002 -0.9754  1.6346
 4032SOL     OW12673   7.776   2.456   6.532 -0.0084 -0.4861  0.0836
 4032SOL    HW112674   7.777   2.526   6.598  0.5599  0.6650 -1.1065
 4032SOL    HW212675   7.850   2.476   6.475 -1.1300 -0.7928 -1.5586
 4033SOL     OW12676   8.469   9.738   4.409  0.4464 -0.0241 -0.0513
 4033SOL    HW112677   8.499   9.672   4.347  0.6595  0.6166 -0.6456
 4033SOL    HW212678   8.507   9.711   4.493  3.3155  1.0814 -0.8813
 4034SOL     OW12679   9.857   4.704   6.577  0.0621 -0.3949  0.1175
 4034SOL    HW112680   9.780   4.722   6.631  0.9316 -1.8693  1.9889
 4034SOL    HW212681   9.930   4.707   6.639  1.4381  0.3762 -1.5021
 4035SOL     OW12682   5.048   0.880   9.733  0.3454  0.4342  0.1980
 4035SOL    HW112683   5.098   0.831   9.668  0.4515  2.1369 -1.0618
 4035SOL    HW212684   4.967   0.829   9.742  0.0207  0.4773 -1.8065
 4036SOL     OW12685   3.568   6.206   5.855 -0.0928 -0.0186 -0.2615
 4036SOL    HW112686   3.537   6.237   5.770 -1.0463  0.1587  0.1377
 4036SOL    HW212687   3.575   6.111   5.845  1.7957  0.1753 -1.1549
 4037SOL     OW12688   6.524   5.959   5.125  0.1662  0.4176 -0.3382
 4037SOL    HW112689   6.476   5.876   5.134 -1.6969  0.8348 -4.4209
 4037SOL    HW212690   6.615   5.933   5.113  0.1615 -0.7540  1.6357
 4038SOL     OW12691   4.546   9.908   0.863 -0.7001  0.9115  0.1904
 4038SOL    HW112692   4.495   9.880   0.787  0.4373 -0.4165 -0.1287
 4038SOL    HW212693   4.530   9.841   0.929  0.4720  0.5692  0.1470
 4039SOL     OW12694   3.275   5.980   5.759 -0.3579 -0.0913  0.0299
 4039SOL    HW112695   3.245   5.987   5.850  0.5025 -1.1036  0.4147
 4039SOL    HW212696   3.199   6.005   5.707 -1.0386 -0.0292  1.0186
 4040SOL     OW12697   1.487   7.260   2.601  0.3711 -0.2199  0.3677
 4040SOL    HW112698   1.480   7.226   2.511  1.0774  0.6304 -0.0328
 4040SOL    HW212699   1.455   7.190   2.656 -0.6154 -0.5469 -0.5942
 4041SOL     OW12700   5.403   5.985   5.016  0.6043  0.5471 -0.3258
 4041SOL    HW112701   5.313   5.961   5.039  1.2555 -0.4656  1.3721
 4041SOL    HW212702   5.458   5.931   5.074  2.3611  0.0577 -2.2924
 4042SOL     OW12703   1.611   0.971   8.399 -0.3683  0.1850 -0.0282
 4042SOL    HW112704   1.607   0.877   8.379 -0.5234  0.0335  0.7054
 4042SOL    HW212705   1.529   1.006   8.365  0.8338  0.5749 -2.8241
 4043SOL     OW12706   1.679   4.129   4.834 -0.1629  0.3659 -0.0377
 4043SOL    HW112707   1.747   4.121   4.900 -0.0864 -0.1763 -0.1816
 4043SOL    HW212708   1.601   4.158   4.883 -0.7662 -2.2930  0.7080
 4044SOL     OW12709   8.844   4.533   6.518  0.2897  0.0958  0.1071
 4044SOL    HW112710   8.852   4.535   6.614  0.4496 -0.0304  0.0974
 4044SOL    HW212711   8.760   4.490   6.502 -0.2444  1.0653  0.2079
 4045SOL     OW12712   1.839   4.364   5.327 -0.0764  0.2054 -0.0802
 4045SOL    HW112713   1.904   4.331   5.389 -0.7898  1.8958  1.6579
 4045SOL    HW212714   1.769   4.299   5.328 -0.3976  0.5299  1.4889
 4046SOL     OW12715   0.350   4.711   4.752 -0.0307 -0.0344 -0.3640
 4046SOL    HW112716   0.437   4.742   4.730  0.7768 -2.7604 -1.4282
 4046SOL    HW212717   0.290   4.770   4.705  1.2564  1.0850 -0.6571
 4047SOL     OW12718   2.625   0.524   7.572 -0.4280  0.5049  0.1978
 4047SOL    HW112719   2.625   0.532   7.667  0.1860  1.6427  0.1274
 4047SOL    HW212720   2.692   0.587   7.543 -0.4370  0.0032 -0.9691
 4048SOL     OW12721   5.296   3.971   8.601 -0.4218 -0.1895 -0.8340
 4048SOL    HW112722   5.239   3.938   8.671 -0.3741 -0.9013 -1.1247
 4048SOL    HW212723   5.341   4.046   8.641  2.3140 -2.6294  1.1859
 4049SOL     OW12724   8.271   9.959   8.601  1.0617 -0.0734 -0.2402
 4049SOL    HW112725   8.180   9.977   8.622  1.4178  1.3451  0.2092
 4049SOL    HW212726   8.269   9.876   8.554 -0.2235 -1.2546  1.7588
 4050SOL     OW12727   5.650   2.947   6.519 -0.1949  0.4107 -0.3484
 4050SOL    HW112728   5.590   2.966   6.447  1.0998  1.7019 -1.1361
 4050SOL    HW212729   5.698   3.028   6.533  2.2225 -0.8782 -0.5783
 4051SOL     OW12730   2.669   3.916   0.548  0.4987 -0.1209 -0.2226
 4051SOL    HW112731   2.637   3.945   0.462 -2.2450  1.8037  1.2912
 4051SOL    HW212732   2.631   3.828   0.559 -1.3789  0.6592 -0.0026
 4052SOL     OW12733   8.998   2.926   8.573  0.2442  0.2007  0.3761
 4052SOL    HW112734   9.058   2.865   8.530 -0.5153 -1.0604  1.0519
 4052SOL    HW212735   9.024   3.012   8.539  0.3055 -0.6232 -1.8406
 4053SOL     OW12736   1.879   5.541   1.691 -0.2897  0.4787  0.2453
 4053SOL    HW112737   1.861   5.523   1.784 -2.9023  1.6589  0.0380
 4053SOL    HW212738   1.826   5.478   1.643  2.2484 -1.2021 -0.5621
 4054SOL     OW12739   6.848   2.251   2.441  0.4940  0.2570  0.3206
 4054SOL    HW112740   6.764   2.207   2.453  0.0671  0.6748 -0.9462
 4054SOL    HW212741   6.906   2.210   2.505 -0.9993  0.8980  2.1543
 4055SOL     OW12742   5.637   0.248   5.326  0.2980  0.5452 -0.0272
 4055SOL    HW112743   5.675   0.282   5.245  4.3495 -0.2809  1.2998
 4055SOL    HW212744   5.681   0.297   5.396 -2.2849  0.4884  1.7919
 4056SOL     OW12745   0.944   0.653   9.844 -0.2598 -0.2985 -0.0981
 4056SOL    HW112746   0.990   0.580   9.885 -0.0918  1.2029  2.6095
 4056SOL    HW212747   1.009   0.692   9.785  0.8003 -0.3225  1.0130
 4057SOL     OW12748   8.413   0.806   0.741 -0.0063 -0.4602  0.5500
 4057SOL    HW112749   8.402   0.758   0.824 -1.0869 -0.4334  0.4295
 4057SOL    HW212750   8.476   0.874   0.762 -1.7211  0.8086  1.9220
 4058SOL     OW12751   0.110   1.233   3.184 -0.3220  0.4354 -0.4991
 4058SOL    HW112752   0.131   1.161   3.125 -1.3923  0.1559 -0.5528
 4058SOL    HW212753   0.053   1.291   3.133  0.9375  1.6147 -0.6413
 4059SOL     OW12754   3.827   3.998   7.889 -0.2479 -0.5882 -0.3871
 4059SOL    HW112755   3.799   4.083   7.921  3.5156  1.0823 -0.9949
 4059SOL    HW212756   3.840   4.010   7.795 -0.1199 -1.9631 -0.5682
 4060SOL     OW12757   5.323   4.091   3.823  0.0293 -0.0720  0.0700
 4060SOL    HW112758   5.275   4.096   3.906 -1.0159  1.8845 -0.6024
 4060SOL    HW212759   5.412   4.118   3.845 -0.3020  0.6753  0.5180
 4061SOL     OW12760   6.406   0.269   8.451  0.6207 -0.4404 -0.0749
 4061SOL    HW112761   6.320   0.309   8.458 -0.1286 -1.7356 -1.2714
 4061SOL    HW212762   6.446   0.311   8.375 -0.1407 -1.8111 -1.2920
 4062SOL     OW12763   6.005   5.813   2.675 -0.3754  0.7678  0.2452
 4062SOL    HW112764   5.924   5.789   2.631 -0.1608 -0.2963  0.4062
 4062SOL    HW212765   5.979   5.874   2.744 -1.1321 -0.1233  0.7599
 4063SOL     OW12766   6.709   0.562   1.823  0.1390  0.1428  0.1929
 4063SOL    HW112767   6.663   0.586   1.742 -1.1271 -0.6755  0.6360
 4063SOL    HW212768   6.670   0.478   1.848 -0.0321  0.7572  2.0718
 4064SOL     OW12769   6.018   5.971   0.844 -0.2732  0.4686 -0.2086
 4064SOL    HW112770   6.034   5.879   0.824  1.6499  1.0334 -1.6729
 4064SOL    HW212771   6.106   6.007   0.859 -1.1289  1.6561  2.5318
 4065SOL     OW12772   7.763   3.072   4.072  0.5861 -0.6469  0.1886
 4065SOL    HW112773   7.744   2.984   4.042  1.3895 -1.2540  1.3655
 4065SOL    HW212774   7.851   3.091   4.038  0.8077 -0.6863  0.7257
 4066SOL     OW12775   3.748   0.369   3.738  0.0981  0.6342 -0.2814
 4066SOL    HW112776   3.674   0.359   3.677  0.6295  1.8141 -1.1687
 4066SOL    HW212777   3.802   0.438   3.699  1.0500  0.6386  0.9725
 4067SOL     OW12778   2.306   9.296   7.242 -0.4709  0.1104  1.2479
 4067SOL    HW112779   2.380   9.330   7.293 -0.1615  2.2984 -0.4665
 4067SOL    HW212780   2.327   9.204   7.227  0.5577  0.0085  3.0571
 4068SOL     OW12781   7.553   3.203   7.904  0.1836  0.0130  0.2994
 4068SOL    HW112782   7.637   3.239   7.934 -0.7472  1.3248  1.4742
 4068SOL    HW212783   7.538   3.128   7.962  1.4085 -1.4637 -1.1765
 4069SOL     OW12784   9.956   6.428   1.572  0.0949  0.2234  0.2724
 4069SOL    HW112785   9.870   6.464   1.551  0.1460  0.4280  0.4090
 4069SOL    HW212786   9.994   6.490   1.635 -0.6237 -1.0892  2.0820
 4070SOL     OW12787   4.025   3.314   7.165 -0.0975  0.3045 -0.0309
 4070SOL    HW112788   4.013   3.336   7.257  1.3626 -1.0064  0.5044
 4070SOL    HW212789   4.029   3.218   7.163  0.2540  0.3261 -1.4113
 4071SOL     OW12790   8.474   6.435   1.125  0.5425  0.5600  0.0880
 4071SOL    HW112791   8.533   6.508   1.107  0.0783  1.2905  1.4530
 4071SOL    HW212792   8.513   6.390   1.199  0.1507  0.1689  0.0615
 4072SOL     OW12793   7.100   2.385   6.509  0.3579  0.1082 -0.0494
 4072SOL    HW112794   7.193   2.363   6.500  0.0903 -2.8667  2.6287
 4072SOL    HW212795   7.098   2.448   6.581  0.2674 -1.0068  0.9594
 4073SOL     OW12796   3.593   4.376   9.474  0.6034 -0.0185  0.3578
 4073SOL    HW112797   3.667   4.345   9.422  2.4476  2.4210  1.2996
 4073SOL    HW212798   3.519   4.379   9.413  1.9410 -0.0448 -1.3287
 4074SOL     OW12799   3.667   6.336   7.750 -0.0297  0.2094  0.1199
 4074SOL    HW112800   3.662   6.279   7.826  0.3900  1.0481  0.7980
 4074SOL    HW212801   3.640   6.281   7.676 -1.3811 -0.3522  0.9994
 4075SOL     OW12802   7.415   6.532   7.564 -0.0131  0.1003 -0.1762
 4075SOL    HW112803   7.462   6.498   7.488 -1.0892 -2.0877  0.0637
 4075SOL    HW212804   7.338   6.575   7.528  0.7779  1.3855 -0.4157
 4076SOL     OW12805   3.959   2.796   7.034  0.0008 -0.2617  0.1152
 4076SOL    HW112806   4.025   2.737   7.069  1.9807  2.3947  1.2125
 4076SOL    HW212807   3.892   2.802   7.102 -1.3416 -2.7138 -0.8673
 4077SOL     OW12808   8.952   4.375   6.064  0.0117  0.2364 -0.2069
 4077SOL    HW112809   9.003   4.386   5.984 -1.1043 -1.0041 -1.1285
 4077SOL    HW212810   8.902   4.456   6.072 -1.1107 -0.2693 -1.7095
 4078SOL     OW12811   0.089   8.984   4.542 -0.5877  0.1217 -0.3531
 4078SOL    HW112812   0.171   9.028   4.565 -0.4060 -0.7211  0.7076
 4078SOL    HW212813   0.031   9.001   4.617 -1.0604 -0.1031 -0.6618
 4079SOL     OW12814   3.183   8.153   5.214  0.3234  0.1987 -0.2176
 4079SOL    HW112815   3.130   8.133   5.291  0.5147  0.5417  0.0081
 4079SOL    HW212816   3.274   8.143   5.245  0.4274 -1.9498 -1.0050
 4080SOL     OW12817   4.186   3.082   9.500  0.2401  0.4830  0.2329
 4080SOL    HW112818   4.123   3.042   9.441  0.9955 -2.2046  1.1189
 4080SOL    HW212819   4.134   3.138   9.557 -0.9163  0.5137 -0.8144
 4081SOL     OW12820   3.502   5.409   1.343 -0.0588  0.6310 -0.0646
 4081SOL    HW112821   3.482   5.317   1.356 -1.0118  0.6213 -1.3942
 4081SOL    HW212822   3.596   5.416   1.355  0.5037 -1.0515 -2.7211
 4082SOL     OW12823   8.404   1.415   5.481 -0.2474 -0.2244 -0.2968
 4082SOL    HW112824   8.383   1.464   5.402  2.5942 -1.0964 -1.7147
 4082SOL    HW212825   8.319   1.392   5.518 -1.6612  1.4167 -2.3088
 4083SOL     OW12826   0.931   6.813   8.341  0.5386 -0.2437 -0.3213
 4083SOL    HW112827   0.928   6.865   8.261  1.1594  0.1370 -0.1038
 4083SOL    HW212828   0.935   6.877   8.411  3.1739 -0.5167 -0.1081
 4084SOL     OW12829   2.222   2.072   5.586  0.1683  0.1097  0.2975
 4084SOL    HW112830   2.246   2.085   5.677  0.1534 -0.0663  0.3279
 4084SOL    HW212831   2.296   2.024   5.548  0.2505  0.3313  0.1739
 4085SOL     OW12832   4.145   2.619   1.546  0.4463  0.2884  0.0289
 4085SOL    HW112833   4.091   2.631   1.468 -1.0810 -0.0090  0.9991
 4085SOL    HW212834   4.082   2.606   1.617  1.7987 -1.6321  0.9635
 4086SOL     OW12835   5.280   6.507   4.153 -0.2128  0.2413  0.2618
 4086SOL    HW112836   5.316   6.432   4.106  1.0038  1.2581 -0.4989
 4086SOL    HW212837   5.307   6.583   4.101 -0.3504  1.2830  1.6572
 4087SOL     OW12838   8.449   4.674   8.923 -0.3628  0.1592  0.1247
 4087SOL    HW112839   8.474   4.661   9.014  0.7605  0.8001 -0.0765
 4087SOL    HW212840   8.354   4.692   8.926 -0.5344 -0.8297  1.0509
 4088SOL     OW12841   0.062   6.065   1.772 -0.2741  0.4939  0.0990
 4088SOL    HW112842   0.040   5.976   1.801 -1.1325  0.7048  0.1249
 4088SOL    HW212843   0.131   6.052   1.707  0.1194 -0.1397  0.6270
 4089SOL     OW12844   8.776   2.533   4.022 -0.1216  0.0775  0.1905
 4089SOL    HW112845   8.800   2.443   4.044  0.8908  0.1102 -0.7172
 4089SOL    HW212846   8.697   2.550   4.074 -0.0420 -1.1566  0.7491
 4090SOL     OW12847   3.233   0.292   7.874  0.3227  0.0615  0.5613
 4090SOL    HW112848   3.208   0.245   7.795 -1.3435 -0.7666  1.5300
 4090SOL    HW212849   3.258   0.224   7.936 -0.4489  0.5414  1.4258
 4091SOL     OW12850   0.916   5.562   1.211  0.3614  0.2926  0.0383
 4091SOL    HW112851   0.839   5.519   1.172 -0.1489  2.0142 -0.9817
 4091SOL    HW212852   0.947   5.501   1.277  0.5725 -2.3099 -2.2817
 4092SOL     OW12853   5.861   7.864   2.733 -0.2991 -0.5845  0.4792
 4092SOL    HW112854   5.771   7.896   2.727 -0.1740 -0.4153 -1.0316
 4092SOL    HW212855   5.915   7.943   2.739 -0.2426 -0.6865  1.4521
 4093SOL     OW12856   0.628   0.662   8.031 -0.1227  0.0913  0.4719
 4093SOL    HW112857   0.680   0.742   8.028  0.5897 -0.3229  1.3318
 4093SOL    HW212858   0.645   0.618   7.948  0.5245  0.2025  0.5436
 4094SOL     OW12859   7.374   3.750   7.902  0.6807  0.1794  0.4792
 4094SOL    HW112860   7.396   3.708   7.819 -0.1324  1.2501 -0.2857
 4094SOL    HW212861   7.292   3.709   7.929 -0.0221  1.1337 -0.1808
 4095SOL     OW12862   6.392   0.179   5.052  0.1880 -0.2723 -0.0764
 4095SOL    HW112863   6.297   0.167   5.053  0.0807  0.5078 -0.4321
 4095SOL    HW212864   6.414   0.210   5.140  0.0906 -0.2549 -0.0587
 4096SOL     OW12865   9.181   0.131   6.450  0.0019 -0.4654  0.0640
 4096SOL    HW112866   9.237   0.200   6.487 -1.8190  0.6725  0.8691
 4096SOL    HW212867   9.242   0.068   6.413  1.8010  2.0567 -1.6509
 4097SOL     OW12868   1.645   7.361   2.213 -0.1125 -0.1424 -0.3726
 4097SOL    HW112869   1.553   7.348   2.234 -0.6028  0.7338 -1.8149
 4097SOL    HW212870   1.687   7.379   2.297 -1.5923  1.3030  0.1082
 4098SOL     OW12871   0.976   4.871   1.159 -0.1664 -0.3734  0.0169
 4098SOL    HW112872   1.062   4.881   1.199 -0.5570  0.2712  0.7388
 4098SOL    HW212873   0.976   4.783   1.122  1.5344  0.3243 -1.8212
 4099SOL     OW12874   5.707   4.296   2.358  0.7285 -0.2216 -0.0852
 4099SOL    HW112875   5.764   4.339   2.422 -2.3988 -0.6366  3.2956
 4099SOL    HW212876   5.688   4.364   2.294  5.1995 -0.2162 -1.7367
 4100SOL     OW12877   6.394   9.922   1.218  0.1949 -0.1894 -0.2330
 4100SOL    HW112878   6.398   9.863   1.293  0.0571  1.7006  1.3409
 4100SOL    HW212879   6.479   9.965   1.217 -0.1422  0.4922 -0.5596
 4101SOL     OW12880   7.805   6.610   9.963 -0.4444 -0.0155  0.3814
 4101SOL    HW112881   7.899   6.597   9.951 -0.1596  2.3247 -0.2558
 4101SOL    HW212882   7.769   6.606   9.875 -0.7111  0.7423  0.4554
 4102SOL     OW12883   0.807   4.191   1.258  0.4261 -0.8302  0.1909
 4102SOL    HW112884   0.767   4.274   1.281  0.5557 -0.6409 -0.2600
 4102SOL    HW212885   0.897   4.214   1.232  1.1078 -1.3309  1.9467
 4103SOL     OW12886   8.291   5.072   7.150 -0.8960  0.2904  0.4190
 4103SOL    HW112887   8.255   5.156   7.179 -1.1060 -0.0466  1.1413
 4103SOL    HW212888   8.273   5.070   7.056 -0.0337  1.4850  0.1989
 4104SOL     OW12889   3.792   5.999   5.682 -0.6504 -0.4517  0.2913
 4104SOL    HW112890   3.863   5.938   5.666  0.0850 -0.0031  1.6582
 4104SOL    HW212891   3.756   5.973   5.767 -0.9896  0.3792  0.4152
 4105SOL     OW12892   0.247   6.653   8.412 -0.1605  0.1101 -0.3195
 4105SOL    HW112893   0.276   6.713   8.343  0.5238  0.4047  0.2161
 4105SOL    HW212894   0.285   6.568   8.387 -0.6266  0.0177 -0.7502
 4106SOL     OW12895   0.682   4.519   9.929 -0.0676  0.2607  0.0534
 4106SOL    HW112896   0.656   4.557  10.013  1.7388  0.9735  0.3462
 4106SOL    HW212897   0.745   4.581   9.893  1.7422 -1.6100 -0.2197
 4107SOL     OW12898   9.138   8.004   6.117  0.0784 -0.3028 -0.2933
 4107SOL    HW112899   9.134   8.086   6.068 -0.9560 -0.1675 -0.0128
 4107SOL    HW212900   9.223   7.966   6.095  0.9751  1.3003  0.3077
 4108SOL     OW12901   7.450   4.529   6.182  0.0076  0.1306 -0.4754
 4108SOL    HW112902   7.475   4.476   6.106  0.5432 -0.9852  0.4494
 4108SOL    HW212903   7.372   4.486   6.217 -1.0065  1.3758 -1.0945
 4109SOL     OW12904   2.018   4.753   7.832 -0.0517 -0.6619  0.2976
 4109SOL    HW112905   1.957   4.732   7.761  0.1311 -1.2784  0.3159
 4109SOL    HW212906   1.991   4.839   7.862 -1.0328 -1.0047  0.4209
 4110SOL     OW12907   3.891   7.146   2.734  0.6240 -0.1148  0.4763
 4110SOL    HW112908   3.928   7.210   2.673 -0.8990  0.6362  0.3003
 4110SOL    HW212909   3.950   7.071   2.728  1.3480  0.5211 -0.7872
 4111SOL     OW12910   4.044   8.053   5.136 -0.0151 -0.4323  0.2384
 4111SOL    HW112911   4.054   8.022   5.226 -2.6049 -0.2397  0.6644
 4111SOL    HW212912   4.133   8.053   5.100  0.8502 -2.2988  2.1969
 4112SOL     OW12913   8.922   4.645   0.778  0.6773  0.5635 -0.3523
 4112SOL    HW112914   8.907   4.737   0.799  0.7534  1.1431 -2.5443
 4112SOL    HW212915   8.901   4.598   0.859  0.4731  2.4747  0.7681
 4113SOL     OW12916   4.490   7.702   8.797 -0.2750  0.2678  0.2517
 4113SOL    HW112917   4.551   7.767   8.761  0.6779 -0.0625  1.1976
 4113SOL    HW212918   4.547   7.634   8.835 -1.2218  0.0190  1.3007
 4114SOL     OW12919   5.607   4.905   0.688 -0.0897  0.6814 -0.1977
 4114SOL    HW112920   5.562   4.951   0.617  0.1303  1.4117  0.1284
 4114SOL    HW212921   5.536   4.870   0.742 -0.2671  0.8522 -0.3156
 4115SOL     OW12922   8.928   3.331   5.521  0.6455  0.0367 -0.5618
 4115SOL    HW112923   8.894   3.366   5.439  1.4758 -0.8839 -1.3249
 4115SOL    HW212924   8.850   3.308   5.571  0.1120  1.4215 -0.7101
 4116SOL     OW12925   4.850   5.091   5.915 -0.3268  0.4855  0.3386
 4116SOL    HW112926   4.897   5.173   5.900  0.1090  0.3083  0.7011
 4116SOL    HW212927   4.799   5.077   5.836  3.4992 -1.5275 -2.0911
 4117SOL     OW12928   0.688   3.674   7.756  0.0120 -0.2567 -0.4156
 4117SOL    HW112929   0.634   3.647   7.830  0.4249 -0.9747 -0.3662
 4117SOL    HW212930   0.778   3.656   7.783  0.2084  0.0093 -0.8691
 4118SOL     OW12931   1.294   5.961   3.326  0.6245  0.1259 -0.0480
 4118SOL    HW112932   1.246   5.881   3.348  0.1545  0.1500 -0.9573
 4118SOL    HW212933   1.386   5.937   3.338  0.4614 -0.3693  0.2618
 4119SOL     OW12934   1.013   8.122   4.194  0.0034  0.4869  0.4428
 4119SOL    HW112935   1.070   8.194   4.168  0.5852 -0.3176 -0.5865
 4119SOL    HW212936   1.053   8.044   4.155 -1.6134 -0.1401 -0.0484
 4120SOL     OW12937   0.102   4.104   7.371  0.1508  0.2875  0.2313
 4120SOL    HW112938   0.159   4.127   7.444 -0.2762 -0.7453  0.9124
 4120SOL    HW212939   0.014   4.124   7.402  0.0554  0.8886 -0.4192
 4121SOL     OW12940   3.646   9.760   6.277  0.5792  0.3783  0.3008
 4121SOL    HW112941   3.613   9.672   6.295  0.1810  0.4402 -0.1340
 4121SOL    HW212942   3.740   9.747   6.263  0.3661 -0.1164 -0.7307
 4122SOL     OW12943   2.769   9.217   4.426 -0.0576  0.8071 -0.4146
 4122SOL    HW112944   2.857   9.252   4.442 -0.2765  1.7808 -1.2893
 4122SOL    HW212945   2.781   9.152   4.357  0.1002  0.2755  0.1009
 4123SOL     OW12946   2.619   0.051   6.997  0.3921 -0.6726 -0.1840
 4123SOL    HW112947   2.619  -0.045   6.996 -1.4985 -0.7061 -0.5518
 4123SOL    HW212948   2.595   0.075   7.086 -0.2601 -0.5616 -0.3890
 4124SOL     OW12949   2.010   1.176   7.300 -0.1376 -0.1239  0.0219
 4124SOL    HW112950   2.059   1.147   7.223 -1.3603 -0.6732 -0.5876
 4124SOL    HW212951   2.076   1.214   7.358  1.1289 -1.5745 -0.3981
 4125SOL     OW12952   4.319   2.388   5.561  0.1354  0.0597  0.0580
 4125SOL    HW112953   4.309   2.293   5.563  1.1789 -0.1201 -1.3978
 4125SOL    HW212954   4.385   2.404   5.494 -1.2615  1.9057 -1.0129
 4126SOL     OW12955   9.747   7.520   7.100  0.2014  0.2393  0.0940
 4126SOL    HW112956   9.739   7.468   7.179 -1.3151  0.0359 -0.1691
 4126SOL    HW212957   9.678   7.585   7.106  1.2721  1.4539 -0.1805
 4127SOL     OW12958   1.786   6.238   4.182 -0.1468  0.6654  0.6514
 4127SOL    HW112959   1.868   6.257   4.228 -0.9309  1.8019  1.6626
 4127SOL    HW212960   1.796   6.282   4.097  0.2020  0.9857  0.8559
 4128SOL     OW12961   3.275   0.650   5.621  0.2344  0.1376 -0.1015
 4128SOL    HW112962   3.342   0.701   5.575 -0.6717  0.5774 -0.9584
 4128SOL    HW212963   3.241   0.589   5.555 -0.3469  0.0546  0.2657
 4129SOL     OW12964   0.427   4.636   3.944  0.1233  0.0598 -0.1230
 4129SOL    HW112965   0.381   4.553   3.951 -0.7806  0.6211  0.9627
 4129SOL    HW212966   0.507   4.624   3.995  1.0633 -0.8048 -1.7250
 4130SOL     OW12967   0.369   6.245   7.780  0.4818 -0.1611 -0.7493
 4130SOL    HW112968   0.385   6.281   7.693  1.4567 -0.7757 -0.8469
 4130SOL    HW212969   0.277   6.222   7.780  0.1495  1.0622 -1.1476
 4131SOL     OW12970   9.928   1.572   7.281 -0.1596 -0.1190 -0.5414
 4131SOL    HW112971   9.852   1.529   7.320  0.3202 -0.5644 -0.0810
 4131SOL    HW212972   9.891   1.633   7.217 -1.0490  1.5848  1.4902
 4132SOL     OW12973   3.964   4.560   9.745 -0.2589 -0.0286  0.1941
 4132SOL    HW112974   3.894   4.557   9.679  0.9069 -0.6514 -1.0732
 4132SOL    HW212975   4.030   4.618   9.707  0.2191 -0.0061  1.0425
 4133SOL     OW12976   4.553   2.313   1.117  0.2024  0.3728 -0.4558
 4133SOL    HW112977   4.487   2.258   1.160  1.1129 -0.9573 -0.6996
 4133SOL    HW212978   4.539   2.299   1.023  1.3992 -0.6594 -0.5020
 4134SOL     OW12979   5.980   6.049   7.352  0.0639  1.0118 -0.4577
 4134SOL    HW112980   6.002   6.131   7.396  0.8639 -0.1619  1.4437
 4134SOL    HW212981   6.023   5.982   7.404 -0.4266 -0.6212 -2.0706
 4135SOL     OW12982   4.579   4.957   0.470  0.1959  0.1889  0.5450
 4135SOL    HW112983   4.651   4.895   0.460 -0.9441 -1.1054 -0.0256
 4135SOL    HW212984   4.552   4.949   0.561  0.3197  0.1617  0.5786
 4136SOL     OW12985   0.224   8.590   8.346 -0.2715  0.5533  0.2208
 4136SOL    HW112986   0.265   8.635   8.419  1.0077  0.3184 -0.3190
 4136SOL    HW212987   0.217   8.499   8.375  1.2325  0.2329 -0.3048
 4137SOL     OW12988   6.817   3.465   0.130 -0.4853 -0.2509  0.2691
 4137SOL    HW112989   6.737   3.515   0.149  0.1617  1.5737 -1.4441
 4137SOL    HW212990   6.786   3.378   0.107 -2.1712  0.8291 -1.8709
 4138SOL     OW12991   1.445   6.199   3.903  0.6370 -0.5126 -0.4692
 4138SOL    HW112992   1.502   6.269   3.871  0.1610 -0.0630 -0.3471
 4138SOL    HW212993   1.404   6.235   3.981  0.9182 -1.1867 -0.0085
 4139SOL     OW12994   5.661   2.844   5.571 -0.0551 -0.0294 -0.3111
 4139SOL    HW112995   5.683   2.777   5.636 -1.3595  0.6951  0.9257
 4139SOL    HW212996   5.604   2.800   5.508 -1.2651 -0.0234  0.7385
 4140SOL     OW12997   2.240   8.304   5.756  0.0646 -0.0919 -0.4286
 4140SOL    HW112998   2.191   8.229   5.790  2.2686 -0.7744  1.4881
 4140SOL    HW212999   2.292   8.269   5.684  0.3127 -0.1836 -0.2078
 4141SOL     OW13000   3.086   6.237   2.228  0.6913 -0.1819  0.1264
 4141SOL    HW113001   3.160   6.184   2.198  0.7508 -0.3117  0.4923
 4141SOL    HW213002   3.078   6.307   2.163  0.4672 -0.7710 -0.4865
 4142SOL     OW13003   1.624   8.432   1.300 -0.1983 -0.2791 -0.5952
 4142SOL    HW113004   1.636   8.338   1.311 -1.8344 -0.4572  0.0491
 4142SOL    HW213005   1.530   8.446   1.315 -0.1985  1.3023 -1.7747
 4143SOL     OW13006   9.328   9.422   0.627  0.1121 -0.0294 -0.4516
 4143SOL    HW113007   9.400   9.393   0.571  0.5690 -0.5083  0.3579
 4143SOL    HW213008   9.264   9.351   0.621 -0.9255  0.9810 -2.2115
 4144SOL     OW13009   6.092   1.302   8.039 -0.2330 -0.3573 -0.1276
 4144SOL    HW113010   6.069   1.377   7.984 -2.2844  0.2929  1.4800
 4144SOL    HW213011   6.065   1.226   7.987 -1.4078  0.1966 -0.3612
 4145SOL     OW13012   6.979   1.793   3.134  0.1419 -0.2004  0.1653
 4145SOL    HW113013   7.048   1.791   3.068 -0.0473  0.2356 -0.0505
 4145SOL    HW213014   7.009   1.858   3.198 -0.3770  0.4925 -0.2800
 4146SOL     OW13015   0.669   2.894   0.402 -0.7802  0.0775  0.0693
 4146SOL    HW113016   0.643   2.809   0.438  0.3232  0.0224  0.7537
 4146SOL    HW213017   0.748   2.918   0.449  0.1281  0.5033 -1.5880
 4147SOL     OW13018   0.822   9.778   7.123 -0.3076 -0.1675  0.1073
 4147SOL    HW113019   0.836   9.854   7.065  1.6045 -1.3597 -1.1216
 4147SOL    HW213020   0.804   9.706   7.063 -2.0123 -0.7436  1.2580
 4148SOL     OW13021   8.748   2.833   5.767  0.2929  0.0125 -0.3449
 4148SOL    HW113022   8.803   2.822   5.844  0.8696  0.4688 -0.6793
 4148SOL    HW213023   8.803   2.881   5.705 -0.0493 -0.5963 -1.1524
 4149SOL     OW13024   2.016   0.082   4.487  0.3425 -0.7233  0.1327
 4149SOL    HW113025   2.036   0.171   4.459  2.1541 -1.4562 -1.0502
 4149SOL    HW213026   2.089   0.057   4.543  0.8899 -2.1458 -1.1680
 4150SOL     OW13027   3.504   7.709   8.559 -0.2311  0.0152  0.6632
 4150SOL    HW113028   3.571   7.776   8.570 -0.5008  0.6396 -1.1611
 4150SOL    HW213029   3.552   7.630   8.537 -0.0476  0.2607  0.1812
 4151SOL     OW13030   0.311   4.288   4.443 -0.0356 -0.2482  0.1451
 4151SOL    HW113031   0.359   4.302   4.525 -0.0125 -1.1477  0.2993
 4151SOL    HW213032   0.355   4.343   4.379 -0.9534  1.6290  1.0351
 4152SOL     OW13033   2.316   7.908   8.781 -0.1907  0.1996  1.0215
 4152SOL    HW113034   2.313   7.976   8.714  0.4724 -0.2081  0.5637
 4152SOL    HW213035   2.402   7.921   8.823 -0.1103 -0.2857  1.0047
 4153SOL     OW13036   9.136   3.169   7.323 -0.8908  0.0989  0.2621
 4153SOL    HW113037   9.163   3.159   7.232  2.7399  2.3653  0.9121
 4153SOL    HW213038   9.100   3.083   7.347 -1.4063 -0.7431 -3.0583
 4154SOL     OW13039   5.953   6.422   9.067  0.2892  0.2668 -0.3636
 4154SOL    HW113040   6.004   6.483   9.120  1.9617 -0.5137 -0.9911
 4154SOL    HW213041   5.903   6.477   9.007 -1.9428  1.2050  2.1425
 4155SOL     OW13042   6.423   7.827   5.744  0.0926  0.1973 -0.5666
 4155SOL    HW113043   6.393   7.860   5.659  1.6727  1.6655 -0.6071
 4155SOL    HW213044   6.348   7.777   5.777 -0.2926 -1.1651 -3.1656
 4156SOL     OW13045   7.453   3.441   2.712 -0.0766  0.8184  1.0481
 4156SOL    HW113046   7.398   3.415   2.638  1.7609  0.8326 -0.3935
 4156SOL    HW213047   7.510   3.366   2.728  0.5201  1.3515  1.5016
 4157SOL     OW13048   6.648   3.037   8.107 -0.3685  0.4205 -0.2923
 4157SOL    HW113049   6.598   3.116   8.127  0.3246  1.8502 -3.5320
 4157SOL    HW213050   6.738   3.058   8.134 -0.4834 -0.0000  0.4576
 4158SOL     OW13051   3.969   7.401   0.000  0.7017  0.0636 -0.2175
 4158SOL    HW113052   4.053   7.362   0.024 -0.0871 -0.3906  2.1165
 4158SOL    HW213053   3.962   7.479   0.056 -1.7449 -1.6412  2.1597
 4159SOL     OW13054   4.543   6.354   0.703  0.0397  0.1872  0.2476
 4159SOL    HW113055   4.563   6.434   0.751  2.4111  0.3769 -0.8950
 4159SOL    HW213056   4.625   6.303   0.708 -1.4695 -2.3600  1.2183
 4160SOL     OW13057   5.100   2.869   4.199 -0.0713  0.2358 -0.4415
 4160SOL    HW113058   5.117   2.849   4.107 -0.3396 -0.2288 -0.3925
 4160SOL    HW213059   5.146   2.952   4.214  0.5237 -0.0202 -0.8157
 4161SOL     OW13060   8.788   3.681   6.208  0.0949 -0.4619  0.2610
 4161SOL    HW113061   8.767   3.592   6.237  0.1388  0.1241  2.2453
 4161SOL    HW213062   8.708   3.731   6.227  0.4440  0.1304  0.1829
 4162SOL     OW13063   2.812   2.181   3.787 -0.1828 -0.5484  0.9911
 4162SOL    HW113064   2.850   2.267   3.801 -0.8365 -0.2035  0.6903
 4162SOL    HW213065   2.815   2.168   3.692  0.8591 -1.3031  1.1177
 4163SOL     OW13066   8.203   4.564   4.608  0.7614 -0.1592 -0.1371
 4163SOL    HW113067   8.180   4.656   4.620 -1.6471 -0.8554  1.3242
 4163SOL    HW213068   8.255   4.542   4.685 -1.4634 -0.7501  1.2973
 4164SOL     OW13069   4.760   0.349   1.173 -0.5867  0.1885 -0.1767
 4164SOL    HW113070   4.788   0.440   1.173  1.4045 -0.3598 -0.9022
 4164SOL    HW213071   4.795   0.313   1.092 -0.2648 -1.5198  0.6666
 4165SOL     OW13072   3.011   7.883   8.535  0.7001 -0.5017  0.1209
 4165SOL    HW113073   3.106   7.892   8.528  0.6453 -0.0098 -0.0335
 4165SOL    HW213074   2.989   7.923   8.619  0.6636 -0.9278  0.3198
 4166SOL     OW13075   8.706   2.387   0.168 -0.0903  1.2079 -0.5338
 4166SOL    HW113076   8.675   2.394   0.078 -0.4747  1.3969 -0.3879
 4166SOL    HW213077   8.756   2.306   0.170 -0.8716  0.7157 -0.6846
 4167SOL     OW13078   7.258   1.376   0.470  0.1885  1.0025 -0.0006
 4167SOL    HW113079   7.251   1.281   0.472  0.1929  0.9965  1.9140
 4167SOL    HW213080   7.191   1.404   0.408 -0.8585 -0.1812  0.5451
 4168SOL     OW13081   0.262   6.356   1.509 -0.1390  0.2212  0.2550
 4168SOL    HW113082   0.179   6.352   1.462  0.3036  2.1112 -0.7682
 4168SOL    HW213083   0.250   6.424   1.575  0.3097 -0.1661  0.7541
 4169SOL     OW13084   6.726   5.468   2.106  0.3178 -0.6409  0.4997
 4169SOL    HW113085   6.642   5.468   2.060 -0.9670  0.7117  2.6096
 4169SOL    HW213086   6.785   5.420   2.050 -1.2501  0.3993 -2.2352
 4170SOL     OW13087   6.330   6.548   0.140 -0.0663 -0.1541 -0.2378
 4170SOL    HW113088   6.235   6.532   0.139 -0.2925  0.9069  0.8854
 4170SOL    HW213089   6.345   6.604   0.064 -0.6417  1.0184  0.4758
 4171SOL     OW13090   0.041   8.909   2.242 -0.0121 -0.5224 -0.2110
 4171SOL    HW113091   0.044   8.880   2.150  0.3103  1.8285 -1.0082
 4171SOL    HW213092   0.130   8.895   2.275  0.8175  1.6400 -1.3302
 4172SOL     OW13093   7.541   8.778   1.145  0.2934 -0.2343  0.1698
 4172SOL    HW113094   7.541   8.807   1.236 -0.6020  0.7363 -0.1296
 4172SOL    HW213095   7.610   8.829   1.103 -0.4772  0.6260 -0.0827
 4173SOL     OW13096   7.066   5.599   0.794  0.5629  0.3315 -0.2495
 4173SOL    HW113097   7.102   5.573   0.879  0.5700  0.2813 -0.2681
 4173SOL    HW213098   6.971   5.601   0.808  0.5080 -0.4592 -0.4600
 4174SOL     OW13099   8.960   3.004   0.700  0.7558 -0.0936  0.2384
 4174SOL    HW113100   8.927   2.918   0.675  2.1615 -0.6945  0.3582
 4174SOL    HW213101   8.938   3.061   0.627  0.0142 -0.5995  0.0573
 4175SOL     OW13102   8.772   5.737   2.503 -0.0851 -0.6099 -0.1475
 4175SOL    HW113103   8.680   5.716   2.491 -0.2777 -1.0307  1.7414
 4175SOL    HW213104   8.771   5.817   2.556  0.6097 -1.2273  0.8229
 4176SOL     OW13105   9.328   9.578   5.997 -0.1682  0.4077 -0.1494
 4176SOL    HW113106   9.340   9.657   6.049  0.4201 -0.4423  1.0697
 4176SOL    HW213107   9.401   9.578   5.936  0.4872  0.2321  0.6250
 4177SOL     OW13108   4.809   6.848   9.815  0.1722  0.2750  0.0634
 4177SOL    HW113109   4.897   6.886   9.827  1.8707 -3.3055  0.4960
 4177SOL    HW213110   4.773   6.845   9.904  0.3810  0.1795  0.1470
 4178SOL     OW13111   7.766   1.315   7.343  0.3949  0.2109  0.1164
 4178SOL    HW113112   7.805   1.383   7.399  2.1956 -3.1125  3.3948
 4178SOL    HW213113   7.840   1.283   7.290 -0.5096  0.8997 -1.6421
 4179SOL     OW13114   6.940   9.391   8.858 -0.1889  0.4475  0.3200
 4179SOL    HW113115   6.977   9.304   8.849 -1.1356  0.1945 -1.5560
 4179SOL    HW213116   6.848   9.377   8.879 -0.4988  0.9691 -0.6431
 4180SOL     OW13117   1.179   1.883   4.864 -0.0776 -0.1196 -0.2181
 4180SOL    HW113118   1.142   1.901   4.778  0.8937 -0.2473 -0.6802
 4180SOL    HW213119   1.103   1.867   4.920 -0.7028 -0.6916 -1.1981
 4181SOL     OW13120   4.651   1.239   5.261  0.4567  0.0491  0.1614
 4181SOL    HW113121   4.661   1.157   5.309  1.1133  0.9681  1.6435
 4181SOL    HW213122   4.740   1.268   5.244  0.2257  0.6316 -0.0730
 4182SOL     OW13123   6.074   9.534   8.963 -0.3895  0.6271 -0.2379
 4182SOL    HW113124   6.070   9.619   9.006 -0.9020  0.3898  0.1992
 4182SOL    HW213125   6.125   9.479   9.023  1.7364  1.1482 -1.4575
 4183SOL     OW13126   1.623   6.210   5.917 -0.3445 -0.1956 -0.8443
 4183SOL    HW113127   1.656   6.294   5.887 -0.4472 -0.4053 -1.5676
 4183SOL    HW213128   1.702   6.158   5.933 -0.2679  0.1753  0.0398
 4184SOL     OW13129   4.778   1.522   3.690  0.0245 -0.1946 -0.6517
 4184SOL    HW113130   4.809   1.435   3.662  0.0793 -0.3055 -0.2650
 4184SOL    HW213131   4.855   1.562   3.730 -0.5332 -0.8593  1.2273
 4185SOL     OW13132   6.873   0.217   3.796 -0.1176 -0.3344  0.2480
 4185SOL    HW113133   6.894   0.308   3.772 -0.6947 -0.4154 -0.6351
 4185SOL    HW213134   6.913   0.165   3.727  0.2446 -0.7620  0.7758
 4186SOL     OW13135   5.170   3.579   7.016 -0.0037  0.2914  0.4027
 4186SOL    HW113136   5.211   3.624   7.090  0.5286 -0.2828  0.4604
 4186SOL    HW213137   5.204   3.624   6.939 -0.8654  1.1547  0.4909
 4187SOL     OW13138   1.217   9.668   8.503 -0.1534 -0.1821 -0.2980
 4187SOL    HW113139   1.143   9.719   8.469 -0.2980 -0.1876  0.0022
 4187SOL    HW213140   1.261   9.636   8.425  0.4812  1.1609 -0.5256
 4188SOL     OW13141   8.882   4.349   7.143 -0.3508  0.0573 -0.4854
 4188SOL    HW113142   8.824   4.425   7.142 -0.4998 -0.0538 -2.2361
 4188SOL    HW213143   8.939   4.364   7.219 -2.2797  0.4258  0.9642
 4189SOL     OW13144   0.035   2.438   2.484 -0.0175  0.2361 -0.0737
 4189SOL    HW113145  -0.050   2.398   2.467  0.5685 -1.0261 -0.1614
 4189SOL    HW213146   0.098   2.374   2.451  0.9925  0.5795  1.1306
 4190SOL     OW13147   6.542   8.644   1.504 -0.0847  0.2330 -0.0860
 4190SOL    HW113148   6.588   8.562   1.520 -2.0245 -1.2103 -1.3173
 4190SOL    HW213149   6.607   8.712   1.518  2.3220 -1.6274 -1.4616
 4191SOL     OW13150   3.932   2.899   6.526 -1.0218  0.0866  0.0436
 4191SOL    HW113151   3.891   2.838   6.464  1.1308  0.0825 -1.4795
 4191SOL    HW213152   3.962   2.844   6.598  0.7144 -0.7245 -1.2187
 4192SOL     OW13153   8.708   3.475   8.337  0.4679  0.0382  0.3576
 4192SOL    HW113154   8.613   3.469   8.329  0.5067 -0.6795  0.4186
 4192SOL    HW213155   8.727   3.440   8.424  0.7690  0.4151  0.4492
 4193SOL     OW13156   9.595   2.556   8.784  0.0060 -0.3187  0.3169
 4193SOL    HW113157   9.589   2.465   8.754  0.5453 -0.1031 -0.4530
 4193SOL    HW213158   9.674   2.559   8.837 -0.4241 -0.4687  0.9824
 4194SOL     OW13159   7.980   3.357   8.060  0.1913 -0.0790  0.2167
 4194SOL    HW113160   7.888   3.381   8.057 -0.3674 -2.0688 -0.7551
 4194SOL    HW213161   8.012   3.391   8.143 -1.5124  0.3158  0.7402
 4195SOL     OW13162   6.431   5.996   2.661 -0.4913 -0.0802  0.7957
 4195SOL    HW113163   6.346   6.036   2.683 -0.7477 -0.4781  0.5491
 4195SOL    HW213164   6.457   5.951   2.741 -0.8659 -0.5586  0.6588
 4196SOL     OW13165   8.719   1.451   3.645 -0.2240 -0.2139  0.5572
 4196SOL    HW113166   8.739   1.370   3.599  1.5894  0.4036  0.1515
 4196SOL    HW213167   8.707   1.425   3.736 -1.9010 -1.1894  0.0989
 4197SOL     OW13168   2.008   9.559   1.844 -0.4782  0.6898 -0.4279
 4197SOL    HW113169   2.056   9.477   1.834 -0.4857  0.3825  1.4981
 4197SOL    HW213170   2.073   9.627   1.828 -0.4326  0.3221 -1.8886
 4198SOL     OW13171   1.867   5.305   8.640  0.6116 -0.3179  0.0951
 4198SOL    HW113172   1.843   5.246   8.712  1.1594 -0.9962 -0.2727
 4198SOL    HW213173   1.961   5.292   8.628  1.0422  1.6181  0.8892
 4199SOL     OW13174   1.218   4.158   1.964  0.0821  0.0954 -0.6174
 4199SOL    HW113175   1.264   4.242   1.975 -0.4428  0.5867 -1.9593
 4199SOL    HW213176   1.267   4.113   1.895  0.3870 -0.7408  0.1278
 4200SOL     OW13177   0.711   2.870   7.132  0.4299 -0.2760 -0.4713
 4200SOL    HW113178   0.693   2.794   7.076  0.1633 -0.4446 -0.1565
 4200SOL    HW213179   0.695   2.839   7.221 -1.3813  0.6321 -0.4431
 4201SOL     OW13180   7.714   9.061   6.071  0.0118  0.0596 -0.0366
 4201SOL    HW113181   7.687   9.026   6.157  0.6923  1.3592  0.7358
 4201SOL    HW213182   7.748   8.985   6.024 -0.3983 -0.6838  0.8256
 4202SOL     OW13183   6.342   1.857   3.643  0.4549 -0.2293 -0.0134
 4202SOL    HW113184   6.271   1.804   3.608  1.1949 -1.0254 -0.3490
 4202SOL    HW213185   6.413   1.795   3.660  1.1445  0.5657  0.1283
 4203SOL     OW13186   5.034   1.884   5.903 -0.3258 -0.3443  0.3018
 4203SOL    HW113187   4.960   1.930   5.944 -0.6628  0.0710 -0.7376
 4203SOL    HW213188   5.096   1.954   5.883 -0.2037 -0.5329  0.0301
 4204SOL     OW13189   0.248   4.655   1.074  1.0172  0.9108  0.0084
 4204SOL    HW113190   0.173   4.700   1.035  0.5785  0.0155 -0.2119
 4204SOL    HW213191   0.251   4.687   1.164  0.3233  0.9166  0.0379
 4205SOL     OW13192   0.272   5.281   9.048  0.1733 -0.1298 -0.1637
 4205SOL    HW113193   0.233   5.365   9.071  0.5237  0.8259 -2.7415
 4205SOL    HW213194   0.203   5.235   9.000  0.5676 -0.5677 -0.3149
 4206SOL     OW13195   1.767   7.254   1.465 -0.5851  0.5295  0.2054
 4206SOL    HW113196   1.728   7.173   1.498  0.8611 -0.7661 -1.0814
 4206SOL    HW213197   1.801   7.298   1.544 -2.3691  0.4894  1.0492
 4207SOL     OW13198   9.494   6.904   4.239 -0.0770  0.1965 -0.2346
 4207SOL    HW113199   9.521   6.815   4.264 -2.8997 -2.0260 -4.0539
 4207SOL    HW213200   9.436   6.932   4.310  0.3575 -1.2832  0.7524
 4208SOL     OW13201   1.437   2.527   0.511  0.5245 -0.4596 -0.4459
 4208SOL    HW113202   1.348   2.555   0.492  0.8959  1.8304  0.7706
 4208SOL    HW213203   1.485   2.544   0.430  0.0529 -0.8172 -0.8073
 4209SOL     OW13204   1.842   1.614   0.499  0.0926 -0.2241  0.5204
 4209SOL    HW113205   1.818   1.672   0.426 -0.6834  1.0303  1.7201
 4209SOL    HW213206   1.919   1.568   0.468  0.2779  0.8856 -0.7932
 4210SOL     OW13207   1.106   6.445   9.854 -0.3618 -0.5297 -0.2596
 4210SOL    HW113208   1.196   6.433   9.824 -0.2238 -0.7070  0.2153
 4210SOL    HW213209   1.091   6.372   9.914 -0.3051  0.3407  0.8451
 4211SOL     OW13210   3.996   3.723   7.185 -0.4791  0.4196 -0.5681
 4211SOL    HW113211   4.073   3.738   7.239 -1.4594  0.8882  0.7695
 4211SOL    HW213212   4.022   3.655   7.123  0.6297 -0.3283  0.6721
 4212SOL     OW13213   8.141   3.967   5.954  0.5969 -0.2957  0.2178
 4212SOL    HW113214   8.189   4.039   5.995  1.3385 -0.3869 -0.4661
 4212SOL    HW213215   8.185   3.954   5.870 -0.4360 -0.5963 -0.2899
 4213SOL     OW13216   6.470   1.826   0.841  0.4740 -0.3110  0.2076
 4213SOL    HW113217   6.461   1.735   0.813  3.4635 -0.3495 -0.9717
 4213SOL    HW213218   6.476   1.875   0.760  1.1687  0.6451  0.8265
 4214SOL     OW13219   8.811   7.576   3.748 -0.3765 -0.1440 -0.1625
 4214SOL    HW113220   8.886   7.527   3.715  0.2852 -0.0786  1.1930
 4214SOL    HW213221   8.735   7.535   3.707  0.1456 -2.3248  0.9168
 4215SOL     OW13222   5.192   4.494   7.478 -0.7083 -0.6785  0.3267
 4215SOL    HW113223   5.162   4.534   7.560  1.4923 -0.5838  1.1521
 4215SOL    HW213224   5.230   4.566   7.429 -0.5911 -1.0149 -0.0772
 4216SOL     OW13225   5.270   7.022   7.829  0.1837  0.4197  0.1172
 4216SOL    HW113226   5.295   6.934   7.857  0.4784  0.5082  0.1258
 4216SOL    HW213227   5.175   7.016   7.816  0.2931 -0.0806 -0.5332
 4217SOL     OW13228   1.588   2.926   8.501 -0.2744  0.5961  0.0551
 4217SOL    HW113229   1.555   2.965   8.582 -0.9677  0.9086 -0.3670
 4217SOL    HW213230   1.650   2.991   8.467 -1.2828  1.2832 -0.5466
 4218SOL     OW13231   1.301   9.833   2.792  0.6491  0.3700  0.2078
 4218SOL    HW113232   1.235   9.770   2.762  0.5113  2.0013 -3.5097
 4218SOL    HW213233   1.384   9.794   2.765  0.6865  0.9980 -0.6162
 4219SOL     OW13234   3.122   3.290   1.004 -0.1096  0.2092 -0.0064
 4219SOL    HW113235   3.203   3.261   0.962 -0.1732  1.0140 -0.7038
 4219SOL    HW213236   3.130   3.260   1.095  0.6784 -0.2859 -0.2333
 4220SOL     OW13237   2.114   7.040   9.029 -0.4696  0.6997  0.2697
 4220SOL    HW113238   2.110   7.040   8.933 -1.3714  2.2805  0.2848
 4220SOL    HW213239   2.194   7.087   9.050 -0.9511  1.5333  0.2846
 4221SOL     OW13240   4.827   8.688   0.887 -1.3130  0.3776 -0.8045
 4221SOL    HW113241   4.909   8.639   0.877 -0.8664  1.0351 -0.3963
 4221SOL    HW213242   4.788   8.653   0.967 -1.1823  0.4256 -0.7206
 4222SOL     OW13243   2.236   4.849   4.314 -0.0230  0.5251  0.1316
 4222SOL    HW113244   2.275   4.890   4.390  0.5226  0.0424  0.1218
 4222SOL    HW213245   2.310   4.835   4.254 -0.1855 -0.4997  0.1584
 4223SOL     OW13246   4.419   7.021   3.751  0.1836 -0.0054  0.3280
 4223SOL    HW113247   4.346   7.070   3.714  0.6576 -0.6711 -1.6318
 4223SOL    HW213248   4.398   7.011   3.844 -0.2466  3.2817  0.7029
 4224SOL     OW13249   2.588   0.823   1.281  0.4477  0.3471 -0.7545
 4224SOL    HW113250   2.500   0.834   1.244  0.6355 -0.0075 -1.3167
 4224SOL    HW213251   2.625   0.911   1.283 -0.0717  0.5598 -0.1265
 4225SOL     OW13252   0.236   7.188   9.527 -0.2298  0.0556  0.6620
 4225SOL    HW113253   0.183   7.229   9.459  1.0605  0.4887 -0.1081
 4225SOL    HW213254   0.237   7.095   9.503 -0.9816 -0.0378  0.9405
 4226SOL     OW13255   8.074   6.348   0.063  0.0877  0.1771 -0.3320
 4226SOL    HW113256   8.078   6.436   0.026 -2.5696  0.0617 -1.1295
 4226SOL    HW213257   8.077   6.361   0.157 -1.0086  1.2355 -0.4193
 4227SOL     OW13258   4.100   5.660   1.091  0.3203 -0.0063 -0.4195
 4227SOL    HW113259   4.072   5.751   1.092 -0.4205 -0.1990 -1.4204
 4227SOL    HW213260   4.027   5.612   1.129  1.1382 -0.1041  1.1097
 4228SOL     OW13261   8.064   1.063   3.908  0.3825 -0.3607  0.0343
 4228SOL    HW113262   8.031   0.975   3.924 -1.1105 -0.0896 -1.2495
 4228SOL    HW213263   8.158   1.057   3.924  0.0555 -1.7291  1.7004
 4229SOL     OW13264   7.549   7.872   3.431  0.0087 -0.0722 -0.0515
 4229SOL    HW113265   7.497   7.821   3.493  0.7800 -1.1725 -0.2749
 4229SOL    HW213266   7.501   7.865   3.348  0.3053 -0.7571 -0.1682
 4230SOL     OW13267   0.450   0.017   0.760 -0.3608  0.2375  0.2991
 4230SOL    HW113268   0.385  -0.043   0.723  0.9676 -2.2381  1.7645
 4230SOL    HW213269   0.418   0.035   0.848  0.0800  0.3875  0.4290
 4231SOL     OW13270   4.691   3.575   4.048 -0.4109 -0.2838 -0.3375
 4231SOL    HW113271   4.645   3.655   4.073  0.3048 -0.3733  1.4184
 4231SOL    HW213272   4.772   3.606   4.008 -1.0042 -0.1450 -1.4749
 4232SOL     OW13273   2.016   4.919   6.620 -0.0833  0.2116 -0.2220
 4232SOL    HW113274   1.993   5.003   6.660 -1.2602 -0.8043  1.3677
 4232SOL    HW213275   2.082   4.881   6.678  1.4737  0.5850 -1.6716
 4233SOL     OW13276   8.917   0.325   1.929  0.2376 -0.1515  0.2032
 4233SOL    HW113277   8.833   0.297   1.893  0.7556 -1.1988 -0.2232
 4233SOL    HW213278   8.938   0.258   1.995  0.6028  0.2632  0.5140
 4234SOL     OW13279   9.653   6.439   3.349  0.0183  0.1679  0.0879
 4234SOL    HW113280   9.570   6.430   3.302 -0.4450 -0.1482  0.9472
 4234SOL    HW213281   9.628   6.435   3.441  1.2261 -2.4210  0.3860
 4235SOL     OW13282   1.110   4.986   4.397 -0.1553  0.3919 -0.4684
 4235SOL    HW113283   1.178   4.932   4.437 -0.7960  0.5942  0.9630
 4235SOL    HW213284   1.075   4.932   4.326  1.8083  0.4907 -1.5922
 4236SOL     OW13285   7.682   4.795   7.220 -0.6484  0.8467 -1.3050
 4236SOL    HW113286   7.604   4.827   7.175 -1.4554  0.2440 -0.3657
 4236SOL    HW213287   7.654   4.780   7.310 -0.1155 -1.7598 -1.5004
 4237SOL     OW13288   5.083   6.769   7.570 -0.2867  0.4591 -0.4301
 4237SOL    HW113289   5.167   6.783   7.527 -0.3787  3.3160  0.1018
 4237SOL    HW213290   5.100   6.701   7.635  1.3138  0.2289 -1.0462
 4238SOL     OW13291   9.855   4.706   4.146  0.0052 -0.2830  0.1319
 4238SOL    HW113292   9.887   4.780   4.198  0.7708 -1.0366  0.7596
 4238SOL    HW213293   9.867   4.734   4.055 -1.0970  0.9405  0.3199
 4239SOL     OW13294   3.608   6.173   3.386  0.1124  0.4496 -0.6464
 4239SOL    HW113295   3.603   6.089   3.432 -0.9520  2.0532  2.3926
 4239SOL    HW213296   3.521   6.185   3.349 -0.2480  0.8935  0.3070
 4240SOL     OW13297   1.878   5.589   2.833  0.8777 -0.3367 -0.7806
 4240SOL    HW113298   1.937   5.633   2.894  1.8507 -1.5523 -0.8205
 4240SOL    HW213299   1.827   5.661   2.794 -0.7160  0.3886  2.3510
 4241SOL     OW13300   6.043   7.739   4.839 -0.0528  0.0909 -0.0571
 4241SOL    HW113301   6.053   7.833   4.853 -0.0383 -0.0955  1.3793
 4241SOL    HW213302   6.132   7.706   4.828  0.1664 -0.0618  1.8562
 4242SOL     OW13303   1.134   5.306   6.687 -0.5344  0.6577  0.2258
 4242SOL    HW113304   1.122   5.259   6.604  0.0608  1.4114 -0.3037
 4242SOL    HW213305   1.184   5.246   6.742 -0.5030  0.3468 -0.1389
 4243SOL     OW13306   6.201   4.785   0.436 -0.2411  0.1020  0.4155
 4243SOL    HW113307   6.239   4.839   0.505 -0.9834  0.0404  0.8844
 4243SOL    HW213308   6.170   4.848   0.370 -0.9983  0.2432  0.9043
 4244SOL     OW13309   9.778   4.841   6.887 -0.1654 -0.2507 -0.3321
 4244SOL    HW113310   9.871   4.818   6.883 -0.0232  0.4203 -1.2099
 4244SOL    HW213311   9.737   4.787   6.819 -0.4693 -0.7148  0.2070
 4245SOL     OW13312   1.672   1.657   4.716  0.4798  0.2249  0.2077
 4245SOL    HW113313   1.669   1.623   4.627 -0.6624  1.0294 -0.0801
 4245SOL    HW213314   1.583   1.689   4.733  0.4314 -0.7061  1.9546
 4246SOL     OW13315   9.073   1.484   9.038  0.0078  0.0626 -0.0908
 4246SOL    HW113316   9.112   1.400   9.061 -0.9127 -0.1534  0.7412
 4246SOL    HW213317   9.135   1.523   8.976  0.6283 -1.0574 -0.2035
 4247SOL     OW13318   3.874   0.008   6.779 -0.3987 -0.2055 -0.4954
 4247SOL    HW113319   3.919  -0.067   6.739  0.2228  0.3992 -0.9398
 4247SOL    HW213320   3.943   0.073   6.792 -0.8815  0.1799  0.1694
 4248SOL     OW13321   8.698   5.720   8.896  0.1304 -0.3163 -0.1293
 4248SOL    HW113322   8.611   5.681   8.887  1.0321 -1.9480 -2.7319
 4248SOL    HW213323   8.690   5.807   8.857 -0.4488 -0.2525  0.1259
 4249SOL     OW13324   4.614   1.883   7.908 -0.3649  0.1923  0.1791
 4249SOL    HW113325   4.709   1.867   7.906 -0.3000  0.4623 -2.7297
 4249SOL    HW213326   4.604   1.971   7.874 -1.6751  0.3569  0.9256
 4250SOL     OW13327   4.190   2.420   3.798 -0.0635 -0.6058 -0.5081
 4250SOL    HW113328   4.159   2.499   3.755 -2.2677 -0.9162  0.3387
 4250SOL    HW213329   4.259   2.449   3.856  0.8870  0.2685 -1.9993
 4251SOL     OW13330   2.501   4.131   3.259  0.4358 -0.0573  0.0391
 4251SOL    HW113331   2.521   4.184   3.336  0.9919  0.2230 -0.2916
 4251SOL    HW213332   2.586   4.094   3.233  0.2729 -0.0453 -0.5125
 4252SOL     OW13333   5.237   3.243   5.749 -0.2043 -0.3680  0.7772
 4252SOL    HW113334   5.267   3.295   5.824 -1.7060  0.1702  1.0424
 4252SOL    HW213335   5.224   3.308   5.679 -0.0852 -0.6819  0.4614
 4253SOL     OW13336   0.902   5.763   8.686  0.3858 -0.1733 -0.6003
 4253SOL    HW113337   0.810   5.747   8.710 -0.2891  0.4233 -2.5897
 4253SOL    HW213338   0.950   5.690   8.724 -1.2104 -1.6084 -1.1969
 4254SOL     OW13339   2.553   0.210   7.872 -0.1609  0.3937  0.6104
 4254SOL    HW113340   2.610   0.271   7.918  1.0732 -1.1781  1.2541
 4254SOL    HW213341   2.517   0.154   7.940  2.9722 -3.0455 -0.2456
 4255SOL     OW13342   0.221   1.278   6.624 -0.4951 -0.4149 -0.0132
 4255SOL    HW113343   0.241   1.366   6.591 -1.1685  0.0313  0.7390
 4255SOL    HW213344   0.303   1.230   6.615  0.2903  0.7181  0.9004
 4256SOL     OW13345   7.145   8.050   8.945 -0.0799  0.0164 -0.1038
 4256SOL    HW113346   7.067   8.005   8.977  0.2317 -0.7313 -0.3738
 4256SOL    HW213347   7.164   8.116   9.011 -1.1803  0.4814 -0.2362
 4257SOL     OW13348   3.661   3.644   4.637  0.2779  0.0102 -0.4552
 4257SOL    HW113349   3.731   3.591   4.675 -0.3921 -0.5402  0.0461
 4257SOL    HW213350   3.622   3.690   4.712  1.0693  1.4938 -0.9307
 4258SOL     OW13351   8.790   6.910   3.119 -0.4378 -0.5922 -0.1504
 4258SOL    HW113352   8.794   6.898   3.025 -0.0841 -0.9763 -0.0919
 4258SOL    HW213353   8.731   6.984   3.132 -1.0771 -1.0046 -0.6382
 4259SOL     OW13354   3.025   6.307   8.418  0.7799  0.2555  0.2159
 4259SOL    HW113355   2.959   6.349   8.362 -0.1906 -1.4481  0.0177
 4259SOL    HW213356   3.038   6.369   8.489 -0.7370  0.8288  0.0391
 4260SOL     OW13357   8.563   3.021   2.956 -0.1510  0.4906 -0.5688
 4260SOL    HW113358   8.468   3.028   2.966 -0.3150 -0.9822 -0.8645
 4260SOL    HW213359   8.594   2.988   3.041 -0.0200  0.1098 -0.7619
 4261SOL     OW13360   2.527   1.548   6.291  0.2964  0.6367 -0.2094
 4261SOL    HW113361   2.526   1.559   6.386  0.5271 -2.4455  0.2693
 4261SOL    HW213362   2.613   1.581   6.264  0.1273  1.7724  0.5981
 4262SOL     OW13363   2.301   8.993   9.731  0.4111 -0.0600  0.1097
 4262SOL    HW113364   2.339   9.066   9.682 -0.1526  0.5804  0.6090
 4262SOL    HW213365   2.329   9.007   9.822 -1.0300  0.4707  0.5086
 4263SOL     OW13366   2.444   6.823   5.671  0.0426  0.1245 -0.0586
 4263SOL    HW113367   2.423   6.760   5.603  0.2457 -0.1564  0.1376
 4263SOL    HW213368   2.424   6.908   5.632  0.9998  0.0299 -0.7911
 4264SOL     OW13369   2.850   1.267   0.109  0.3796 -0.3397  0.1586
 4264SOL    HW113370   2.792   1.205   0.153  0.4871 -0.0430  0.7252
 4264SOL    HW213371   2.938   1.231   0.120  0.2528 -1.1490 -1.2976
 4265SOL     OW13372   5.032   3.038   2.356  0.7837  0.5288  0.5166
 4265SOL    HW113373   4.951   3.014   2.310  0.6393 -0.0922  1.0938
 4265SOL    HW213374   5.097   3.048   2.286  0.1199  1.4335  0.0109
 4266SOL     OW13375   7.282   4.429   5.429  0.8739 -0.3034 -0.3528
 4266SOL    HW113376   7.197   4.472   5.436  1.5643  0.8696  2.0295
 4266SOL    HW213377   7.296   4.417   5.335 -1.0690  1.1824 -0.8856
 4267SOL     OW13378   8.323   4.608   0.276  0.2547  0.7641 -0.2264
 4267SOL    HW113379   8.409   4.617   0.235 -0.4016  0.0334 -1.8848
 4267SOL    HW213380   8.272   4.680   0.241  0.1356  1.1126  0.6442
 4268SOL     OW13381   2.773   0.023   9.204  0.3296 -0.4522  0.0343
 4268SOL    HW113382   2.842  -0.043   9.197  0.4542 -0.3085 -0.1118
 4268SOL    HW213383   2.764   0.058   9.115 -0.7633 -1.3037 -0.2037
 4269SOL     OW13384   1.336   9.618   9.912  0.2638  0.1134  0.2644
 4269SOL    HW113385   1.260   9.616   9.853  1.5732 -2.0978 -1.5234
 4269SOL    HW213386   1.300   9.604   9.999 -1.4450 -0.3891 -0.4850
 4270SOL     OW13387   3.072   8.444   0.848 -0.6591  0.2313 -0.2244
 4270SOL    HW113388   3.056   8.434   0.942 -1.9691  0.4431 -0.3983
 4270SOL    HW213389   3.056   8.537   0.831  3.6226  1.1804  0.0180
 4271SOL     OW13390   4.360   2.043   1.863 -0.1656 -0.1692 -0.3720
 4271SOL    HW113391   4.440   2.081   1.900  0.6758 -0.8724 -1.3831
 4271SOL    HW213392   4.368   2.058   1.769  0.6720 -3.5077 -0.9719
 4272SOL     OW13393   2.693   3.007   2.707 -0.1182  0.1008 -0.5429
 4272SOL    HW113394   2.775   2.998   2.755 -0.3956 -2.9338 -0.4426
 4272SOL    HW213395   2.712   2.969   2.621 -1.4052 -0.6853 -0.5017
 4273SOL     OW13396   3.388   3.098   1.532  0.2053  0.1642 -0.0852
 4273SOL    HW113397   3.365   3.123   1.621 -2.8552  0.3698 -0.8143
 4273SOL    HW213398   3.434   3.015   1.541 -0.8504 -0.2700  1.6474
 4274SOL     OW13399   4.983   9.224   4.906 -0.1646 -0.2639  0.1930
 4274SOL    HW113400   5.034   9.149   4.876 -1.0880 -1.1135  0.6982
 4274SOL    HW213401   4.928   9.248   4.832  1.1971  0.9112 -0.4935
 4275SOL     OW13402  -0.034   4.083   0.430  0.3760 -0.4440 -0.0498
 4275SOL    HW113403   0.035   4.017   0.437  0.5019 -0.3457 -0.3565
 4275SOL    HW213404   0.011   4.166   0.447 -0.1144 -0.5731  2.2341
 4276SOL     OW13405   9.055   6.780   4.189  0.2245 -0.1876  1.0971
 4276SOL    HW113406   9.122   6.820   4.245 -2.3619  1.2981  3.3986
 4276SOL    HW213407   9.075   6.687   4.189  0.0328 -0.3858  5.2072
 4277SOL     OW13408   0.632   3.007   9.170 -0.1136  0.0534 -0.4297
 4277SOL    HW113409   0.615   3.046   9.255  0.3995  0.8395 -0.6672
 4277SOL    HW213410   0.604   2.916   9.178  0.8652 -0.1634  0.8929
 4278SOL     OW13411   9.325   2.321   2.246 -0.1417  0.5139  0.1387
 4278SOL    HW113412   9.312   2.227   2.240 -1.2956  0.6479  0.3457
 4278SOL    HW213413   9.406   2.331   2.296  0.9982 -0.3681 -1.4156
 4279SOL     OW13414   0.454   5.350   3.810  0.1329 -0.0623  0.0873
 4279SOL    HW113415   0.444   5.440   3.778  0.1813  0.2410  0.8973
 4279SOL    HW213416   0.366   5.325   3.838  0.1320 -0.2408 -0.0784
 4280SOL     OW13417   9.012   4.853   4.978  0.2837  0.4586  0.0779
 4280SOL    HW113418   8.964   4.834   4.898  0.1081 -0.9105  0.4753
 4280SOL    HW213419   9.091   4.898   4.949  0.4304 -0.4129 -0.9218
 4281SOL     OW13420   0.435   8.865   9.765  0.0402 -0.1684 -0.7087
 4281SOL    HW113421   0.455   8.939   9.708 -1.0822 -0.7173 -1.8674
 4281SOL    HW213422   0.509   8.806   9.756  0.4145  0.2860 -0.6546
 4282SOL     OW13423   6.324   9.006   4.172  0.1864  0.0231 -0.5287
 4282SOL    HW113424   6.273   8.945   4.117 -0.4912 -0.0402  0.1479
 4282SOL    HW213425   6.343   9.080   4.114 -1.6437  0.5604 -0.5319
 4283SOL     OW13426   5.907   1.888   8.843 -0.1789  0.0405  0.1465
 4283SOL    HW113427   5.908   1.837   8.762  2.1433  1.4423 -0.8024
 4283SOL    HW213428   5.892   1.978   8.814  2.0032  0.7645  1.0708
 4284SOL     OW13429   9.152   0.513   4.004 -0.3929  0.5002  0.1576
 4284SOL    HW113430   9.227   0.571   3.987 -1.1793  1.9220  1.2546
 4284SOL    HW213431   9.094   0.565   4.060 -2.1559 -0.5981 -0.5632
 4285SOL     OW13432   5.724   5.052   0.411  0.0389  0.2744 -0.4250
 4285SOL    HW113433   5.701   5.123   0.351 -0.9349 -0.0021 -0.4024
 4285SOL    HW213434   5.759   5.096   0.489 -3.0930  0.9692  0.7441
 4286SOL     OW13435   8.694   0.288   2.330  0.1332  0.5733  0.3339
 4286SOL    HW113436   8.719   0.199   2.352  1.0312  0.6279 -0.3440
 4286SOL    HW213437   8.703   0.337   2.411 -0.1408  0.0849  0.6566
 4287SOL     OW13438   1.848   9.215   9.167  0.3063 -0.1942 -0.4030
 4287SOL    HW113439   1.843   9.247   9.257 -0.6879 -3.7571  0.9851
 4287SOL    HW213440   1.928   9.161   9.165 -0.4609 -1.3533 -1.1427
 4288SOL     OW13441   1.581   9.173   9.192  0.3935 -0.0223 -0.2554
 4288SOL    HW113442   1.510   9.232   9.166 -0.0110 -0.1781  0.4436
 4288SOL    HW213443   1.658   9.206   9.147  0.1541  0.9718  0.0314
 4289SOL     OW13444   5.489   6.032   3.181  0.2845 -0.4473 -0.1486
 4289SOL    HW113445   5.502   5.939   3.165 -1.5884 -1.2054  2.1985
 4289SOL    HW213446   5.405   6.052   3.141 -0.6714 -0.4926  1.7577
 4290SOL     OW13447   7.740   8.864   3.571  0.0588 -0.3381 -0.3143
 4290SOL    HW113448   7.733   8.933   3.637 -0.7596 -0.1143 -0.6177
 4290SOL    HW213449   7.811   8.892   3.514  1.5936 -1.1210  1.1288
 4291SOL     OW13450   2.747   5.320   4.195 -0.1211 -0.2113  0.2232
 4291SOL    HW113451   2.694   5.395   4.171 -0.8216 -1.2268 -1.6432
 4291SOL    HW213452   2.829   5.331   4.145 -0.2806 -0.7301 -0.1644
 4292SOL     OW13453   9.636   2.454   8.351  0.4793 -0.9026  0.9289
 4292SOL    HW113454   9.598   2.470   8.265  0.2416  0.9866  1.3437
 4292SOL    HW213455   9.699   2.525   8.364  3.2505 -3.1918  0.8409
 4293SOL     OW13456   7.848   2.739   4.844 -0.4534 -0.4095  0.6249
 4293SOL    HW113457   7.781   2.757   4.778 -1.1912  0.9097  1.6621
 4293SOL    HW213458   7.874   2.825   4.875  1.0353 -0.9542  0.9375
 4294SOL     OW13459   2.031   2.385   5.120  0.4953 -0.6164  1.0188
 4294SOL    HW113460   1.936   2.393   5.122  0.4611 -1.0908  2.2713
 4294SOL    HW213461   2.063   2.465   5.160  0.6216 -0.5172  0.7219
 4295SOL     OW13462   3.936   7.327   4.172 -0.4175  0.1308 -0.0522
 4295SOL    HW113463   3.919   7.405   4.226 -0.0152  0.0801  0.1509
 4295SOL    HW213464   3.891   7.345   4.089  0.3386  0.9332 -0.3007
 4296SOL     OW13465   8.721   8.808   7.744 -0.1682  0.2736 -0.4252
 4296SOL    HW113466   8.736   8.715   7.727  0.1054  0.3792 -0.7923
 4296SOL    HW213467   8.719   8.815   7.839 -1.8841 -0.3739 -0.3711
 4297SOL     OW13468   6.601   9.264   9.147 -0.8065  0.2471  0.0481
 4297SOL    HW113469   6.615   9.343   9.094  1.3527  1.3545  2.0747
 4297SOL    HW213470   6.679   9.211   9.133  0.5466  1.2220  2.9954
 4298SOL     OW13471   1.888   0.080   1.344 -0.0785  0.4801  0.1074
 4298SOL    HW113472   1.940   0.002   1.364 -0.9528  0.2230  1.5327
 4298SOL    HW213473   1.931   0.151   1.390 -0.3494  0.4715  0.3796
 4299SOL     OW13474   1.982   2.684   0.390  0.2535  0.3333 -0.1362
 4299SOL    HW113475   2.048   2.645   0.447  0.9199  0.5480 -0.7521
 4299SOL    HW213476   2.006   2.777   0.386  1.1380  0.0663 -1.9780
 4300SOL     OW13477   9.421   9.718   8.869 -0.1148  0.4110 -0.4657
 4300SOL    HW113478   9.426   9.710   8.964 -1.8558  1.5613 -0.2368
 4300SOL    HW213479   9.482   9.652   8.836  0.7632  0.2148  1.4396
 4301SOL     OW13480   2.401   4.038   9.714  0.2191 -0.0245  0.4607
 4301SOL    HW113481   2.496   4.050   9.706  0.3845  0.1906  2.2375
 4301SOL    HW213482   2.380   4.072   9.801 -1.2730 -1.3108  0.6490
 4302SOL     OW13483   8.941   4.665   5.853 -0.3114  0.2588  0.7031
 4302SOL    HW113484   8.997   4.597   5.890  0.3282  0.3952 -0.0012
 4302SOL    HW213485   9.001   4.731   5.819 -0.8951  0.4056 -0.0710
 4303SOL     OW13486   9.551   5.300   3.654  0.5704  0.1066 -0.8776
 4303SOL    HW113487   9.547   5.285   3.748 -2.1299  1.5905 -0.6291
 4303SOL    HW213488   9.489   5.237   3.617  1.0079  0.0688 -1.5754
 4304SOL     OW13489   4.643   7.805   0.363  0.2231 -0.3209 -0.4185
 4304SOL    HW113490   4.561   7.773   0.324 -0.7173 -0.5802  1.6157
 4304SOL    HW213491   4.707   7.798   0.293 -1.2395 -1.2261 -1.7429
 4305SOL     OW13492   9.381   3.220   3.335  0.1319 -0.5340 -0.2731
 4305SOL    HW113493   9.327   3.264   3.269  3.3822  0.0958 -2.7682
 4305SOL    HW213494   9.388   3.130   3.304  1.4105 -0.3240 -0.6198
 4306SOL     OW13495   8.756   0.207   6.361 -0.0953  0.2280  0.1448
 4306SOL    HW113496   8.817   0.144   6.323 -1.3268 -1.2105  0.4462
 4306SOL    HW213497   8.702   0.155   6.420  0.6269  2.0892  2.5793
 4307SOL     OW13498   6.025   1.722   5.799  0.6122  0.1325  0.4461
 4307SOL    HW113499   5.939   1.727   5.756 -0.0547  0.8302  1.7770
 4307SOL    HW213500   6.088   1.726   5.728 -0.4144 -2.9828 -0.8560
 4308SOL     OW13501   2.139   3.896   7.600 -0.2764  0.1032  0.0690
 4308SOL    HW113502   2.044   3.880   7.602 -0.3964  0.7752  0.8011
 4308SOL    HW213503   2.150   3.963   7.533 -0.2436 -0.3995 -0.4286
 4309SOL     OW13504   8.517   7.308   5.328  0.1147  0.2404 -0.2376
 4309SOL    HW113505   8.448   7.344   5.272  0.3785  0.0464 -0.6958
 4309SOL    HW213506   8.561   7.384   5.365  1.4698  0.4682 -2.1748
 4310SOL     OW13507   2.848   9.899   0.627 -0.6429 -0.2724 -0.1093
 4310SOL    HW113508   2.844   9.973   0.567  1.8538  1.3050  1.4975
 4310SOL    HW213509   2.925   9.850   0.601  2.5134  2.2363  3.4234
 4311SOL     OW13510   1.859   1.503   6.003  0.5061 -0.3628  0.3659
 4311SOL    HW113511   1.780   1.550   5.975 -0.5418 -1.1624  1.8970
 4311SOL    HW213512   1.902   1.564   6.063  0.4009 -0.4255  0.5040
 4312SOL     OW13513   7.021   3.188   5.433 -0.2082 -0.1595  0.0544
 4312SOL    HW113514   7.010   3.279   5.403 -0.8030 -0.0531  0.5655
 4312SOL    HW213515   7.044   3.140   5.354 -5.1451 -0.5483 -1.5222
 4313SOL     OW13516   0.441   0.468   6.115 -0.2435  0.2788  0.3988
 4313SOL    HW113517   0.486   0.418   6.182  1.8781  0.3756 -0.8739
 4313SOL    HW213518   0.348   0.451   6.131  0.3106 -2.3134  1.3368
 4314SOL     OW13519   7.621   0.594   3.070  0.0700 -0.4058 -0.1291
 4314SOL    HW113520   7.689   0.651   3.035 -1.2912  1.8053  0.6690
 4314SOL    HW213521   7.539   0.636   3.045 -1.0127 -1.9111  0.6936
 4315SOL     OW13522   5.065   4.673   3.198  0.4783 -0.3764 -0.2180
 4315SOL    HW113523   4.997   4.740   3.202 -1.8838 -2.6429  0.4586
 4315SOL    HW213524   5.147   4.722   3.206 -1.1053  2.3496  0.8723
 4316SOL     OW13525   9.213   6.990   9.433 -0.0319 -0.0204 -0.1330
 4316SOL    HW113526   9.264   6.910   9.444  1.7320  0.8581 -1.2150
 4316SOL    HW213527   9.250   7.051   9.498 -0.4060  0.3256 -0.2393
 4317SOL     OW13528   6.084   7.321   2.670  0.1559  0.2350  0.0097
 4317SOL    HW113529   6.033   7.240   2.668  2.1353 -1.1684  1.4097
 4317SOL    HW213530   6.139   7.315   2.592 -0.4857  0.8072 -0.4907
 4318SOL     OW13531   5.925   5.792   8.776  0.1910  0.2913 -0.2779
 4318SOL    HW113532   6.008   5.751   8.752 -0.1204 -1.9654  2.0037
 4318SOL    HW213533   5.948   5.857   8.843  0.3518  1.7182 -1.6674
 4319SOL     OW13534   4.837   7.905   6.345  0.1215  0.3287  0.3751
 4319SOL    HW113535   4.794   7.830   6.305  0.1819  0.2698  0.4205
 4319SOL    HW213536   4.908   7.867   6.396 -1.4452  0.1819  2.5814
 4320SOL     OW13537   4.365   2.789   3.053 -0.6888  0.0652  0.4018
 4320SOL    HW113538   4.377   2.884   3.045 -0.2197 -0.0532 -0.3876
 4320SOL    HW213539   4.439   2.761   3.107  0.3751 -0.1106 -1.0795
 4321SOL     OW13540   4.006   7.379   2.247  0.4481  0.2642 -0.0196
 4321SOL    HW113541   4.017   7.287   2.225  0.4633  0.0683  0.7841
 4321SOL    HW213542   3.949   7.414   2.178  2.5957  0.3228 -1.9187
 4322SOL     OW13543   4.487   8.688   3.891  0.1281  0.1336 -0.2350
 4322SOL    HW113544   4.558   8.627   3.875 -1.0537 -1.2418 -0.4769
 4322SOL    HW213545   4.413   8.652   3.842 -0.8397  1.2966  0.3182
 4323SOL     OW13546   2.725   0.243   9.045  0.2586  0.6080  0.0013
 4323SOL    HW113547   2.747   0.312   9.108  0.7396 -0.2797  0.8363
 4323SOL    HW213548   2.694   0.290   8.968 -0.5297  1.7287  0.9679
 4324SOL     OW13549   7.342   8.377   2.072 -0.1467  0.0574  0.4353
 4324SOL    HW113550   7.336   8.320   1.995  0.8291  0.2613  0.1995
 4324SOL    HW213551   7.403   8.332   2.131  0.8746  0.9846  0.1175
 4325SOL     OW13552   6.204   9.295   1.912 -0.0595  0.4794 -0.1888
 4325SOL    HW113553   6.166   9.247   1.839  0.2138 -0.7400  0.4539
 4325SOL    HW213554   6.137   9.358   1.937 -0.6435  0.0671 -0.6933
 4326SOL     OW13555   8.720   9.357   5.871  0.6334  0.3803  0.3914
 4326SOL    HW113556   8.797   9.389   5.824  0.7115 -1.0800 -0.5437
 4326SOL    HW213557   8.757   9.304   5.942  0.4996  0.1944  0.3224
 4327SOL     OW13558   0.907   7.053   7.700  0.0820  0.2190 -0.1338
 4327SOL    HW113559   0.980   7.102   7.662  0.0356 -0.3571 -0.9979
 4327SOL    HW213560   0.844   7.120   7.727  0.1737  0.6545 -0.9782
 4328SOL     OW13561   6.183   3.817   9.836 -0.1345  0.2565 -0.2783
 4328SOL    HW113562   6.114   3.865   9.790 -0.1563  0.7044  0.2180
 4328SOL    HW213563   6.216   3.755   9.771 -0.2529  0.7939 -0.8607
 4329SOL     OW13564   8.086   1.538   4.341  0.1412 -0.2530 -0.3034
 4329SOL    HW113565   8.129   1.599   4.281  1.7944  0.2810  1.3515
 4329SOL    HW213566   8.017   1.590   4.383  0.6589  0.1060  0.1112
 4330SOL     OW13567   9.969   0.847   0.339 -0.0412 -0.3031  0.4655
 4330SOL    HW113568   9.946   0.926   0.291 -0.5905  0.8054  2.4436
 4330SOL    HW213569  10.019   0.795   0.276  0.1088  1.4790 -0.9850
 4331SOL     OW13570   0.669   1.326   2.797  0.2908  0.3268 -0.0153
 4331SOL    HW113571   0.717   1.292   2.721 -0.6963  0.1247 -0.5636
 4331SOL    HW213572   0.580   1.338   2.766 -0.0323  0.6608  0.9987
 4332SOL     OW13573   9.664   0.759   2.271  0.1681 -0.3852  0.1046
 4332SOL    HW113574   9.570   0.745   2.260  0.5267 -3.1576 -0.1566
 4332SOL    HW213575   9.687   0.706   2.347  1.6572 -0.4274 -0.3436
 4333SOL     OW13576   7.294   8.531   0.928 -0.2873  0.2039 -0.2023
 4333SOL    HW113577   7.384   8.505   0.908 -0.1323  0.3523  0.2829
 4333SOL    HW213578   7.260   8.568   0.846  0.7970  2.0916  0.1281
 4334SOL     OW13579   9.273   1.765   9.182  0.1522 -0.0530  0.0030
 4334SOL    HW113580   9.314   1.785   9.266 -0.9895  0.6357  0.4211
 4334SOL    HW213581   9.183   1.740   9.204 -0.0910 -0.1205 -0.9973
 4335SOL     OW13582   8.355   8.320   7.898 -0.0724  0.2181 -0.3725
 4335SOL    HW113583   8.279   8.339   7.842 -0.4228  0.6131  0.2278
 4335SOL    HW213584   8.330   8.240   7.944  0.9160 -1.1045 -2.0199
 4336SOL     OW13585   2.143   2.124   2.055  0.3996  0.3736 -0.0056
 4336SOL    HW113586   2.200   2.049   2.072  0.4886  0.5601  0.5705
 4336SOL    HW213587   2.203   2.194   2.028  0.3194  0.2425 -0.5214
 4337SOL     OW13588   8.218   0.551   5.000 -0.3269 -0.1645  0.4226
 4337SOL    HW113589   8.269   0.477   5.034 -0.9012 -0.8025 -0.0688
 4337SOL    HW213590   8.275   0.592   4.935 -0.2601 -0.5925  0.2105
 4338SOL     OW13591   3.220   6.690   6.835 -0.6698 -0.0975  0.1438
 4338SOL    HW113592   3.183   6.699   6.924 -0.5153 -0.1916  0.2178
 4338SOL    HW213593   3.287   6.622   6.844  0.7074  1.2380  0.3827
 4339SOL     OW13594   8.331   9.305   7.410 -0.8790  0.7294  0.4468
 4339SOL    HW113595   8.278   9.227   7.393  2.6370 -2.5110  2.6899
 4339SOL    HW213596   8.288   9.347   7.484 -1.9986  0.0027  0.2395
 4340SOL     OW13597   6.982   1.817   4.947 -0.1521 -0.1286 -0.3434
 4340SOL    HW113598   7.020   1.740   4.990 -0.5552  0.2806  0.7764
 4340SOL    HW213599   7.032   1.825   4.865  1.0861 -0.5420  0.3379
 4341SOL     OW13600   2.366   1.925   0.780 -0.3211 -0.7816 -0.0777
 4341SOL    HW113601   2.288   1.876   0.808 -0.6724  0.5569  1.4348
 4341SOL    HW213602   2.400   1.965   0.860  1.4562 -0.6439 -0.8430
 4342SOL     OW13603   8.962   8.513   1.418 -0.5576  0.0407  0.3302
 4342SOL    HW113604   8.916   8.509   1.502 -4.2722  1.1162 -1.4302
 4342SOL    HW213605   8.936   8.432   1.373 -0.4184  0.4896 -0.5748
 4343SOL     OW13606   2.195   8.491   2.054 -0.6823 -0.5276  0.2516
 4343SOL    HW113607   2.212   8.397   2.061  0.7143 -0.2304  1.7693
 4343SOL    HW213608   2.282   8.529   2.039 -1.0648  0.5747  0.7329
 4344SOL     OW13609   0.629   6.617   8.268  0.1183  0.0449 -0.7755
 4344SOL    HW113610   0.657   6.698   8.225 -2.2728  2.4327  1.7585
 4344SOL    HW213611   0.709   6.581   8.306  1.1889  1.3927 -1.6609
 4345SOL     OW13612   4.963   0.867   2.290  0.6495 -0.7322 -0.3050
 4345SOL    HW113613   4.909   0.858   2.369  0.1955  0.9158 -0.3985
 4345SOL    HW213614   4.977   0.777   2.261 -1.0548 -1.2739  0.3918
 4346SOL     OW13615   8.375   1.311   2.819 -1.1591 -0.1299  0.2965
 4346SOL    HW113616   8.317   1.367   2.872 -1.6501 -2.2081  2.0900
 4346SOL    HW213617   8.446   1.288   2.878 -0.1343 -0.1894 -0.9142
 4347SOL     OW13618   1.947   3.975   3.415  0.1042 -0.1275  0.1137
 4347SOL    HW113619   1.905   4.041   3.469 -0.0518  1.5826 -1.9581
 4347SOL    HW213620   2.039   4.000   3.411 -0.0161  0.2094 -0.9576
 4348SOL     OW13621   6.595   4.536   9.492 -0.2899 -0.2567  0.4194
 4348SOL    HW113622   6.573   4.509   9.581  0.2158  0.0166  0.6359
 4348SOL    HW213623   6.657   4.469   9.462  0.4831  0.2912  0.7306
 4349SOL     OW13624   2.499   6.581   7.275 -0.4449  0.0790 -0.2451
 4349SOL    HW113625   2.550   6.645   7.324  0.8662 -2.0796  1.3563
 4349SOL    HW213626   2.413   6.581   7.317 -0.7624  1.4008 -0.8545
 4350SOL     OW13627   8.009   3.786   5.071  0.0477 -0.2350  0.4927
 4350SOL    HW113628   8.027   3.709   5.125 -0.6246  0.0467  1.1448
 4350SOL    HW213629   8.020   3.860   5.131  0.8231  0.1893 -0.1638
 4351SOL     OW13630   8.374   3.761   5.977  0.1168 -0.6909  0.6301
 4351SOL    HW113631   8.346   3.670   5.987  0.8837 -1.0466 -0.2320
 4351SOL    HW213632   8.293   3.810   5.969 -0.3845 -1.7873 -2.6315
 4352SOL     OW13633   6.151   2.321   5.699  0.8826  0.0923 -0.2603
 4352SOL    HW113634   6.100   2.345   5.776  0.1865  0.3523 -0.7890
 4352SOL    HW213635   6.241   2.341   5.722  0.6496  0.4247  0.3868
 4353SOL     OW13636   8.704   0.632   9.747  1.2264 -0.9317  0.2939
 4353SOL    HW113637   8.722   0.703   9.808 -2.1956  0.3064  0.0726
 4353SOL    HW213638   8.640   0.577   9.793 -0.9971 -0.2756 -1.7920
 4354SOL     OW13639   4.112   7.894   3.813  0.9724  0.1574  0.0175
 4354SOL    HW113640   4.027   7.863   3.784  0.9675  0.4859 -0.3207
 4354SOL    HW213641   4.157   7.815   3.844  0.9255 -0.1730 -0.7414
 4355SOL     OW13642   0.937   7.985   4.763 -0.2989 -0.0567 -0.2279
 4355SOL    HW113643   1.016   8.014   4.717 -0.4830 -0.3537 -0.7425
 4355SOL    HW213644   0.907   7.909   4.713  0.1382 -1.1132  1.0648
 4356SOL     OW13645   8.878   0.825   4.365 -0.1267  0.3641  0.2834
 4356SOL    HW113646   8.885   0.918   4.341  0.5204  0.4787  0.8953
 4356SOL    HW213647   8.825   0.787   4.295 -0.3974  1.1936  0.0217
 4357SOL     OW13648   3.825   4.198   6.176  0.1890 -0.6679  0.2784
 4357SOL    HW113649   3.889   4.247   6.229 -1.6645  0.9830  1.0848
 4357SOL    HW213650   3.784   4.138   6.239 -0.4163 -0.3367  0.2002
 4358SOL     OW13651   1.278   9.779   7.623 -0.0723 -0.1516 -0.0236
 4358SOL    HW113652   1.223   9.734   7.688  1.8006 -0.7512  1.2507
 4358SOL    HW213653   1.278   9.870   7.651 -0.3991 -0.1573 -0.0048
 4359SOL     OW13654   3.155   4.485   5.688 -0.3776 -0.1060  0.0648
 4359SOL    HW113655   3.173   4.489   5.594  0.7987 -1.1329  0.2193
 4359SOL    HW213656   3.237   4.513   5.729 -0.9527  0.5531  0.8068
 4360SOL     OW13657   3.990   4.663   5.436 -0.1953 -0.1852 -0.2497
 4360SOL    HW113658   3.926   4.592   5.448  0.5998 -1.1015 -1.1664
 4360SOL    HW213659   4.075   4.619   5.443  0.3619  0.0677 -3.5462
 4361SOL     OW13660   4.366   4.895   9.096 -0.2404  0.2156  0.2223
 4361SOL    HW113661   4.301   4.953   9.056 -0.7577  0.0790  0.8554
 4361SOL    HW213662   4.319   4.814   9.113  0.4756 -0.4047 -0.6334
 4362SOL     OW13663   0.291   7.074   7.975 -0.3799  0.6859  0.5240
 4362SOL    HW113664   0.205   7.114   7.986 -0.4955  0.3143  1.0369
 4362SOL    HW213665   0.351   7.131   8.024 -0.4619  0.5332  0.8097
 4363SOL     OW13666   2.177   3.922   7.874 -0.2307 -0.1640 -0.5194
 4363SOL    HW113667   2.127   3.903   7.795  0.4331  1.2152 -1.3104
 4363SOL    HW213668   2.268   3.902   7.851  0.0438  0.7846 -0.3112
 4364SOL     OW13669   7.890   1.307   2.245 -0.1644 -0.4933 -0.3807
 4364SOL    HW113670   7.956   1.310   2.176  0.5030 -1.8335  0.1661
 4364SOL    HW213671   7.911   1.228   2.295 -1.8616 -0.6644  0.1291
 4365SOL     OW13672   0.923   8.123   5.545 -0.4551  0.2764 -0.5701
 4365SOL    HW113673   0.905   8.208   5.586 -1.5352  0.6507 -1.7551
 4365SOL    HW213674   0.999   8.139   5.489  1.9446 -0.5837  2.2221
 4366SOL     OW13675   5.066   0.370   1.956  0.6060 -0.9379 -0.3260
 4366SOL    HW113676   5.000   0.303   1.935  0.9194 -2.0405  1.9051
 4366SOL    HW213677   5.078   0.418   1.874 -1.6706 -1.8245 -1.2738
 4367SOL     OW13678   4.414   3.955   1.644 -0.0587  0.2392  0.2326
 4367SOL    HW113679   4.334   3.945   1.696 -0.2663 -0.8198 -0.2559
 4367SOL    HW213680   4.399   3.901   1.567  1.3589 -0.4214  0.3905
 4368SOL     OW13681   5.361   8.022   3.946  0.6600  0.8739  0.2501
 4368SOL    HW113682   5.416   7.948   3.971  0.4645  0.0635 -1.6339
 4368SOL    HW213683   5.409   8.099   3.978  2.2360  0.1109 -0.1814
 4369SOL     OW13684   2.198   0.417   8.997 -0.1408  0.2155  0.2331
 4369SOL    HW113685   2.208   0.481   8.927  0.4860 -0.4062 -0.2617
 4369SOL    HW213686   2.130   0.357   8.966  0.1016 -0.0308  0.1717
 4370SOL     OW13687   2.933   3.130   5.488  0.7783  0.5559 -0.2497
 4370SOL    HW113688   2.964   3.053   5.536  1.0774  0.8883  0.0981
 4370SOL    HW213689   2.844   3.107   5.461  0.5693  0.3978  0.5440
 4371SOL     OW13690   6.595   8.239   3.913 -0.5087 -0.5314  0.4551
 4371SOL    HW113691   6.688   8.253   3.929 -0.6586  0.2807  0.6450
 4371SOL    HW213692   6.563   8.195   3.992 -0.6210  0.7150  1.1317
 4372SOL     OW13693   7.755   0.208   0.275 -0.1685 -0.2301 -0.0101
 4372SOL    HW113694   7.718   0.233   0.360  1.6969 -1.0596  1.1105
 4372SOL    HW213695   7.750   0.112   0.274  0.3359 -0.2585 -0.5766
 4373SOL     OW13696   2.134   7.072   1.852  0.0366  0.2969  0.6181
 4373SOL    HW113697   2.046   7.073   1.813  0.4567  0.4172 -0.3345
 4373SOL    HW213698   2.124   7.016   1.930 -0.7585 -0.1490  0.2124
 4374SOL     OW13699   0.629   2.500   9.063  0.1950 -0.5303  0.0361
 4374SOL    HW113700   0.603   2.584   9.026 -1.9770 -1.0527  0.2618
 4374SOL    HW213701   0.677   2.523   9.143  0.1153  0.4897 -0.1935
 4375SOL     OW13702   9.585   5.291   6.361  0.9019  0.1461 -0.0313
 4375SOL    HW113703   9.655   5.246   6.409  0.2532 -1.9990 -1.0129
 4375SOL    HW213704   9.527   5.222   6.331 -1.9654  1.8625  1.1079
 4376SOL     OW13705   7.962   8.015   3.577 -0.9082 -0.0377  0.1479
 4376SOL    HW113706   8.057   8.013   3.566 -1.1282  0.0150 -2.3100
 4376SOL    HW213707   7.947   7.986   3.667  1.3909 -0.8504  0.3217
 4377SOL     OW13708   1.171   4.777   2.892  0.0219 -0.3088 -0.1023
 4377SOL    HW113709   1.213   4.859   2.914 -1.8048  0.3678  1.1381
 4377SOL    HW213710   1.216   4.747   2.814  2.3219  0.6379  0.7677
 4378SOL     OW13711   4.104   7.086   6.172 -0.0992  0.1575  0.2041
 4378SOL    HW113712   4.046   7.049   6.239  1.0294 -2.4617 -0.1546
 4378SOL    HW213713   4.173   7.020   6.161  1.4561  1.9321 -1.3320
 4379SOL     OW13714   1.171   4.172   0.321  0.1114 -0.0732 -0.1957
 4379SOL    HW113715   1.205   4.261   0.306 -2.1679  0.8269 -0.4901
 4379SOL    HW213716   1.214   4.119   0.254  2.7049  0.4224  0.9665
 4380SOL     OW13717   3.705   9.830   1.250  0.3226 -0.2131 -0.5114
 4380SOL    HW113718   3.723   9.784   1.331  1.0507  0.1762 -0.4392
 4380SOL    HW213719   3.619   9.798   1.222 -0.5817  0.6462  1.1200
 4381SOL     OW13720   1.601   5.526   5.716  0.0876  0.4519  0.4580
 4381SOL    HW113721   1.538   5.510   5.646  1.0662 -0.4298 -0.2432
 4381SOL    HW213722   1.619   5.620   5.711  0.1581  0.3912 -0.4695
 4382SOL     OW13723   2.780   0.949   3.422 -0.6273 -0.5719  0.1196
 4382SOL    HW113724   2.728   0.973   3.345 -0.9759 -1.2567  0.1375
 4382SOL    HW213725   2.805   0.858   3.407  0.9725 -0.1188 -0.1124
 4383SOL     OW13726   6.418   3.728   4.561  0.6659  0.2491  0.5384
 4383SOL    HW113727   6.480   3.757   4.629  0.3990  0.5582  0.6555
 4383SOL    HW213728   6.366   3.806   4.543  2.4223  0.9767 -1.9286
 4384SOL     OW13729   5.362   0.317   5.903 -0.1373  0.0755 -0.0334
 4384SOL    HW113730   5.330   0.245   5.957 -0.6549  1.0043  0.9309
 4384SOL    HW213731   5.439   0.349   5.949  0.3797 -0.1574 -0.7175
 4385SOL     OW13732   1.078   7.540   7.146  0.0463 -0.0772 -0.3493
 4385SOL    HW113733   0.985   7.565   7.145  0.0005 -0.2519 -0.7169
 4385SOL    HW213734   1.122   7.613   7.190 -0.4357 -0.6057  1.0484
 4386SOL     OW13735   9.480   9.112   9.888  0.0310  0.3978  0.0404
 4386SOL    HW113736   9.461   9.020   9.871 -0.7219  0.1717  1.9113
 4386SOL    HW213737   9.412   9.160   9.840 -0.7196 -0.1039  0.5838
 4387SOL     OW13738   5.768   7.006   0.952 -0.2711  0.0126 -0.2144
 4387SOL    HW113739   5.713   6.944   0.999 -0.9029  0.3716 -0.4772
 4387SOL    HW213740   5.787   7.075   1.016 -1.1262  0.4985 -0.4701
 4388SOL     OW13741   7.508   1.175   2.906 -0.3522  0.1646 -0.1650
 4388SOL    HW113742   7.509   1.236   2.980 -1.0546 -1.4578  1.2384
 4388SOL    HW213743   7.420   1.139   2.904  0.0231 -0.7778 -0.9970
 4389SOL     OW13744   0.814   8.564   9.262  0.2876  0.4825 -0.0341
 4389SOL    HW113745   0.876   8.636   9.271 -0.9805  1.5979  0.0333
 4389SOL    HW213746   0.868   8.490   9.235  1.5073  1.6821 -1.0606
 4390SOL     OW13747   2.149   1.039   7.957  0.2155 -0.5824  0.1564
 4390SOL    HW113748   2.091   0.963   7.956 -1.5342  0.6704 -1.7162
 4390SOL    HW213749   2.090   1.114   7.960  1.8737  0.7488  1.1232
 4391SOL     OW13750   2.598   0.359   0.345 -0.2127  0.1534  0.1784
 4391SOL    HW113751   2.691   0.383   0.345  0.1586 -1.1114  1.4190
 4391SOL    HW213752   2.569   0.376   0.434 -1.2249  0.6760 -0.2389
 4392SOL     OW13753   7.373   9.018   4.706  0.0026 -0.3134  0.1995
 4392SOL    HW113754   7.358   8.971   4.789 -0.0246 -0.7980 -0.0778
 4392SOL    HW213755   7.348   8.955   4.638 -1.0398  0.4765 -0.1568
 4393SOL     OW13756   2.826   9.133   1.688  0.4438  0.2052  0.9219
 4393SOL    HW113757   2.851   9.214   1.732  0.2200  0.6191  0.3138
 4393SOL    HW213758   2.791   9.162   1.603 -0.1582 -0.4918  0.9226
 4394SOL     OW13759   4.838   3.569   4.714 -0.5947  0.0957 -0.1733
 4394SOL    HW113760   4.882   3.649   4.743  0.7181 -0.1865 -1.3061
 4394SOL    HW213761   4.902   3.500   4.729 -0.4396 -0.2671 -2.3141
 4395SOL     OW13762   7.967   9.152   4.503 -0.2811 -1.1469  0.3893
 4395SOL    HW113763   7.902   9.222   4.507 -0.0969 -0.9645  0.2801
 4395SOL    HW213764   8.019   9.173   4.425 -0.8307 -1.9475 -0.2016
 4396SOL     OW13765   6.092   7.861   8.506 -0.0787  0.0831 -0.2958
 4396SOL    HW113766   6.067   7.856   8.413 -0.4116  0.7615 -0.2470
 4396SOL    HW213767   6.106   7.954   8.522  0.3273 -0.0678  0.2497
 4397SOL     OW13768   1.103   4.028   2.891 -0.1232  0.0747 -0.4056
 4397SOL    HW113769   1.021   4.066   2.922 -1.0183 -0.6755 -1.7248
 4397SOL    HW213770   1.170   4.061   2.951 -1.2429  1.4773  0.1220
 4398SOL     OW13771   0.965   2.926   0.484 -0.3353  0.1270  0.4054
 4398SOL    HW113772   1.026   2.956   0.550 -0.7346 -0.3554  1.0078
 4398SOL    HW213773   0.983   2.980   0.407  1.3190 -0.4687  0.3318
 4399SOL     OW13774   2.663   1.229   7.451 -0.2166 -0.5065 -0.1251
 4399SOL    HW113775   2.656   1.318   7.485 -0.3106 -0.7476  0.5059
 4399SOL    HW213776   2.621   1.232   7.366 -1.0905 -0.1671  0.3124
 4400SOL     OW13777   7.398   1.832   4.067  0.2054 -0.3182 -0.0336
 4400SOL    HW113778   7.304   1.827   4.053 -0.0850  1.5766  0.9474
 4400SOL    HW213779   7.415   1.924   4.089  2.0530 -0.9070  1.3230
 4401SOL     OW13780   2.625   3.766   3.688  0.4863 -0.2532 -0.1332
 4401SOL    HW113781   2.589   3.696   3.743  0.4660 -1.0448 -1.1159
 4401SOL    HW213782   2.703   3.795   3.735  0.9126 -1.4633 -0.0626
 4402SOL     OW13783   6.703   1.747   7.056  0.2174  0.1700  0.0427
 4402SOL    HW113784   6.778   1.691   7.038  0.0770 -0.1078  0.3047
 4402SOL    HW213785   6.627   1.689   7.050 -0.1863  0.8564 -2.2265
 4403SOL     OW13786   7.790   0.956   7.158 -0.5280  0.0256 -0.3331
 4403SOL    HW113787   7.880   0.961   7.124  0.1798  0.0039  1.4297
 4403SOL    HW213788   7.763   0.866   7.142 -0.3397  0.1040 -1.1137
 4404SOL     OW13789   1.921   3.918   5.913  0.3805  0.5021 -0.0924
 4404SOL    HW113790   1.886   3.937   5.826 -0.0882 -0.0613 -0.0301
 4404SOL    HW213791   1.847   3.930   5.972  0.6548  0.7107  0.2139
 4405SOL     OW13792   5.531   5.516   0.283  0.0728 -0.2431 -0.6161
 4405SOL    HW113793   5.462   5.566   0.239  2.3581  1.7825 -2.1679
 4405SOL    HW213794   5.505   5.516   0.375 -1.1214  2.0256 -0.8756
 4406SOL     OW13795   2.844   1.927   0.230 -0.3650  0.0362  0.1783
 4406SOL    HW113796   2.881   1.841   0.250  0.5127  0.6174  1.1519
 4406SOL    HW213797   2.773   1.938   0.293 -0.3697  0.0944  0.1624
 4407SOL     OW13798   8.482   6.549   2.346  0.2109  0.1821 -0.6147
 4407SOL    HW113799   8.428   6.537   2.425  0.7599 -1.8034 -0.4751
 4407SOL    HW213800   8.569   6.569   2.380  0.2569  0.1962 -0.7424
 4408SOL     OW13801   4.741   9.423   2.173  0.5086 -0.1836 -0.1658
 4408SOL    HW113802   4.732   9.391   2.263  1.2842  0.1365  0.0271
 4408SOL    HW213803   4.792   9.503   2.181  0.9822 -0.3970 -0.9394
 4409SOL     OW13804   3.393   9.985   6.093 -0.1067  0.4857 -0.4054
 4409SOL    HW113805   3.379   9.892   6.073 -0.4147  0.1478  1.1776
 4409SOL    HW213806   3.308  10.016   6.122  0.3054  0.8776  0.4227
 4410SOL     OW13807   6.969   8.487   4.141  0.0966 -0.4212  0.0474
 4410SOL    HW113808   6.966   8.524   4.229  1.0944  1.2696 -0.5777
 4410SOL    HW213809   6.924   8.551   4.086 -0.0244 -1.1809 -0.7615
 4411SOL     OW13810   3.756   3.159   0.612 -0.0531  0.2302  0.1875
 4411SOL    HW113811   3.675   3.167   0.663  0.2055  0.8717  0.5126
 4411SOL    HW213812   3.823   3.201   0.666  0.3560  0.3436 -0.3893
 4412SOL     OW13813   3.873   0.890   0.548 -0.4399 -0.2271  0.4863
 4412SOL    HW113814   3.893   0.913   0.457 -1.0283 -0.2015  0.3547
 4412SOL    HW213815   3.948   0.921   0.598  0.5478 -1.4654 -0.1492
 4413SOL     OW13816   9.478   7.851   5.006 -0.0530 -0.3216 -0.1363
 4413SOL    HW113817   9.437   7.893   5.082  2.1575  2.4580 -0.3249
 4413SOL    HW213818   9.456   7.909   4.932  2.5922  0.3296 -0.5195
 4414SOL     OW13819   5.080   5.740   3.714  0.4181 -0.3486  0.1212
 4414SOL    HW113820   5.127   5.739   3.797  0.3219 -0.2620  0.1755
 4414SOL    HW213821   4.993   5.774   3.735  0.3330 -0.4995  0.0185
 4415SOL     OW13822   0.193   8.392   5.652  0.1594  0.4058 -0.1573
 4415SOL    HW113823   0.260   8.349   5.704 -0.0585  1.0065  0.6324
 4415SOL    HW213824   0.118   8.333   5.654  0.1890  0.3780  0.1157
 4416SOL     OW13825   3.867   1.604   6.607 -0.6111  0.0645 -0.4085
 4416SOL    HW113826   3.848   1.604   6.514 -1.7365  1.5290 -0.2114
 4416SOL    HW213827   3.920   1.682   6.621 -1.8563  0.7926  0.4123
 4417SOL     OW13828   7.377   2.799   3.794 -0.0052 -0.1094 -0.4069
 4417SOL    HW113829   7.350   2.859   3.724  0.9742  0.4001 -0.3684
 4417SOL    HW213830   7.379   2.853   3.873 -2.3541 -0.9632  0.3281
 4418SOL     OW13831   7.461   6.441   9.205 -0.1058  0.1090 -0.5457
 4418SOL    HW113832   7.371   6.419   9.184  0.4364 -0.8156 -2.1059
 4418SOL    HW213833   7.508   6.358   9.201  0.6432  0.3689  1.4492
 4419SOL     OW13834   9.434   0.569   5.177  0.7584  0.2268  0.4134
 4419SOL    HW113835   9.352   0.569   5.128 -0.0859  1.3269  1.7796
 4419SOL    HW213836   9.424   0.499   5.242  1.2034 -0.0941  0.1496
 4420SOL     OW13837   2.287   2.678   0.104 -0.2421  0.2643  0.0367
 4420SOL    HW113838   2.223   2.741   0.135 -3.2295 -1.8932 -1.3215
 4420SOL    HW213839   2.299   2.700   0.011 -0.9257 -0.7757 -0.3195
 4421SOL     OW13840   8.776   6.792   0.566 -0.1147 -0.6066 -0.0556
 4421SOL    HW113841   8.863   6.772   0.530 -0.0009  1.5437 -1.1495
 4421SOL    HW213842   8.717   6.777   0.492 -0.5333 -0.8853  0.3337
 4422SOL     OW13843   1.157   8.206   5.777  0.2781  0.2489  0.2332
 4422SOL    HW113844   1.142   8.112   5.786 -3.4614  0.3384 -2.4188
 4422SOL    HW213845   1.098   8.246   5.841 -1.0341  0.7005 -1.1941
 4423SOL     OW13846   7.982   7.399   2.539 -0.2236  0.1639 -0.1517
 4423SOL    HW113847   7.888   7.411   2.550 -0.3857 -1.6001  0.6289
 4423SOL    HW213848   8.016   7.488   2.529 -1.8455  0.9003  0.5294
 4424SOL     OW13849   5.896   7.379   3.940  0.8235  0.0759 -0.1425
 4424SOL    HW113850   5.976   7.432   3.933  1.9582 -1.4999  0.3586
 4424SOL    HW213851   5.919   7.296   3.898 -1.0004  0.0305 -1.1464
 4425SOL     OW13852   6.313   3.263   8.506 -0.1269 -0.5064 -0.0559
 4425SOL    HW113853   6.299   3.306   8.422  0.9592 -1.6241 -0.8407
 4425SOL    HW213854   6.355   3.330   8.560 -3.8923  1.3618  0.8258
 4426SOL     OW13855   3.265   3.036   5.625  0.2534  0.6319  0.6942
 4426SOL    HW113856   3.220   3.118   5.604 -0.4725  0.3786  1.2249
 4426SOL    HW213857   3.220   3.003   5.702  0.6868 -0.1641  0.6166
 4427SOL     OW13858   4.112   7.060   7.394  0.5332 -0.1312  0.3642
 4427SOL    HW113859   4.105   7.108   7.477  1.3860 -1.8773  1.4975
 4427SOL    HW213860   4.146   6.974   7.419 -0.1911 -1.0642 -1.6899
 4428SOL     OW13861   1.665   9.458   3.873 -0.2934  0.3023  0.4008
 4428SOL    HW113862   1.700   9.371   3.894  0.1647  0.8921  2.2536
 4428SOL    HW213863   1.743   9.512   3.858 -0.5539  0.6266  0.1949
 4429SOL     OW13864   4.051   3.691   1.465  0.3109 -0.3723 -0.2490
 4429SOL    HW113865   4.052   3.777   1.507 -1.7203  0.3868 -1.5921
 4429SOL    HW213866   4.053   3.629   1.538 -0.2293  0.8449  0.8538
 4430SOL     OW13867   6.031   6.049   5.185  0.0573 -0.0340  0.3306
 4430SOL    HW113868   6.106   6.045   5.246  0.4537  0.3743 -0.1190
 4430SOL    HW213869   6.071   6.070   5.101 -0.2902 -2.2399 -0.4433
 4431SOL     OW13870   9.217   7.788   0.273  0.3012  0.5767  0.6197
 4431SOL    HW113871   9.202   7.697   0.248 -2.9966  0.8530  1.1279
 4431SOL    HW213872   9.258   7.783   0.359  2.2427 -0.3556 -0.3012
 4432SOL     OW13873   4.638   0.727   3.775  0.4454  0.3884 -0.4054
 4432SOL    HW113874   4.682   0.675   3.843 -1.1911 -2.7859 -1.5685
 4432SOL    HW213875   4.682   0.701   3.694 -1.5374 -0.5828 -1.2162
 4433SOL     OW13876   5.332   9.715   5.488  0.4624  0.0228  0.2040
 4433SOL    HW113877   5.313   9.732   5.581 -0.7493 -2.6685  0.5557
 4433SOL    HW213878   5.427   9.727   5.481  0.5163  0.7366  1.6849
 4434SOL     OW13879   2.593   6.116   7.715  0.6720 -0.1021 -0.3229
 4434SOL    HW113880   2.529   6.143   7.649 -1.6058  0.8972  2.1096
 4434SOL    HW213881   2.562   6.030   7.745  3.1515 -1.7715 -2.2182
 4435SOL     OW13882   8.386   9.626   7.305 -0.0412  0.4024 -0.1514
 4435SOL    HW113883   8.317   9.686   7.276 -0.8261 -0.0607  0.6875
 4435SOL    HW213884   8.355   9.594   7.390  0.6614 -0.7081 -0.2933
 4436SOL     OW13885   9.250   5.426   9.641  0.5102 -0.1549 -0.3979
 4436SOL    HW113886   9.266   5.347   9.692 -2.2935 -0.8507 -0.4570
 4436SOL    HW213887   9.230   5.395   9.553  1.0218  0.7604 -0.8572
 4437SOL     OW13888   9.086   3.281   2.954  0.3920  0.0756 -0.2864
 4437SOL    HW113889   9.141   3.221   2.904 -0.0683 -0.9667  0.4300
 4437SOL    HW213890   9.003   3.234   2.966 -0.8453  1.7425 -1.6699
 4438SOL     OW13891   3.769   7.190   5.710  0.0649 -0.0315 -0.2432
 4438SOL    HW113892   3.768   7.204   5.615  2.1978  0.3850 -0.2347
 4438SOL    HW213893   3.810   7.268   5.746  0.8600 -0.9290  0.8777
 4439SOL     OW13894   3.875   2.460   7.174  0.6127  0.3745  0.0580
 4439SOL    HW113895   3.925   2.379   7.170 -0.1277 -0.1257  0.7319
 4439SOL    HW213896   3.941   2.529   7.180  1.2837 -0.0963 -1.4181
 4440SOL     OW13897   7.390   7.197   9.161  0.1072 -0.0050 -0.3123
 4440SOL    HW113898   7.460   7.231   9.218  1.2564 -1.1078 -1.0099
 4440SOL    HW213899   7.324   7.164   9.222 -0.5639  2.3995  0.3763
 4441SOL     OW13900   7.777   1.264   3.221 -0.1325 -0.3919  0.0492
 4441SOL    HW113901   7.836   1.219   3.282 -0.7468 -0.6623  0.4568
 4441SOL    HW213902   7.835   1.314   3.164  0.5437 -1.4352 -0.2028
 4442SOL     OW13903   8.460   5.544   3.537  0.1956  0.5438 -0.2338
 4442SOL    HW113904   8.487   5.574   3.450  2.0584 -1.9299 -0.6021
 4442SOL    HW213905   8.375   5.503   3.523  1.5918 -2.1117 -1.4882
 4443SOL     OW13906   7.136   2.397   2.307  0.3105  0.5282  0.4923
 4443SOL    HW113907   7.145   2.336   2.381 -2.6687  0.9038  1.3098
 4443SOL    HW213908   7.105   2.478   2.347 -0.3083  1.0943 -1.0620
 4444SOL     OW13909   6.264   7.516   0.343 -0.0375 -0.1116  0.4734
 4444SOL    HW113910   6.232   7.595   0.388  0.9252  2.8165 -3.4864
 4444SOL    HW213911   6.358   7.530   0.332  0.1745 -1.8498 -0.3344
 4445SOL     OW13912   8.570   1.834   6.914 -0.1063  0.0515  0.3165
 4445SOL    HW113913   8.546   1.843   6.821  0.2172 -1.6622  0.0300
 4445SOL    HW213914   8.499   1.783   6.953  0.6663 -0.8795  0.5532
 4446SOL     OW13915   5.836   0.323   3.923 -0.1710 -0.1639  0.8414
 4446SOL    HW113916   5.887   0.264   3.978  0.3978 -0.5151 -0.0433
 4446SOL    HW213917   5.900   0.364   3.865 -0.8212 -0.2896 -0.0011
 4447SOL     OW13918   6.941   8.914   5.033  0.0974 -0.7726  0.1224
 4447SOL    HW113919   6.920   8.821   5.029 -0.2325 -0.6991  0.1362
 4447SOL    HW213920   7.030   8.917   5.068  0.1904 -1.0908 -0.0786
 4448SOL     OW13921   6.971   4.536   6.437  0.0830  0.0502  0.0365
 4448SOL    HW113922   6.913   4.578   6.374 -1.7984  0.4912  1.9343
 4448SOL    HW213923   6.989   4.450   6.400 -2.2768 -0.3235 -0.4196
 4449SOL     OW13924   2.629   1.041   3.215  0.0497 -0.7442 -0.6457
 4449SOL    HW113925   2.617   1.136   3.216  1.2746 -0.5722 -0.8097
 4449SOL    HW213926   2.540   1.006   3.212 -0.5771  0.3351  1.9154
 4450SOL     OW13927   7.899   4.424   2.496 -0.1509 -0.0012  0.5128
 4450SOL    HW113928   7.959   4.370   2.445 -0.2666  0.5317 -0.2025
 4450SOL    HW213929   7.838   4.361   2.535 -0.2401 -0.3951 -0.2414
 4451SOL     OW13930   5.491   1.718   5.778 -0.0902  0.4576  1.0890
 4451SOL    HW113931   5.461   1.761   5.698  2.0499 -0.1183 -0.1037
 4451SOL    HW213932   5.433   1.643   5.788  0.9816 -0.7947 -1.2896
 4452SOL     OW13933   4.651   5.438   2.950  0.4692  0.6329  0.0710
 4452SOL    HW113934   4.669   5.505   2.884 -0.6519 -0.4739 -1.4355
 4452SOL    HW213935   4.701   5.362   2.921  0.4441  0.3210  0.8432
 4453SOL     OW13936   0.098   9.397   1.420 -0.8837  0.1012  0.0925
 4453SOL    HW113937   0.172   9.377   1.362 -0.9274 -0.5599  0.2566
 4453SOL    HW213938   0.028   9.339   1.390 -0.9884 -0.0628  0.6314
 4454SOL     OW13939   5.758   0.330   2.317 -0.2180  0.1230  0.0890
 4454SOL    HW113940   5.797   0.415   2.299 -0.9534  0.6707  0.9685
 4454SOL    HW213941   5.667   0.339   2.287  0.0563 -0.8231 -1.0921
 4455SOL     OW13942   6.834   7.442   4.239 -0.1128  0.0869  0.1848
 4455SOL    HW113943   6.756   7.483   4.277 -0.7873  0.3527 -1.4128
 4455SOL    HW213944   6.895   7.514   4.225  0.6390 -0.1699  1.7941
 4456SOL     OW13945   6.458   6.940   4.857  0.4361 -0.7856  0.2960
 4456SOL    HW113946   6.387   6.969   4.913  0.8669  0.5224  0.1931
 4456SOL    HW213947   6.417   6.922   4.772  0.2708  0.3590  0.1206
 4457SOL     OW13948   7.772   8.149   7.283 -0.2981 -0.6417  0.2138
 4457SOL    HW113949   7.772   8.080   7.216  2.7622 -0.8671  0.3133
 4457SOL    HW213950   7.735   8.225   7.239  1.4975 -0.8178 -1.7849
 4458SOL     OW13951   5.830   2.128   4.101 -0.0753  0.0715  0.0592
 4458SOL    HW113952   5.742   2.158   4.076 -0.3275 -0.1845  0.6308
 4458SOL    HW213953   5.884   2.146   4.024 -0.8333 -0.6475 -0.6661
 4459SOL     OW13954   9.966   8.864   0.907  0.3080 -0.2027 -0.3688
 4459SOL    HW113955   9.964   8.815   0.824 -0.0463 -2.6803  1.0244
 4459SOL    HW213956   9.874   8.886   0.924 -0.0591 -2.4166  0.8261
 4460SOL     OW13957   3.011   8.015   9.115  0.5032  0.2858 -0.0842
 4460SOL    HW113958   3.069   8.089   9.132  0.7855  0.0959 -0.2102
 4460SOL    HW213959   3.067   7.938   9.127  0.5024  0.1188 -1.0680
 4461SOL     OW13960   6.534   7.752   2.466 -0.3677  0.2893 -0.0964
 4461SOL    HW113961   6.613   7.723   2.513 -0.9252 -1.7369 -0.2926
 4461SOL    HW213962   6.543   7.713   2.379 -1.0023  1.1093 -0.5417
 4462SOL     OW13963   4.170   0.664   1.539  0.2048 -0.7191 -0.1135
 4462SOL    HW113964   4.197   0.696   1.453 -0.1221 -1.4854 -0.5063
 4462SOL    HW213965   4.124   0.582   1.521  0.5419 -1.1259  0.8361
 4463SOL     OW13966   2.940   1.425   7.409  0.0470 -0.1008 -0.1458
 4463SOL    HW113967   2.869   1.435   7.471 -0.8284  0.7474 -1.2337
 4463SOL    HW213968   3.006   1.373   7.455 -0.6080  0.4132  1.4281
 4464SOL     OW13969   6.772   0.581   0.702  0.6825  0.2869  0.1159
 4464SOL    HW113970   6.859   0.573   0.739 -0.2756 -2.0088  2.1414
 4464SOL    HW213971   6.738   0.664   0.735  1.7285  0.7517  0.0486
 4465SOL     OW13972   9.726   1.047   3.163  0.4734 -0.3963  0.4119
 4465SOL    HW113973   9.814   1.083   3.172  0.2953 -0.0051  0.5673
 4465SOL    HW213974   9.668   1.115   3.197  0.1067 -0.6342  0.2655
 4466SOL     OW13975   7.292   2.410   3.707  1.0032  0.0099 -0.4755
 4466SOL    HW113976   7.282   2.432   3.614  0.8004 -0.6574 -0.6122
 4466SOL    HW213977   7.229   2.467   3.751 -2.5640 -3.0208 -1.1827
 4467SOL     OW13978   1.475   4.799   3.673 -0.0964 -0.1860  0.0885
 4467SOL    HW113979   1.484   4.750   3.591  0.5222 -0.4247  0.2917
 4467SOL    HW213980   1.498   4.736   3.741 -1.7953 -0.3462  0.5501
 4468SOL     OW13981   7.806   9.131   6.722  0.2798 -0.0400 -0.3965
 4468SOL    HW113982   7.712   9.149   6.717  0.4448  1.0717  0.0652
 4468SOL    HW213983   7.845   9.194   6.662  0.8570  0.8252  0.8504
 4469SOL     OW13984   6.811   2.879   7.389  0.7377 -0.1558 -0.5617
 4469SOL    HW113985   6.861   2.811   7.435 -0.0280 -0.7394 -0.5615
 4469SOL    HW213986   6.872   2.952   7.381  2.1548 -1.4237 -2.0387
 4470SOL     OW13987   8.951   7.721   1.404  0.4745 -0.6001 -0.0801
 4470SOL    HW113988   8.891   7.794   1.391 -0.4154 -1.0231  1.4714
 4470SOL    HW213989   9.037   7.762   1.412  0.6632 -0.0532 -3.3792
 4471SOL     OW13990   2.729   6.932   6.357  0.7769 -0.0114  0.1799
 4471SOL    HW113991   2.633   6.934   6.363  0.6304  0.1169 -1.5698
 4471SOL    HW213992   2.749   6.844   6.325  1.1982  0.1467  0.0060
 4472SOL     OW13993   5.237   7.433   6.138 -0.0860  0.2015  0.0376
 4472SOL    HW113994   5.312   7.404   6.190 -2.0626 -2.1961  1.8060
 4472SOL    HW213995   5.242   7.382   6.057  0.9628  1.2133 -0.5741
 4473SOL     OW13996   3.676   0.414   7.155 -0.0729  0.3610 -0.0945
 4473SOL    HW113997   3.703   0.339   7.102  0.6151  0.9888 -0.6598
 4473SOL    HW213998   3.590   0.438   7.122 -0.1803 -0.0139 -0.0869
 4474SOL     OW13999   5.001   9.023   2.557  0.3188  0.5727  0.2992
 4474SOL    HW114000   5.006   8.950   2.618 -0.4498  0.0776 -0.2099
 4474SOL    HW214001   5.092   9.046   2.538  0.7854 -2.8840 -2.6477
 4475SOL     OW14002   5.771   5.803   0.586  0.0892 -0.9086  0.1322
 4475SOL    HW114003   5.679   5.829   0.573 -0.2417 -0.9604  2.0832
 4475SOL    HW214004   5.784   5.731   0.525 -0.8460 -0.2400 -0.9129
 4476SOL     OW14005   0.533   5.033   4.173  0.9780  0.1678 -0.0500
 4476SOL    HW114006   0.550   5.119   4.137  1.3024 -0.1711 -0.7228
 4476SOL    HW214007   0.465   4.996   4.117 -0.3201  0.5771  1.1796
 4477SOL     OW14008   5.724   1.336   5.263 -0.2587 -0.5811 -0.0670
 4477SOL    HW114009   5.647   1.338   5.321 -1.6322  0.7065 -1.8145
 4477SOL    HW214010   5.784   1.401   5.300  0.2226 -1.8526  1.5259
 4478SOL     OW14011   6.291   6.715   5.163 -0.1013  0.1347  0.5902
 4478SOL    HW114012   6.221   6.700   5.100  0.4015  1.1253 -0.2342
 4478SOL    HW214013   6.359   6.652   5.139 -0.7615 -0.9678  1.5185
 4479SOL     OW14014   4.414   8.018   9.154 -0.1724  0.6339  0.0736
 4479SOL    HW114015   4.414   8.101   9.106 -0.6490  0.2112 -0.6979
 4479SOL    HW214016   4.343   7.967   9.113  0.1364 -0.1621  0.5002
 4480SOL     OW14017   7.891   8.055   4.342 -0.7539  0.0438  0.2822
 4480SOL    HW114018   7.901   8.076   4.249  0.0874 -0.7793  0.1723
 4480SOL    HW214019   7.969   8.004   4.364 -0.6634  0.6958  1.5891
 4481SOL     OW14020   4.497   7.301   8.200  0.4045  0.2946 -0.1710
 4481SOL    HW114021   4.561   7.318   8.131  1.4683 -2.0694  0.1437
 4481SOL    HW214022   4.468   7.211   8.185 -2.2987  1.0031  0.1935
 4482SOL     OW14023   6.279   3.517   3.635 -0.1920 -0.0181  0.0928
 4482SOL    HW114024   6.203   3.464   3.658  1.3662 -1.3720  2.6701
 4482SOL    HW214025   6.292   3.573   3.712  1.9601 -0.5293  0.1474
 4483SOL     OW14026   2.430   8.668   5.416  0.4434  0.5211 -0.0179
 4483SOL    HW114027   2.510   8.627   5.386  0.5433  0.9899 -0.4121
 4483SOL    HW214028   2.381   8.687   5.336 -0.4651 -0.5414  0.2572
 4484SOL     OW14029   5.890   5.457   5.463 -0.2261  0.4214  0.5644
 4484SOL    HW114030   5.837   5.384   5.432  1.2193 -0.4462  0.0329
 4484SOL    HW214031   5.940   5.422   5.536  0.6549  0.7922  0.1579
 4485SOL     OW14032   7.606   4.255   9.914 -0.7617 -0.3214 -0.1045
 4485SOL    HW114033   7.533   4.202   9.884 -0.7411 -0.4775  0.1124
 4485SOL    HW214034   7.672   4.191   9.941 -0.6514 -0.1840 -0.0467
 4486SOL     OW14035   9.420   7.573   9.465  0.7566  0.1464 -0.3068
 4486SOL    HW114036   9.393   7.656   9.425 -0.6008  0.1020  0.4398
 4486SOL    HW214037   9.477   7.598   9.538  0.3815  0.4283 -0.1090
 4487SOL     OW14038   9.730   2.587   1.599 -0.5871 -0.5259  0.3056
 4487SOL    HW114039   9.635   2.578   1.593 -0.5514 -0.6528 -0.0790
 4487SOL    HW214040   9.754   2.643   1.525 -0.4550  0.1778  0.8785
 4488SOL     OW14041   4.221   1.216   0.421 -0.1257 -0.1916  0.4790
 4488SOL    HW114042   4.142   1.255   0.383  1.4183 -0.0978 -2.9810
 4488SOL    HW214043   4.209   1.122   0.410  0.2862 -0.1680 -0.2555
 4489SOL     OW14044   6.998   9.201   7.449  0.0698  0.8118 -0.0877
 4489SOL    HW114045   7.009   9.256   7.372 -2.4556 -0.0653 -1.1615
 4489SOL    HW214046   6.987   9.263   7.521 -0.7904  1.6973 -0.9577
 4490SOL     OW14047   2.128   5.474   8.583  0.1272  0.0114 -0.4663
 4490SOL    HW114048   2.119   5.547   8.522  0.6627  0.0090 -0.5477
 4490SOL    HW214049   2.099   5.509   8.667  1.8979  0.7943 -0.1595
 4491SOL     OW14050   7.662   3.821   2.310 -0.4977 -0.8821  0.2779
 4491SOL    HW114051   7.641   3.883   2.241  1.3970 -1.3124 -0.7311
 4491SOL    HW214052   7.589   3.759   2.309 -2.8223  1.6013  1.8007
 4492SOL     OW14053   0.090   3.550   1.824  0.2718  0.3300 -0.4028
 4492SOL    HW114054   0.171   3.516   1.786 -0.5442 -0.9672 -1.0746
 4492SOL    HW214055   0.081   3.503   1.907  1.3429  2.1478  0.7946
 4493SOL     OW14056   5.285   7.230   4.038  0.3136 -0.0046 -0.3106
 4493SOL    HW114057   5.275   7.255   3.946  0.9060  0.7783 -0.1654
 4493SOL    HW214058   5.348   7.292   4.074  0.2946 -0.4707  0.5636
 4494SOL     OW14059   1.511   6.918   3.218 -0.2391  0.0428 -0.1048
 4494SOL    HW114060   1.421   6.911   3.188 -1.5431  1.1943  3.1092
 4494SOL    HW214061   1.524   7.012   3.233  1.3880 -0.1418 -0.1237
 4495SOL     OW14062   8.788   7.919   5.536  0.2237 -0.3935  0.6045
 4495SOL    HW114063   8.772   7.933   5.629  0.5289 -1.1632  0.7805
 4495SOL    HW214064   8.879   7.889   5.531  0.9166  1.6277 -0.1479
 4496SOL     OW14065   9.185   6.827   7.479  0.0124  0.1481  0.1388
 4496SOL    HW114066   9.217   6.832   7.389 -1.6669 -3.4923 -0.8529
 4496SOL    HW214067   9.261   6.803   7.531  0.3007 -1.5079 -0.9917
 4497SOL     OW14068   2.530   9.285   6.906 -0.6578  0.5292 -0.0093
 4497SOL    HW114069   2.476   9.363   6.920  0.3736  1.2540  0.0370
 4497SOL    HW214070   2.575   9.272   6.990 -1.4696 -0.6487  0.2717
 4498SOL     OW14071   4.407   6.053   8.087 -0.0192  0.4967  0.4425
 4498SOL    HW114072   4.314   6.058   8.110 -0.4874 -0.0339 -1.2237
 4498SOL    HW214073   4.413   5.978   8.029  1.6357 -0.0292  1.2405
 4499SOL     OW14074   6.845   5.799   4.878  0.0951  0.1034  0.5439
 4499SOL    HW114075   6.835   5.705   4.862  0.8331  0.1761 -0.4693
 4499SOL    HW214076   6.824   5.810   4.971 -0.4955 -0.9792  0.5592
 4500SOL     OW14077   3.095   3.461   7.938  0.4428  0.5532 -0.4189
 4500SOL    HW114078   3.178   3.487   7.898  1.4219 -1.0587  0.4801
 4500SOL    HW214079   3.114   3.456   8.032 -0.3907 -0.7823 -0.2985
 4501SOL     OW14080   9.901   5.822   4.584  0.0660  0.4073 -0.1146
 4501SOL    HW114081   9.917   5.837   4.491  1.8392 -1.4235 -0.1840
 4501SOL    HW214082   9.805   5.819   4.592 -0.1191 -0.1910 -2.0302
 4502SOL     OW14083   2.163   0.793   1.594 -0.0073 -0.5566  0.1366
 4502SOL    HW114084   2.152   0.887   1.611 -0.9647 -0.2446 -1.8596
 4502SOL    HW214085   2.173   0.754   1.680 -0.1420  1.3110  1.0556
 4503SOL     OW14086   6.209   7.314   5.512 -0.1754  0.1286  0.6378
 4503SOL    HW114087   6.183   7.245   5.451  0.3843 -0.7498  1.3687
 4503SOL    HW214088   6.143   7.383   5.500 -0.2878 -0.1880 -0.6627
 4504SOL     OW14089   5.660   9.244   3.803  0.0754 -0.5222  0.0717
 4504SOL    HW114090   5.630   9.155   3.821  2.3806 -1.2252  0.7871
 4504SOL    HW214091   5.649   9.290   3.885 -3.1022  0.5865 -0.8168
 4505SOL     OW14092   3.816   8.304   8.979 -0.3674 -0.2082  0.1395
 4505SOL    HW114093   3.812   8.392   9.016 -1.0436 -0.5767  0.9630
 4505SOL    HW214094   3.879   8.257   9.033 -2.4564 -1.1863  1.8463
 4506SOL     OW14095   3.064   4.314   2.566  0.0721  0.3982 -0.1817
 4506SOL    HW114096   3.046   4.232   2.613 -1.1927 -0.2767 -1.7248
 4506SOL    HW214097   3.101   4.285   2.483  0.2046  1.4433 -0.4928
 4507SOL     OW14098   8.223   4.153   0.564 -0.5776 -0.4967 -0.7749
 4507SOL    HW114099   8.130   4.175   0.570 -0.2106  0.8168  0.9732
 4507SOL    HW214100   8.244   4.112   0.648  0.9397  1.6106 -0.0258
 4508SOL     OW14101   7.750   3.494   8.138  0.1865  0.0338  0.2410
 4508SOL    HW114102   7.687   3.479   8.208  1.3033 -1.3155  1.0017
 4508SOL    HW214103   7.744   3.588   8.120 -1.6846  0.0153  0.6008
 4509SOL     OW14104   0.404   0.190   7.401 -0.0807  0.2560  1.0057
 4509SOL    HW114105   0.398   0.170   7.495 -1.1807  1.2625  1.1776
 4509SOL    HW214106   0.433   0.281   7.397  0.2822  0.1187  0.3560
 4510SOL     OW14107   7.866   0.115   9.231  0.6601  0.5890  0.8839
 4510SOL    HW114108   7.860   0.196   9.179 -0.2261 -0.8593 -1.4291
 4510SOL    HW214109   7.824   0.138   9.314 -2.5040  1.7309 -0.8354
 4511SOL     OW14110   7.641   9.635   4.526  0.3070  0.9400  0.7286
 4511SOL    HW114111   7.574   9.685   4.573 -0.4969  2.6337 -1.9743
 4511SOL    HW214112   7.600   9.614   4.442  1.2593 -2.9329  1.0602
 4512SOL     OW14113   6.181   8.907   1.767 -0.1726 -0.1378 -0.4113
 4512SOL    HW114114   6.162   8.838   1.703  1.8921 -0.4804 -0.7186
 4512SOL    HW214115   6.144   8.875   1.849  0.2133 -1.3353 -0.6892
 4513SOL     OW14116   4.322   1.633   7.736 -0.2048  0.5398 -0.1615
 4513SOL    HW114117   4.407   1.609   7.700 -0.4684 -2.5412  0.9051
 4513SOL    HW214118   4.259   1.592   7.677 -0.8403  0.8919  0.2632
 4514SOL     OW14119   6.648   7.663   7.349 -0.7011 -0.3424 -0.2008
 4514SOL    HW114120   6.654   7.621   7.435 -1.3047  0.0151  0.0186
 4514SOL    HW214121   6.688   7.750   7.362  1.6704 -1.2318 -0.9474
 4515SOL     OW14122   5.552   5.801   1.503  0.0455 -0.1611 -0.2591
 4515SOL    HW114123   5.640   5.839   1.496  0.7789 -1.9912 -1.4141
 4515SOL    HW214124   5.553   5.755   1.587  0.0047  0.2395 -0.0350
 4516SOL     OW14125   8.025   0.610   2.551 -0.3083  0.3752  0.3170
 4516SOL    HW114126   7.988   0.648   2.472  0.7236  2.0249  0.5798
 4516SOL    HW214127   8.040   0.518   2.529 -3.5865 -0.1496 -0.0848
 4517SOL     OW14128   1.975   0.368   7.753  0.0266 -0.0390  0.4379
 4517SOL    HW114129   2.049   0.347   7.696 -0.5628 -1.8879  0.2690
 4517SOL    HW214130   2.008   0.354   7.841  0.1846  0.2213  0.4216
 4518SOL     OW14131   8.932   1.589   7.166 -0.3251 -0.3161  0.4053
 4518SOL    HW114132   9.013   1.639   7.180 -0.6858  0.4046 -0.0275
 4518SOL    HW214133   8.947   1.543   7.084  0.4031 -1.7444  1.3041
 4519SOL     OW14134   0.453   5.075   7.623 -0.1464 -0.1012 -0.6090
 4519SOL    HW114135   0.454   4.989   7.664 -0.9167  0.8631  1.5803
 4519SOL    HW214136   0.396   5.064   7.546 -0.9491 -1.3563  0.1266
 4520SOL     OW14137   5.878   1.986   6.496 -0.2839 -0.3847 -0.2613
 4520SOL    HW114138   5.926   2.032   6.565  0.1276  0.6236 -1.1798
 4520SOL    HW214139   5.786   2.008   6.512 -0.0087  1.9591 -1.4436
 4521SOL     OW14140   4.433   3.759   7.916  0.1141 -0.2663  0.5758
 4521SOL    HW114141   4.381   3.768   7.996 -1.5239 -0.1415 -0.4418
 4521SOL    HW214142   4.412   3.837   7.865  1.1158 -0.3545 -0.0025
 4522SOL     OW14143   5.864   0.408   4.267 -0.7240  0.4475  0.0102
 4522SOL    HW114144   5.853   0.321   4.229  1.3459  1.2537 -2.8070
 4522SOL    HW214145   5.850   0.468   4.193 -1.6284  2.5379  1.7461
 4523SOL     OW14146   4.203   4.777   9.743  0.3893  0.1171  0.3441
 4523SOL    HW114147   4.168   4.860   9.776  0.5115  0.2826  0.0606
 4523SOL    HW214148   4.293   4.798   9.718  1.8986 -0.9730  4.0278
 4524SOL     OW14149   7.805   7.746   6.478 -0.0185  0.1519  0.0794
 4524SOL    HW114150   7.779   7.777   6.391 -1.3154  0.0198  0.3923
 4524SOL    HW214151   7.874   7.805   6.505  1.8999 -1.0319 -1.8778
 4525SOL     OW14152   7.755   4.964   7.618 -0.5187 -0.6081 -0.0224
 4525SOL    HW114153   7.772   5.056   7.640 -0.7565 -0.4059 -0.6610
 4525SOL    HW214154   7.841   4.923   7.618 -0.3152 -0.1927 -0.5745
 4526SOL     OW14155   7.656   2.939   2.068 -0.8630 -0.3088  0.2977
 4526SOL    HW114156   7.702   3.021   2.048 -3.0489  1.5697  2.3486
 4526SOL    HW214157   7.633   2.903   1.983  2.2385 -0.1635 -0.7521
 4527SOL     OW14158   5.185   8.809   4.769  0.4326  0.1345 -0.1305
 4527SOL    HW114159   5.244   8.883   4.752  2.1682 -0.8214  1.3704
 4527SOL    HW214160   5.158   8.820   4.860 -0.6489 -0.1804 -0.4029
 4528SOL     OW14161   7.886   9.423   4.051 -0.2983  0.3882  0.1620
 4528SOL    HW114162   7.800   9.456   4.079 -1.0625 -1.2887 -0.0621
 4528SOL    HW214163   7.911   9.362   4.120 -1.4629 -2.5811 -1.8607
 4529SOL     OW14164   4.159   1.529   4.977 -0.1851  0.0973 -0.3269
 4529SOL    HW114165   4.248   1.529   5.013 -0.0163  1.5778 -0.6877
 4529SOL    HW214166   4.112   1.593   5.030 -0.4539  0.8831 -1.4803
 4530SOL     OW14167   4.794   0.865   2.487  0.4451  0.3674 -0.1014
 4530SOL    HW114168   4.822   0.939   2.541 -0.6089  0.4796  0.3233
 4530SOL    HW214169   4.706   0.889   2.459 -0.4303 -1.2793  1.0993
 4531SOL     OW14170   5.662   7.090   8.329  0.3360  0.2963 -0.0411
 4531SOL    HW114171   5.674   7.175   8.370  1.3092  0.3414 -0.3871
 4531SOL    HW214172   5.745   7.044   8.344  0.2575 -0.1385 -0.8653
 4532SOL     OW14173   9.557   8.911   7.523 -0.5236  0.8306 -0.2360
 4532SOL    HW114174   9.500   8.958   7.462 -0.0960  0.0445 -1.2590
 4532SOL    HW214175   9.605   8.981   7.569 -0.9073  1.4304 -0.7337
 4533SOL     OW14176   2.907   4.202   5.126 -0.1559 -0.7175  0.1510
 4533SOL    HW114177   2.942   4.226   5.041 -0.0955 -0.2064  0.3173
 4533SOL    HW214178   2.971   4.141   5.162  0.7091  0.3848  0.5503
 4534SOL     OW14179   3.267   4.083   4.457  0.0724 -0.1600 -0.0441
 4534SOL    HW114180   3.229   3.997   4.478  1.4126 -0.2922  2.1771
 4534SOL    HW214181   3.360   4.066   4.444  0.4673  0.9941  1.0373
 4535SOL     OW14182   8.647   7.267   8.223 -0.2444 -0.4378 -0.0138
 4535SOL    HW114183   8.552   7.278   8.218 -0.1445  0.2801 -0.5105
 4535SOL    HW214184   8.682   7.351   8.193  0.5641 -1.3100 -1.6858
 4536SOL     OW14185   9.034   4.327   4.775  0.3085 -0.2487 -0.1628
 4536SOL    HW114186   8.980   4.251   4.798  2.5384 -1.8271  0.2256
 4536SOL    HW214187   9.118   4.309   4.816  1.6409  1.2869 -2.0688
 4537SOL     OW14188   3.002   6.988   8.261 -0.0087 -0.4607 -0.0600
 4537SOL    HW114189   3.086   7.016   8.225  0.1733 -0.3029  0.4692
 4537SOL    HW214190   2.954   6.952   8.187  0.7467 -1.0703 -0.2633
 4538SOL     OW14191   4.674   6.531   5.431 -0.1568  0.7468 -0.0411
 4538SOL    HW114192   4.607   6.534   5.500  0.6963  2.3592  0.7763
 4538SOL    HW214193   4.675   6.440   5.403  0.5073 -0.3784  3.1494
 4539SOL     OW14194   3.486   5.542   1.099  0.5283  0.6679  0.0647
 4539SOL    HW114195   3.539   5.485   1.044  0.7328  1.7292 -0.8677
 4539SOL    HW214196   3.476   5.493   1.181  1.1443 -0.4620 -0.5027
 4540SOL     OW14197   6.305   6.324   2.488  0.5417 -0.1487  0.1975
 4540SOL    HW114198   6.285   6.313   2.581  0.0539  2.3533  0.4625
 4540SOL    HW214199   6.270   6.245   2.446  0.9379 -1.4169  2.1215
 4541SOL     OW14200   1.753   9.129   4.019  0.0793  0.6479  0.0728
 4541SOL    HW114201   1.848   9.142   4.018  0.5933 -2.3605 -2.0866
 4541SOL    HW214202   1.735   9.092   4.106  1.8070 -3.1974 -0.9753
 4542SOL     OW14203   7.588   2.664   5.268  0.0769 -0.3273 -0.1647
 4542SOL    HW114204   7.677   2.653   5.238  0.2885 -0.1760  0.3837
 4542SOL    HW214205   7.540   2.697   5.192 -0.3698 -3.8775 -1.5928
 4543SOL     OW14206   9.555   4.314   2.730  0.2188 -0.1025  0.1571
 4543SOL    HW114207   9.602   4.282   2.653 -0.6253 -0.4133 -0.2398
 4543SOL    HW214208   9.476   4.260   2.734 -0.8215  1.3607 -0.0246
 4544SOL     OW14209   0.159   7.382   5.235  0.1758 -0.2394 -0.2290
 4544SOL    HW114210   0.180   7.357   5.146  1.0754 -0.1822 -0.0422
 4544SOL    HW214211   0.228   7.443   5.260 -1.7337  2.2241 -0.5441
 4545SOL     OW14212   3.344   8.716   1.125 -0.3649  0.3259 -0.6671
 4545SOL    HW114213   3.341   8.626   1.158  0.7506  0.9194  1.1961
 4545SOL    HW214214   3.328   8.708   1.031 -2.4779 -1.5884 -0.2272
 4546SOL     OW14215   7.932   6.242   7.360 -0.4248 -0.3929  0.3614
 4546SOL    HW114216   7.991   6.309   7.396  0.1626 -1.5269  1.6086
 4546SOL    HW214217   7.957   6.161   7.406 -2.1955 -1.1409  0.0790
 4547SOL     OW14218   4.033   8.116   9.369 -0.5870  0.3106  0.4119
 4547SOL    HW114219   4.015   8.022   9.368  0.5895  0.0268 -2.4108
 4547SOL    HW214220   4.114   8.125   9.419 -1.6253  0.1212  2.2430
 4548SOL     OW14221   9.279   7.526   8.452 -0.1387  0.0620 -0.5404
 4548SOL    HW114222   9.339   7.588   8.412  0.9681 -0.1309  0.7248
 4548SOL    HW214223   9.279   7.549   8.545 -0.5988 -1.0941 -0.2340
 4549SOL     OW14224   4.044   1.282   8.666 -0.2649  0.2279  0.1891
 4549SOL    HW114225   4.045   1.231   8.747 -3.1097  1.1590  0.9278
 4549SOL    HW214226   4.089   1.364   8.688  1.6654 -0.6858 -0.1368
 4550SOL     OW14227   2.970   7.316   1.452 -0.0809  0.3254 -0.4090
 4550SOL    HW114228   3.023   7.387   1.416  0.2890  0.3539  0.1808
 4550SOL    HW214229   2.895   7.360   1.491 -0.1908  0.3392 -0.6347
 4551SOL     OW14230   7.779   6.025   0.268  0.2585  0.1913 -0.0198
 4551SOL    HW114231   7.702   6.012   0.322  0.4195  1.1479  0.4713
 4551SOL    HW214232   7.769   6.113   0.233  0.3603 -0.2658 -1.2351
 4552SOL     OW14233   1.972   2.176   4.745 -0.2993 -0.0739 -0.6452
 4552SOL    HW114234   2.047   2.231   4.722  0.2088 -0.5775 -0.2181
 4552SOL    HW214235   2.011   2.099   4.785 -1.0843  0.0038  0.2997
 4553SOL     OW14236   8.629   1.485   9.063 -0.2587  0.1839 -0.2979
 4553SOL    HW114237   8.690   1.426   9.108 -1.9073 -1.0230  0.4698
 4553SOL    HW214238   8.542   1.454   9.088 -1.2404  1.1278 -2.2459
 4554SOL     OW14239   9.235   1.285   6.367  0.8886  0.5441  0.4052
 4554SOL    HW114240   9.161   1.229   6.390  0.7138 -0.4080 -2.0779
 4554SOL    HW214241   9.196   1.369   6.345  0.5842  0.2424 -0.2476
 4555SOL     OW14242   1.277   9.781   3.352  0.1836  0.2035 -0.1682
 4555SOL    HW114243   1.231   9.714   3.301 -0.5329 -0.0342  0.7731
 4555SOL    HW214244   1.210   9.846   3.372  0.9328  1.4043 -1.3413
 4556SOL     OW14245   9.442   5.809   3.322  0.0004  0.0909  0.1416
 4556SOL    HW114246   9.357   5.772   3.349  1.2264 -2.2538  1.0338
 4556SOL    HW214247   9.485   5.738   3.276  1.0567  1.6414 -1.3605
 4557SOL     OW14248   9.357   7.009   3.314 -0.0612  0.3727 -0.5022
 4557SOL    HW114249   9.314   7.094   3.302 -0.3224  0.0116 -2.4125
 4557SOL    HW214250   9.445   7.030   3.345 -0.6530  1.2486  0.6564
 4558SOL     OW14251   4.486   2.265   6.703  0.4208 -0.3608 -0.1589
 4558SOL    HW114252   4.422   2.334   6.721  0.8212 -0.2073  0.7182
 4558SOL    HW214253   4.566   2.311   6.680  0.8860 -0.5034  1.1036
 4559SOL     OW14254   0.244   1.823   9.426  0.3026  0.2007  0.2901
 4559SOL    HW114255   0.312   1.854   9.486 -1.7150  2.2072  1.6929
 4559SOL    HW214256   0.214   1.741   9.465  1.5100 -0.4282 -0.0553
 4560SOL     OW14257   5.011   8.742   1.173 -0.6429 -0.2735  0.3435
 4560SOL    HW114258   5.030   8.721   1.265 -1.3572  0.6408  0.7222
 4560SOL    HW214259   5.039   8.665   1.124  2.4074  0.2823  1.0139
 4561SOL     OW14260   2.522   8.524   6.541 -0.0772  0.2670  0.5242
 4561SOL    HW114261   2.509   8.440   6.498 -0.8201 -0.0620  1.3515
 4561SOL    HW214262   2.437   8.569   6.532 -0.3725  0.0442  1.9154
 4562SOL     OW14263   8.940   6.131   3.409 -0.3106 -0.0967 -0.0816
 4562SOL    HW114264   8.942   6.036   3.417 -1.1914 -0.1207 -0.0391
 4562SOL    HW214265   9.030   6.159   3.427  0.2862 -1.0154 -1.4397
 4563SOL     OW14266   8.131   3.629   5.698  0.2356  0.3059  0.1900
 4563SOL    HW114267   8.064   3.589   5.642  1.4510 -1.4873 -0.0652
 4563SOL    HW214268   8.081   3.676   5.765 -1.2701 -0.7981 -0.1045
 4564SOL     OW14269   0.840   4.902   4.747  0.2933  0.2787 -0.0854
 4564SOL    HW114270   0.890   4.980   4.719  0.8016 -0.5801 -1.7131
 4564SOL    HW214271   0.808   4.924   4.834  0.4496  2.3101 -0.4899
 4565SOL     OW14272   6.256   2.687   1.928  0.3650 -0.6205  0.6022
 4565SOL    HW114273   6.317   2.734   1.986  0.5721 -0.1684  0.0222
 4565SOL    HW214274   6.292   2.599   1.920  2.0361  0.1687 -1.2872
 4566SOL     OW14275   2.614   6.449   0.856 -0.2899  0.0817 -0.0903
 4566SOL    HW114276   2.627   6.498   0.775  0.0533  0.5929  0.2704
 4566SOL    HW214277   2.626   6.357   0.830  3.4216  0.3893  0.0255
 4567SOL     OW14278   1.132   7.188   9.390  0.2442 -0.6692 -0.6864
 4567SOL    HW114279   1.219   7.222   9.410 -0.4073  0.8266 -0.2019
 4567SOL    HW214280   1.122   7.200   9.296 -0.1738  1.1071 -0.4584
 4568SOL     OW14281   0.751   1.135   4.728  0.4626 -0.2785  0.2903
 4568SOL    HW114282   0.747   1.054   4.779  0.3610 -0.1685  0.4593
 4568SOL    HW214283   0.698   1.117   4.650  0.2667 -0.3051  0.4269
 4569SOL     OW14284   5.998   5.879   1.477 -0.2652 -0.5910  0.5792
 4569SOL    HW114285   5.932   5.813   1.457 -1.6178  0.6324  0.7862
 4569SOL    HW214286   6.059   5.876   1.404 -0.9774 -1.2529  0.0037
 4570SOL     OW14287   7.041   8.648   5.437  0.3837 -0.1174  0.4039
 4570SOL    HW114288   7.021   8.683   5.524  0.5062 -0.4365  0.5609
 4570SOL    HW214289   7.038   8.553   5.448 -0.2465 -0.1618 -0.0918
 4571SOL     OW14290   6.500   5.499   9.443 -0.0984  0.4919  0.4539
 4571SOL    HW114291   6.408   5.510   9.416 -0.0419  0.6772  0.3408
 4571SOL    HW214292   6.500   5.416   9.491 -0.1173 -0.0718 -0.4929
 4572SOL     OW14293   2.048   3.070   4.995  0.2380  0.5071  0.3268
 4572SOL    HW114294   1.998   3.011   4.939 -0.9981 -0.0008  1.8727
 4572SOL    HW214295   2.042   3.155   4.952 -0.2459  0.0385 -0.5521
 4573SOL     OW14296   2.705   1.386   8.419 -0.3557  0.1776  0.0366
 4573SOL    HW114297   2.665   1.327   8.355 -0.8950  1.2944 -0.6896
 4573SOL    HW214298   2.798   1.363   8.418 -0.5952 -0.8380 -0.0215
 4574SOL     OW14299   6.376   3.270   1.082  0.1395 -0.3009  0.3207
 4574SOL    HW114300   6.453   3.297   1.133  0.5374  0.0996 -0.4705
 4574SOL    HW214301   6.401   3.288   0.991 -1.3367  0.9291  0.1295
 4575SOL     OW14302   2.210   0.762   6.297 -0.3369  0.1294  0.0046
 4575SOL    HW114303   2.262   0.836   6.266 -1.0215 -0.1402 -1.9753
 4575SOL    HW214304   2.236   0.689   6.240 -1.7242 -0.3878 -0.0122
 4576SOL     OW14305   3.487   4.877   1.450 -0.5736  0.1834  0.0403
 4576SOL    HW114306   3.534   4.808   1.404 -0.4662  0.8605 -0.8925
 4576SOL    HW214307   3.479   4.845   1.540 -0.5184 -1.0258 -0.3729
 4577SOL     OW14308   1.995   4.802   8.206  0.3750  0.1272  0.0587
 4577SOL    HW114309   1.913   4.814   8.255  1.4671  1.6192  1.6061
 4577SOL    HW214310   1.973   4.828   8.117 -0.1250  3.6941  1.0802
 4578SOL     OW14311   6.686   9.257   3.341 -0.6453 -0.5469  0.0015
 4578SOL    HW114312   6.605   9.235   3.387 -0.6891  0.2578  0.3199
 4578SOL    HW214313   6.711   9.176   3.297 -2.8563 -0.2633 -2.0275
 4579SOL     OW14314   2.999   0.512   6.905  0.5484 -0.3204 -1.1249
 4579SOL    HW114315   3.044   0.498   6.822 -0.1955 -2.0341 -1.2815
 4579SOL    HW214316   2.968   0.602   6.901 -0.3174 -0.6560 -3.1479
 4580SOL     OW14317   1.748   6.435   5.835 -0.3119  0.3390 -0.6385
 4580SOL    HW114318   1.822   6.386   5.801 -0.3635  0.5223 -1.0267
 4580SOL    HW214319   1.721   6.492   5.762 -0.2580  0.9369 -0.2026
 4581SOL     OW14320   1.899   6.231   7.061 -0.6798  0.0860 -0.2138
 4581SOL    HW114321   1.880   6.173   7.134  0.4948  0.5171  0.4624
 4581SOL    HW214322   1.823   6.222   7.003 -0.5615 -2.0457 -0.1146
 4582SOL     OW14323   1.960   0.354   8.767  0.6601 -0.1863  0.4492
 4582SOL    HW114324   1.912   0.312   8.695  1.3064  2.3156 -1.6240
 4582SOL    HW214325   2.042   0.305   8.773 -0.1433 -1.5168  0.7085
 4583SOL     OW14326   7.494   0.838   0.055 -0.6000 -0.1811  0.0225
 4583SOL    HW114327   7.410   0.791   0.052  0.8383 -2.9876  0.7432
 4583SOL    HW214328   7.539   0.812  -0.026 -0.4046  1.3990 -0.4153
 4584SOL     OW14329   1.647   1.851   1.519 -0.0316  0.2374 -0.4988
 4584SOL    HW114330   1.590   1.799   1.576 -0.9228  1.3046 -0.3749
 4584SOL    HW214331   1.708   1.895   1.579 -1.2431  1.6976 -0.2719
 4585SOL     OW14332   5.064   0.596   0.519  0.3368  0.1776 -0.0276
 4585SOL    HW114333   5.098   0.678   0.554 -0.7704  1.3007 -1.4420
 4585SOL    HW214334   5.022   0.621   0.437 -1.8576 -1.4736  0.5033
 4586SOL     OW14335   1.113   3.481   8.365 -0.0515  0.3096 -0.7142
 4586SOL    HW114336   1.118   3.393   8.329  0.0678  0.1990 -0.4377
 4586SOL    HW214337   1.040   3.523   8.319 -1.1861 -0.4839  0.3098
 4587SOL     OW14338   9.414   8.856   6.324  0.2797 -1.0426 -0.2626
 4587SOL    HW114339   9.477   8.784   6.332  1.8513  0.3947  1.4653
 4587SOL    HW214340   9.402   8.867   6.230  2.1244 -1.8386 -0.6415
 4588SOL     OW14341   1.369   9.312   1.995 -0.1640  0.1938 -0.3140
 4588SOL    HW114342   1.298   9.358   1.949 -0.3268  0.2043 -0.0553
 4588SOL    HW214343   1.431   9.290   1.926 -0.6146 -0.1864 -0.6074
 4589SOL     OW14344   0.552   3.131   3.028 -0.5369  0.4205 -0.2161
 4589SOL    HW114345   0.536   3.046   3.070 -1.5454  0.3366 -0.7314
 4589SOL    HW214346   0.643   3.127   3.001 -0.5230 -0.4370 -0.0858
 4590SOL     OW14347   6.898   4.878   5.797 -0.8430  0.6115 -0.0392
 4590SOL    HW114348   6.832   4.903   5.732  0.2411  0.6714 -1.1509
 4590SOL    HW214349   6.979   4.917   5.765 -0.2787  0.6766  1.3885
 4591SOL     OW14350   4.403   1.738   6.506  0.2781 -0.8306 -1.0800
 4591SOL    HW114351   4.364   1.819   6.475  1.9454  0.0331 -1.0094
 4591SOL    HW214352   4.488   1.733   6.463  0.1309 -2.6628 -1.2572
 4592SOL     OW14353   8.480   6.584   1.756 -0.3819 -0.0496 -0.2949
 4592SOL    HW114354   8.530   6.560   1.835  0.1774  1.5606 -0.1176
 4592SOL    HW214355   8.541   6.636   1.704 -1.7695  1.7617 -0.1981
 4593SOL     OW14356   1.807   3.763   5.146 -0.2558 -0.4450  0.9826
 4593SOL    HW114357   1.824   3.737   5.237  0.9628 -0.6545  0.7211
 4593SOL    HW214358   1.743   3.833   5.153 -1.7600 -1.8436  1.8618
 4594SOL     OW14359   4.261   3.240   6.815 -0.0861 -0.2475 -0.1254
 4594SOL    HW114360   4.354   3.233   6.795 -0.0557  0.1020 -0.1130
 4594SOL    HW214361   4.258   3.249   6.910 -0.2678 -2.6362  0.1578
 4595SOL     OW14362   9.030   5.110   9.582  0.1539 -0.2864 -0.4013
 4595SOL    HW114363   9.056   5.136   9.671  2.3045 -0.0679 -1.0478
 4595SOL    HW214364   8.936   5.130   9.578  0.1026  0.1221  1.6626
 4596SOL     OW14365   2.293   9.024   6.502  0.2458  0.2130  0.1024
 4596SOL    HW114366   2.269   9.083   6.430  1.1170  2.7017  1.7152
 4596SOL    HW214367   2.227   9.041   6.570 -0.2241 -1.6622  0.1744
 4597SOL     OW14368   3.256   3.148   8.590  0.2124 -0.4522  0.1333
 4597SOL    HW114369   3.323   3.191   8.536 -0.6466 -1.5650 -1.9371
 4597SOL    HW214370   3.299   3.069   8.622  0.7915  0.3128  1.3571
 4598SOL     OW14371   3.886   2.980   4.778  0.4594  0.4703 -0.0601
 4598SOL    HW114372   3.830   2.988   4.855  1.9246  0.2166  1.0677
 4598SOL    HW214373   3.835   2.925   4.718 -0.2974 -0.1711  1.1213
 4599SOL     OW14374   2.277   6.185   8.635 -0.1927  0.5680 -0.0296
 4599SOL    HW114375   2.351   6.179   8.696  0.5278  1.0097 -0.8418
 4599SOL    HW214376   2.316   6.212   8.552 -1.3718  1.7378 -0.2487
 4600SOL     OW14377   8.923   9.022   6.648 -0.0006 -0.4368  0.4264
 4600SOL    HW114378   8.998   8.964   6.633 -0.6966 -0.9969 -1.1635
 4600SOL    HW214379   8.913   9.070   6.566  0.0665  1.4078  1.4413
 4601SOL     OW14380   3.453   0.181   1.637  0.1180 -0.6598  0.0428
 4601SOL    HW114381   3.498   0.200   1.719  0.8490 -0.7216 -0.3312
 4601SOL    HW214382   3.523   0.153   1.577 -0.4770 -1.1533 -0.4351
 4602SOL     OW14383   4.295   7.765   1.449 -0.3734 -0.2568  0.2064
 4602SOL    HW114384   4.318   7.704   1.519 -1.9436 -2.3014 -0.9563
 4602SOL    HW214385   4.229   7.719   1.398 -1.5612  2.4090 -0.8358
 4603SOL     OW14386   1.240   5.196   1.576  0.2066 -0.2865 -0.0229
 4603SOL    HW114387   1.287   5.265   1.530  0.2752 -1.5079 -1.8852
 4603SOL    HW214388   1.180   5.159   1.511  0.7918 -2.5759  0.6198
 4604SOL     OW14389   1.827   2.589   8.925 -0.3278  0.1243 -0.0501
 4604SOL    HW114390   1.922   2.598   8.931  0.0653 -2.3098 -1.2836
 4604SOL    HW214391   1.805   2.529   8.996 -0.8280  0.0944 -0.2274
 4605SOL     OW14392   5.609   4.541   6.151  0.0242  0.1049 -0.3066
 4605SOL    HW114393   5.670   4.607   6.118  1.0728 -1.3350 -1.4377
 4605SOL    HW214394   5.592   4.485   6.075 -2.8126  0.4949 -0.0344
 4606SOL     OW14395   2.315   1.999   3.280  0.7226 -0.1626  0.1842
 4606SOL    HW114396   2.391   2.054   3.260 -0.3699  1.0056 -0.9734
 4606SOL    HW214397   2.301   2.012   3.374  1.0360  0.8279  0.1079
 4607SOL     OW14398   1.223   4.564   7.693  0.0944  0.0565 -0.3233
 4607SOL    HW114399   1.249   4.620   7.766 -0.2420 -1.3896  0.9667
 4607SOL    HW214400   1.143   4.604   7.660 -1.0434 -0.4720  1.6129
 4608SOL     OW14401   7.058   6.120   1.710 -0.2519  0.1269  0.1437
 4608SOL    HW114402   7.040   6.151   1.799 -0.2873  0.8953 -0.1295
 4608SOL    HW214403   7.038   6.194   1.653  0.6652 -0.0451 -0.4368
 4609SOL     OW14404   3.813   2.720   7.450  0.5607 -0.1522  0.1170
 4609SOL    HW114405   3.739   2.661   7.437 -1.0373  1.3682  1.9106
 4609SOL    HW214406   3.889   2.661   7.457 -1.0320 -2.0810  2.3802
 4610SOL     OW14407   6.601   5.428   6.002  0.4826  0.7277  0.1302
 4610SOL    HW114408   6.609   5.367   5.928  0.1669  1.4641 -0.5349
 4610SOL    HW214409   6.512   5.462   5.994 -0.4897 -1.0713  2.3779
 4611SOL     OW14410   5.638   1.275   1.751  0.1241  0.2516 -0.0875
 4611SOL    HW114411   5.697   1.201   1.767  1.0015  1.0286  0.4051
 4611SOL    HW214412   5.570   1.265   1.818 -0.1692 -0.4987 -0.4802
 4612SOL     OW14413   5.252   6.925   9.634  0.0787 -0.0403  0.1536
 4612SOL    HW114414   5.346   6.921   9.618  0.2327  0.1511  0.9531
 4612SOL    HW214415   5.215   6.962   9.554  0.2702 -3.2531 -1.5684
 4613SOL     OW14416   4.181   1.552   0.444  0.0742  0.5083  0.5027
 4613SOL    HW114417   4.172   1.457   0.444 -0.2267  0.5241 -0.7261
 4613SOL    HW214418   4.231   1.572   0.524  1.1570 -0.7763  0.1730
 4614SOL     OW14419   9.899   3.398   8.221  0.3383  0.5681  0.4216
 4614SOL    HW114420   9.947   3.439   8.293 -0.3311  1.6657  0.2713
 4614SOL    HW214421   9.902   3.462   8.150 -2.9343  1.5996  1.0335
 4615SOL     OW14422   7.123   0.445   0.129  0.1006  0.1982  0.0838
 4615SOL    HW114423   7.082   0.474   0.210 -0.5677  2.6804 -1.0461
 4615SOL    HW214424   7.217   0.443   0.150 -0.0913  0.4524  1.0242
 4616SOL     OW14425   4.090   1.278   9.473 -0.5836  0.0545 -0.3237
 4616SOL    HW114426   4.082   1.302   9.381  2.2736  0.2876 -0.5997
 4616SOL    HW214427   4.145   1.200   9.473 -0.6314 -0.0115  1.1912
 4617SOL     OW14428   7.855   4.005   3.503  0.0669 -0.3697  0.5151
 4617SOL    HW114429   7.930   4.055   3.471  0.0301  1.5010  3.1166
 4617SOL    HW214430   7.790   4.012   3.432  1.4737 -0.0923 -0.8059
 4618SOL     OW14431   6.154   6.193   4.323  0.1442 -0.6502 -0.9205
 4618SOL    HW114432   6.168   6.286   4.302  0.3318 -0.6249 -0.6944
 4618SOL    HW214433   6.242   6.157   4.331  0.1467 -0.3338  1.1569
 4619SOL     OW14434   2.333   4.881   3.528 -0.2847 -0.6619  0.5299
 4619SOL    HW114435   2.384   4.851   3.453 -0.4296  0.2899  0.0398
 4619SOL    HW214436   2.398   4.919   3.587 -0.5510  2.3518 -0.9598
 4620SOL     OW14437   1.920   1.876   6.987 -0.4216  0.1658  0.3243
 4620SOL    HW114438   1.875   1.793   6.996  0.1594 -0.5712 -2.4682
 4620SOL    HW214439   2.013   1.853   6.984 -0.1708  1.0603  0.8597
 4621SOL     OW14440   0.487   2.344   7.612 -0.6086 -0.1165 -0.0872
 4621SOL    HW114441   0.565   2.356   7.557 -0.1152  2.1070  0.9899
 4621SOL    HW214442   0.425   2.298   7.555  0.7844 -0.2055 -1.6283
 4622SOL     OW14443   7.235   2.219   1.771 -0.4064  0.5077  0.3106
 4622SOL    HW114444   7.142   2.201   1.754 -0.1055  0.2144 -1.1742
 4622SOL    HW214445   7.271   2.134   1.796 -0.1705  0.2101 -0.9785
 4623SOL     OW14446   9.727   4.126   7.893 -0.2645 -0.1587 -0.1078
 4623SOL    HW114447   9.747   4.219   7.900  1.0634 -0.4065 -0.3048
 4623SOL    HW214448   9.634   4.120   7.912 -0.0694  1.0356  1.3800
 4624SOL     OW14449   0.858   8.020   2.728 -0.4096  0.3310  0.3367
 4624SOL    HW114450   0.765   8.037   2.742 -0.0653  2.5918  0.1853
 4624SOL    HW214451   0.892   8.100   2.689  1.2069 -1.2148 -1.6415
 4625SOL     OW14452   4.712   0.122   3.469 -0.1293 -0.2403 -0.6894
 4625SOL    HW114453   4.633   0.074   3.493  0.0109 -0.8060 -1.3604
 4625SOL    HW214454   4.691   0.213   3.491  0.3730 -0.7855  2.6203
 4626SOL     OW14455   8.456   4.450   4.025 -0.2455  0.5482  0.0549
 4626SOL    HW114456   8.480   4.508   4.097  0.5299  2.1397 -1.3876
 4626SOL    HW214457   8.540   4.427   3.984 -0.7626  1.9389 -1.9528
 4627SOL     OW14458   0.038   8.155   9.401  0.6102 -0.3991 -0.3791
 4627SOL    HW114459   0.036   8.240   9.358 -2.7495  0.1083  0.5213
 4627SOL    HW214460   0.112   8.161   9.462 -0.1289  2.3425  0.4219
 4628SOL     OW14461   6.789   5.010   3.910 -0.3925  0.1224 -0.3442
 4628SOL    HW114462   6.757   5.022   3.820 -1.0624  0.7253 -0.0462
 4628SOL    HW214463   6.710   5.022   3.964  0.1318  0.4817  0.3550
 4629SOL     OW14464   0.528   7.610   5.871 -0.1101  0.6596  0.2875
 4629SOL    HW114465   0.498   7.524   5.841  1.4571 -0.1528  0.9196
 4629SOL    HW214466   0.617   7.618   5.836  0.2352  1.4579  1.2940
 4630SOL     OW14467   8.386   2.784   0.320  0.0182 -0.6116  0.0032
 4630SOL    HW114468   8.335   2.726   0.264  0.3627  0.7967 -1.8765
 4630SOL    HW214469   8.473   2.786   0.280  0.0363  1.1025  0.0604
 4631SOL     OW14470   1.467   2.357   2.671 -0.5915  0.1602  0.3747
 4631SOL    HW114471   1.476   2.420   2.742  0.5955  0.7520 -0.2791
 4631SOL    HW214472   1.438   2.277   2.714  2.5871 -0.2798  1.9893
 4632SOL     OW14473   3.649   1.352   2.165 -0.0623  0.3808 -0.4976
 4632SOL    HW114474   3.721   1.290   2.170 -0.4544 -0.1749 -1.5026
 4632SOL    HW214475   3.688   1.431   2.126  0.0078  0.0675 -1.0803
 4633SOL     OW14476   9.675   2.091   7.923  0.3247 -0.0941 -0.3443
 4633SOL    HW114477   9.590   2.066   7.958  0.2260 -0.9569 -1.1853
 4633SOL    HW214478   9.711   2.011   7.887  0.1520  0.8420 -2.7858
 4634SOL     OW14479   1.231   1.381   4.610 -0.1154 -0.2689  0.4939
 4634SOL    HW114480   1.148   1.430   4.605  0.8222  1.2686 -1.0734
 4634SOL    HW214481   1.205   1.289   4.604 -1.7143  0.1686  0.1373
 4635SOL     OW14482   7.491   8.039   4.249 -0.3913  0.0873  0.2804
 4635SOL    HW114483   7.472   7.971   4.183  1.6392 -1.1583  0.8904
 4635SOL    HW214484   7.503   8.119   4.198 -0.4401 -0.5186 -0.7161
 4636SOL     OW14485   2.258   8.502   3.546  0.5470  0.0039  0.2053
 4636SOL    HW114486   2.296   8.589   3.543  1.6429 -0.4983 -1.8238
 4636SOL    HW214487   2.333   8.442   3.541 -0.1991 -1.0861  1.2816
 4637SOL     OW14488   9.761   7.101   9.170 -0.1323 -0.2925  0.1376
 4637SOL    HW114489   9.708   7.023   9.190  1.4811 -1.8030 -1.1557
 4637SOL    HW214490   9.844   7.086   9.216 -0.0449  1.0499  0.4675
 4638SOL     OW14491   5.619   7.891   7.199  0.6609  0.1616 -0.2360
 4638SOL    HW114492   5.635   7.812   7.147  1.1213  0.4820 -0.5743
 4638SOL    HW214493   5.689   7.892   7.264 -0.6432 -0.9605  1.2849
 4639SOL     OW14494   5.487   8.274   2.570 -0.2114  0.7122 -0.1926
 4639SOL    HW114495   5.501   8.285   2.476 -0.7957  1.7643 -0.1743
 4639SOL    HW214496   5.406   8.222   2.576  1.3995 -1.9755 -0.2610
 4640SOL     OW14497   7.106   3.103   8.878 -0.3160  0.1776  0.2418
 4640SOL    HW114498   7.097   3.172   8.944  0.2260 -0.5568  1.1086
 4640SOL    HW214499   7.016   3.076   8.859 -0.6164  1.7585 -0.8402
 4641SOL     OW14500   3.749   0.361   2.069 -0.0850  0.0796 -0.4624
 4641SOL    HW114501   3.823   0.393   2.017  0.3494 -1.1166 -0.6049
 4641SOL    HW214502   3.759   0.266   2.070  0.8747  0.0726  3.1680
 4642SOL     OW14503   0.751   1.293   2.465  0.3224  0.1868 -0.2196
 4642SOL    HW114504   0.764   1.215   2.410 -0.2252 -0.2965  0.3176
 4642SOL    HW214505   0.831   1.344   2.454  0.0900  0.2814 -1.7527
 4643SOL     OW14506   4.082   1.474   5.599 -0.2451  0.3316  0.0089
 4643SOL    HW114507   4.148   1.415   5.563 -0.2951  0.3210 -0.0672
 4643SOL    HW214508   4.132   1.549   5.632 -0.0024 -0.5129  1.6907
 4644SOL     OW14509   4.900   1.626   3.387 -0.2451 -0.1537 -0.4561
 4644SOL    HW114510   4.827   1.661   3.438 -0.2748  1.4035 -1.5110
 4644SOL    HW214511   4.978   1.652   3.437 -0.3257  0.2542 -0.5369
 4645SOL     OW14512   4.399   9.803   0.649  0.8698  0.5441 -0.3255
 4645SOL    HW114513   4.325   9.860   0.671  0.5744 -0.0920  0.3592
 4645SOL    HW214514   4.379   9.771   0.561 -0.7792 -1.3192  0.6559
 4646SOL     OW14515   7.996   2.329   8.959  0.6069  0.4039 -0.6324
 4646SOL    HW114516   7.959   2.242   8.949  1.2882  0.0855 -0.4127
 4646SOL    HW214517   8.091   2.317   8.947  0.8852  0.8591  0.8815
 4647SOL     OW14518   1.540   4.979   3.443  0.5437  0.4150  0.3468
 4647SOL    HW114519   1.459   4.957   3.397  1.2009  0.2338 -0.7410
 4647SOL    HW214520   1.510   5.010   3.529 -0.7766  1.8655 -0.5774
 4648SOL     OW14521   3.454   8.774   1.360 -0.6339 -0.5102  0.8723
 4648SOL    HW114522   3.550   8.778   1.358 -0.6560 -0.0628 -0.5198
 4648SOL    HW214523   3.429   8.769   1.268 -1.9980  0.5126  1.1595
 4649SOL     OW14524   1.143   1.255   7.305 -0.5256 -0.0354 -0.3646
 4649SOL    HW114525   1.145   1.347   7.279  1.3131  0.5050  1.4586
 4649SOL    HW214526   1.234   1.228   7.305 -0.8165 -1.1726  1.3362
 4650SOL     OW14527   7.940   1.908   7.883 -0.6017 -0.2160 -0.4877
 4650SOL    HW114528   7.878   1.902   7.956 -0.7706  0.2270 -0.5888
 4650SOL    HW214529   7.983   1.823   7.881 -1.6301 -0.7472 -0.7949
 4651SOL     OW14530   7.743   9.556   6.129  0.2493  0.8514  0.0355
 4651SOL    HW114531   7.727   9.482   6.188 -1.8714  0.5257 -0.8496
 4651SOL    HW214532   7.837   9.573   6.136  0.2945 -0.0572  2.4388
 4652SOL     OW14533   7.388   0.341   0.206  0.2357 -0.3620  0.5036
 4652SOL    HW114534   7.444   0.368   0.279 -0.7578  0.8888  0.8426
 4652SOL    HW214535   7.433   0.372   0.128  1.0197 -1.1877  0.6154
 4653SOL     OW14536   9.168   9.543   1.219  0.3660  0.0417  0.1625
 4653SOL    HW114537   9.108   9.598   1.271 -0.5722 -0.0936 -0.7391
 4653SOL    HW214538   9.204   9.481   1.282 -0.2871  0.2588  0.7731
 4654SOL     OW14539   2.724   3.608   1.928 -0.0840 -0.1232 -0.1672
 4654SOL    HW114540   2.634   3.617   1.897  0.1462  1.0295 -0.5354
 4654SOL    HW214541   2.718   3.542   1.998 -1.5135  1.1905  1.0251
 4655SOL     OW14542   9.697   0.319   0.616  0.5495  0.3141 -0.2109
 4655SOL    HW114543   9.683   0.411   0.593  2.2782  0.6688  0.0590
 4655SOL    HW214544   9.773   0.319   0.673 -0.1161 -1.1886  0.7509
 4656SOL     OW14545   3.589   7.707   4.241 -0.4449 -0.3642 -0.3076
 4656SOL    HW114546   3.580   7.798   4.270 -0.8128 -0.5342  0.1373
 4656SOL    HW214547   3.515   7.662   4.283  0.1441 -1.0087  0.0583
 4657SOL     OW14548   8.116   8.157   8.098 -0.1826  0.1206  0.1553
 4657SOL    HW114549   8.069   8.079   8.070  0.9050 -0.6152  0.3239
 4657SOL    HW214550   8.080   8.228   8.044 -0.4642 -0.6717 -0.7156
 4658SOL     OW14551   0.414   4.559   8.789 -0.3803  0.2974  0.0670
 4658SOL    HW114552   0.394   4.466   8.788  0.8306  0.0096 -1.9932
 4658SOL    HW214553   0.499   4.566   8.745 -1.4115  2.5530 -1.7639
 4659SOL     OW14554   5.144   6.509   7.123  0.5789  0.2103 -0.1121
 4659SOL    HW114555   5.234   6.478   7.136  0.4400  0.1042  0.6553
 4659SOL    HW214556   5.103   6.500   7.209 -0.0450  0.6597 -0.3537
 4660SOL     OW14557   0.042   6.772   0.755  0.2826  0.6854  0.1135
 4660SOL    HW114558   0.065   6.785   0.847 -0.9542 -1.2669  0.7406
 4660SOL    HW214559  -0.050   6.796   0.749  0.5069  1.4003 -0.7813
 4661SOL     OW14560   0.105   4.111   5.398  0.3711  0.0943 -0.3469
 4661SOL    HW114561   0.095   4.149   5.485  2.7058 -1.3703  0.6674
 4661SOL    HW214562   0.127   4.184   5.341  1.8838  0.6790  0.9475
 4662SOL     OW14563   5.575   2.232   4.720 -0.1711 -0.2796  0.1450
 4662SOL    HW114564   5.572   2.300   4.652 -0.1835  1.6918  2.0165
 4662SOL    HW214565   5.660   2.190   4.707 -0.0174  0.2921 -0.8791
 4663SOL     OW14566   6.800   3.759   1.976 -0.5070  0.0637 -0.1456
 4663SOL    HW114567   6.719   3.808   1.965  0.6398  1.7139 -1.9630
 4663SOL    HW214568   6.801   3.699   1.902 -0.2539 -0.2541  0.1139
 4664SOL     OW14569   2.132   6.225   8.230  0.1512  0.3408  0.2755
 4664SOL    HW114570   2.059   6.287   8.233 -0.4858 -0.2037 -2.0750
 4664SOL    HW214571   2.204   6.275   8.192 -0.4116 -0.3213 -1.7824
 4665SOL     OW14572   4.834   8.300   3.972 -0.3118  0.0617  0.0305
 4665SOL    HW114573   4.895   8.278   3.902 -0.4632  1.9926 -0.7616
 4665SOL    HW214574   4.888   8.300   4.051  0.2945 -0.1827 -0.3743
 4666SOL     OW14575   8.489   7.034   1.715 -0.0884 -0.5753  0.4098
 4666SOL    HW114576   8.476   6.988   1.798 -1.9680 -1.6757 -0.4201
 4666SOL    HW214577   8.455   6.973   1.649 -0.7364  1.1802 -0.9397
 4667SOL     OW14578   2.065   1.508   2.963  0.3067  0.0243 -0.3892
 4667SOL    HW114579   2.015   1.533   3.041 -0.2278  1.0452 -1.0473
 4667SOL    HW214580   2.130   1.577   2.952 -0.4097  0.5556 -1.5281
 4668SOL     OW14581   7.869   6.803   8.096  0.2870  0.5131  0.5135
 4668SOL    HW114582   7.832   6.746   8.164  0.5917 -0.6614 -0.2610
 4668SOL    HW214583   7.800   6.811   8.031  0.7311 -0.1660 -0.0590
 4669SOL     OW14584   8.619   1.288   5.216 -0.5413 -0.3034  0.0026
 4669SOL    HW114585   8.534   1.247   5.200 -0.5672 -0.5147  0.6361
 4669SOL    HW214586   8.609   1.329   5.302 -0.4385  0.8376 -0.5038
 4670SOL     OW14587   3.730   8.498   6.608 -0.2614 -0.2739 -0.4282
 4670SOL    HW114588   3.741   8.407   6.579 -0.6756 -0.4759  0.0441
 4670SOL    HW214589   3.722   8.493   6.703 -0.2329  0.2625 -0.3936
 4671SOL     OW14590   0.400   4.006   4.844  0.0585 -0.2003  0.1669
 4671SOL    HW114591   0.430   4.096   4.855 -1.0823  0.3731 -1.2428
 4671SOL    HW214592   0.340   3.991   4.917 -0.1989  0.3781  0.0753
 4672SOL     OW14593   6.525   6.380   4.445 -0.5769 -0.2650  0.0652
 4672SOL    HW114594   6.493   6.309   4.501  1.3665 -2.2081 -1.1025
 4672SOL    HW214595   6.468   6.378   4.369 -0.7120 -0.3721  0.1681
 4673SOL     OW14596   9.747   2.987   2.161  0.3704  0.3550 -0.8014
 4673SOL    HW114597   9.672   2.929   2.179  0.8095 -0.1762 -0.6732
 4673SOL    HW214598   9.723   3.069   2.204  1.5865 -0.9745  2.8194
 4674SOL     OW14599   6.653   6.184   1.831  0.2048 -0.0872 -0.4336
 4674SOL    HW114600   6.706   6.262   1.850 -0.2159 -0.0731  0.7211
 4674SOL    HW214601   6.701   6.112   1.872  0.3439 -0.3765 -1.0923
 4675SOL     OW14602   3.833   1.566   0.390  0.3790 -0.1268 -0.0268
 4675SOL    HW114603   3.780   1.514   0.329  0.2281  1.4373 -1.2900
 4675SOL    HW214604   3.873   1.633   0.335  0.8786  0.8508  1.4869
 4676SOL     OW14605   4.036   1.027   9.177 -0.2246 -0.7719  0.3863
 4676SOL    HW114606   3.976   1.024   9.251  1.6755  1.9075  2.2200
 4676SOL    HW214607   4.117   0.989   9.210  0.0341 -1.5314 -1.0503
 4677SOL     OW14608   8.836   9.111   0.616  0.4440  0.5282 -0.3512
 4677SOL    HW114609   8.746   9.132   0.590 -0.1496 -0.0580  1.1035
 4677SOL    HW214610   8.882   9.095   0.533 -1.3738 -1.4554 -1.0753
 4678SOL     OW14611   1.259   6.488   0.181 -0.0163  0.1574  0.3282
 4678SOL    HW114612   1.347   6.476   0.216  0.4711 -4.1355 -1.7600
 4678SOL    HW214613   1.263   6.571   0.133  2.3155  0.8897  1.6193
 4679SOL     OW14614   5.495   0.772   8.204 -0.6588 -0.3708 -0.1333
 4679SOL    HW114615   5.465   0.690   8.165 -0.0976  0.0524 -1.5305
 4679SOL    HW214616   5.587   0.755   8.227 -0.8304 -0.4434  0.5157
 4680SOL     OW14617   4.767   5.423   4.590 -0.1310 -0.2139 -0.9657
 4680SOL    HW114618   4.687   5.371   4.581  0.0204 -0.6951  0.3408
 4680SOL    HW214619   4.834   5.372   4.545 -0.7868  0.8690 -3.3599
 4681SOL     OW14620   0.825   9.143   1.754  0.0466 -0.3994 -0.1687
 4681SOL    HW114621   0.891   9.211   1.743 -0.2025  0.1259  1.2801
 4681SOL    HW214622   0.843   9.106   1.840 -0.4579 -1.4739 -0.5094
 4682SOL     OW14623   0.841   0.452   8.911 -0.4364  0.0771 -0.6624
 4682SOL    HW114624   0.906   0.521   8.895 -0.5276 -0.0476 -1.5921
 4682SOL    HW214625   0.883   0.395   8.976  1.1946 -1.0663 -2.6281
 4683SOL     OW14626   5.530   2.656   6.030 -0.0710  0.6737  0.5895
 4683SOL    HW114627   5.611   2.635   6.077 -0.5942 -1.6178  0.5950
 4683SOL    HW214628   5.553   2.650   5.938 -0.2781 -0.2940  0.5904
 4684SOL     OW14629   7.659   2.148   7.423  0.1006 -0.0598  0.1239
 4684SOL    HW114630   7.698   2.198   7.352  0.6534 -1.9393 -0.9695
 4684SOL    HW214631   7.575   2.117   7.387  0.1973 -0.6941  0.4307
 4685SOL     OW14632   2.182   3.415   0.288 -0.0629  0.4472  0.1137
 4685SOL    HW114633   2.145   3.499   0.260  0.9323 -0.2146 -3.7267
 4685SOL    HW214634   2.163   3.355   0.216  2.5071 -1.6669  1.0241
 4686SOL     OW14635   4.243   5.310   6.691 -0.1258 -0.0787  0.5117
 4686SOL    HW114636   4.305   5.240   6.715 -0.1058 -0.5921 -0.9661
 4686SOL    HW214637   4.157   5.273   6.710 -0.0322  0.5395  2.3214
 4687SOL     OW14638   4.800   3.606   4.375 -0.5713  0.5094  0.1890
 4687SOL    HW114639   4.811   3.621   4.469 -0.8145  1.6339  0.0519
 4687SOL    HW214640   4.863   3.536   4.354 -0.5521  0.2124  1.1880
 4688SOL     OW14641   8.185   4.428   8.529  0.3810 -0.6358  0.1886
 4688SOL    HW114642   8.110   4.384   8.490  0.3494 -1.1535  0.8055
 4688SOL    HW214643   8.149   4.510   8.562  0.5169  0.0463 -1.2958
 4689SOL     OW14644   1.207   1.213   5.456  0.0781  0.7238  0.1682
 4689SOL    HW114645   1.130   1.204   5.512 -0.6645  0.4580 -0.8700
 4689SOL    HW214646   1.240   1.124   5.445 -0.1559  0.6955 -0.3298
 4690SOL     OW14647   4.195   2.691   8.970 -0.1831  0.3503  0.6779
 4690SOL    HW114648   4.190   2.608   9.018 -1.3435  0.4433  0.7476
 4690SOL    HW214649   4.278   2.687   8.924 -0.1367 -0.7766  0.8291
 4691SOL     OW14650   7.558   1.139   5.727 -0.5799 -0.1390 -0.5605
 4691SOL    HW114651   7.571   1.228   5.761  0.8558 -0.2062 -0.8397
 4691SOL    HW214652   7.577   1.082   5.801  1.5067 -0.2547 -1.1028
 4692SOL     OW14653   8.602   4.280   7.886  0.2103 -0.1306 -0.0611
 4692SOL    HW114654   8.647   4.240   7.960  2.7698  2.6412  0.0730
 4692SOL    HW214655   8.668   4.282   7.816 -1.2837 -0.2651 -1.5390
 4693SOL     OW14656   5.983   0.535   6.370  0.2457  0.7235 -0.4490
 4693SOL    HW114657   6.078   0.524   6.371  0.0851 -0.7564  0.3685
 4693SOL    HW214658   5.953   0.484   6.295  0.0878  1.3373 -0.8169
 4694SOL     OW14659   2.158   7.546   7.296  0.4903  0.2957 -0.1949
 4694SOL    HW114660   2.104   7.513   7.225 -0.1247 -0.0450  0.4151
 4694SOL    HW214661   2.156   7.477   7.363  1.9395  0.1410 -0.2692
 4695SOL     OW14662   2.084   2.606   6.617 -0.0037  0.1986 -0.5169
 4695SOL    HW114663   2.120   2.692   6.639 -0.1025  0.2111 -0.4012
 4695SOL    HW214664   2.141   2.543   6.661  0.0624  0.2061 -0.5931
 4696SOL     OW14665   5.234   6.819   5.678  0.2051 -0.0635 -0.4485
 4696SOL    HW114666   5.150   6.839   5.719 -0.9206 -4.0261 -0.4791
 4696SOL    HW214667   5.231   6.864   5.594 -1.0964  1.2515  0.2562
 4697SOL     OW14668   5.069   3.792   8.322 -0.6325  0.5593  0.0859
 4697SOL    HW114669   5.038   3.765   8.408 -2.3490 -0.2862 -0.7274
 4697SOL    HW214670   5.155   3.753   8.313 -0.9908 -0.4538  0.9247
 4698SOL     OW14671   7.624   1.658   4.099 -0.1654  0.3398  0.3787
 4698SOL    HW114672   7.537   1.692   4.079 -0.2907  0.8866  1.7552
 4698SOL    HW214673   7.683   1.708   4.043 -0.6604  0.4382 -0.0661
 4699SOL     OW14674   0.753   9.444   3.257 -0.5836  0.3781 -0.1625
 4699SOL    HW114675   0.808   9.471   3.331 -0.2424  0.4954 -0.4565
 4699SOL    HW214676   0.815   9.410   3.192 -0.9263 -0.2363 -0.1784
 4700SOL     OW14677   3.298   3.771   4.276  0.3816 -0.4845 -0.4564
 4700SOL    HW114678   3.243   3.693   4.272  0.2931 -0.4926  0.6266
 4700SOL    HW214679   3.362   3.752   4.344  0.3604  0.3836 -0.1815
 4701SOL     OW14680   3.885   0.931   4.165 -0.4546  0.5654  0.4725
 4701SOL    HW114681   3.831   0.924   4.086  2.3936  0.5745 -1.6057
 4701SOL    HW214682   3.825   0.911   4.237 -3.2774  0.9658 -1.6128
 4702SOL     OW14683   2.063   9.236   3.165  0.5572  0.0031 -0.7447
 4702SOL    HW114684   2.009   9.314   3.167  0.3368 -0.1709  0.4659
 4702SOL    HW214685   2.029   9.185   3.090 -1.6190 -0.5565  0.5288
 4703SOL     OW14686   3.292   7.286   4.604 -0.3590 -0.3179  0.3307
 4703SOL    HW114687   3.254   7.220   4.661 -0.3755 -1.5360 -1.0254
 4703SOL    HW214688   3.219   7.315   4.549  0.2005 -1.2031 -0.9276
 4704SOL     OW14689   2.797   0.197   3.997  0.1203  0.1020  0.0422
 4704SOL    HW114690   2.851   0.120   4.014 -0.3227 -0.1800  0.1928
 4704SOL    HW214691   2.859   0.269   3.987  0.4944 -0.1335  0.6597
 4705SOL     OW14692   0.006   3.677   9.164  0.0839 -0.3634  0.3561
 4705SOL    HW114693   0.036   3.623   9.237 -1.7511  0.5248  1.8594
 4705SOL    HW214694   0.082   3.684   9.107  0.9123 -3.0017  0.9847
 4706SOL     OW14695   8.534   2.337   4.947 -0.3711 -0.4531  0.5838
 4706SOL    HW114696   8.587   2.337   5.028  2.9657  0.5605 -1.4001
 4706SOL    HW214697   8.510   2.428   4.934  0.0785 -0.4216 -0.0938
 4707SOL     OW14698   7.690   9.656   7.330 -0.1521  0.5968 -0.0278
 4707SOL    HW114699   7.751   9.586   7.308  1.6933  1.5057  1.7632
 4707SOL    HW214700   7.623   9.653   7.262  0.6789 -1.8931 -0.8367
 4708SOL     OW14701   9.338   5.889   0.115 -0.6516  0.2467  0.6264
 4708SOL    HW114702   9.364   5.831   0.187  1.1275  0.4962  0.2291
 4708SOL    HW214703   9.300   5.831   0.049  1.3823 -0.5600  0.1000
 4709SOL     OW14704   9.573   4.731   4.709 -0.3631  0.4879  0.1162
 4709SOL    HW114705   9.633   4.801   4.733 -0.3844  0.6050 -0.1686
 4709SOL    HW214706   9.630   4.665   4.669 -0.4150  0.5674 -0.0878
 4710SOL     OW14707   5.816   6.404   1.637 -0.0126 -0.1556  0.1101
 4710SOL    HW114708   5.820   6.404   1.733  0.2910 -0.8177  0.1104
 4710SOL    HW214709   5.843   6.315   1.613 -0.2770 -0.0526 -0.5826
 4711SOL     OW14710   0.016   4.513   3.368 -0.3259  0.4477 -0.5567
 4711SOL    HW114711   0.034   4.461   3.446 -1.1910  0.9616 -0.0048
 4711SOL    HW214712   0.055   4.462   3.296  2.6067  1.1153  0.4401
 4712SOL     OW14713   7.452   0.287   9.613  0.1043  0.0596 -0.1195
 4712SOL    HW114714   7.378   0.345   9.630  0.1068  0.2084 -0.6020
 4712SOL    HW214715   7.487   0.317   9.529  0.4070 -0.3264 -0.1328
 4713SOL     OW14716   1.317   5.124   8.463 -0.0822  0.2573 -0.0959
 4713SOL    HW114717   1.325   5.165   8.377  1.2193  0.4746  0.1059
 4713SOL    HW214718   1.397   5.151   8.510 -0.7893  0.1873  1.1941
 4714SOL     OW14719   7.470   2.725   6.199  0.1043 -0.4472 -0.1038
 4714SOL    HW114720   7.509   2.638   6.208  2.7909  0.8347  1.9879
 4714SOL    HW214721   7.472   2.762   6.287 -1.1186  1.6971 -0.8993
 4715SOL     OW14722   0.803   5.099   2.877  0.5902 -0.4197  0.8969
 4715SOL    HW114723   0.719   5.060   2.903  0.4494  0.0407  1.1495
 4715SOL    HW214724   0.849   5.029   2.831 -0.3416 -0.3837 -0.1170
 4716SOL     OW14725   3.581   4.596   2.459 -0.0272  0.2027 -0.2407
 4716SOL    HW114726   3.516   4.665   2.472 -1.8088 -1.1064 -1.6870
 4716SOL    HW214727   3.566   4.535   2.531  1.8071  1.3769  1.2686
 4717SOL     OW14728   9.796   2.359   2.723  0.6124 -0.7720  0.0139
 4717SOL    HW114729   9.770   2.427   2.662  0.3215 -1.6335 -0.8572
 4717SOL    HW214730   9.759   2.386   2.807  2.3041  1.2155  0.2088
 4718SOL     OW14731   5.008   2.590   1.012 -0.7546  0.5426 -0.0673
 4718SOL    HW114732   5.085   2.593   1.068 -1.3734  0.8625  0.8018
 4718SOL    HW214733   4.964   2.674   1.028 -0.1265  1.3553 -2.2623
 4719SOL     OW14734   6.338   1.943   1.503  0.2409 -0.2082  1.1018
 4719SOL    HW114735   6.280   1.922   1.577  0.1353 -1.5549  0.6664
 4719SOL    HW214736   6.280   1.947   1.427  0.5333 -0.1999  0.8770
 4720SOL     OW14737   9.462   9.944   4.912 -0.1875 -0.2006  0.0062
 4720SOL    HW114738   9.443  10.034   4.886 -0.2633  0.3136  1.7449
 4720SOL    HW214739   9.382   9.913   4.954  0.2146 -0.6986  0.4193
 4721SOL     OW14740   2.450   3.613   6.274  0.5535  0.5525  0.2480
 4721SOL    HW114741   2.412   3.699   6.289  1.9236  1.2592 -0.1824
 4721SOL    HW214742   2.544   3.628   6.270  0.7646 -0.7862 -0.9087
 4722SOL     OW14743   0.140   5.535   0.557 -0.1289 -0.6493 -0.9883
 4722SOL    HW114744   0.105   5.624   0.546 -0.6046 -0.4115  1.7717
 4722SOL    HW214745   0.233   5.548   0.572 -0.0214 -0.7046 -1.6080
 4723SOL     OW14746   5.377   4.994   8.915 -0.0882 -0.0693  0.6300
 4723SOL    HW114747   5.463   5.029   8.894 -0.6645  1.6447  0.9404
 4723SOL    HW214748   5.316   5.054   8.872 -1.1586 -2.6619 -1.7844
 4724SOL     OW14749   2.945   2.413   0.302  0.6566 -0.1695  0.2424
 4724SOL    HW114750   2.964   2.448   0.215 -1.1358 -2.3643 -1.1462
 4724SOL    HW214751   2.867   2.462   0.330  0.6575 -0.1372  0.1892
 4725SOL     OW14752   9.558   3.397   2.429 -0.0293 -0.7101  0.2845
 4725SOL    HW114753   9.516   3.395   2.515  0.5578 -2.7354  0.5866
 4725SOL    HW214754   9.492   3.435   2.371 -0.6959  0.0277  1.5025
 4726SOL     OW14755   1.400   9.307   4.015  0.5639  0.0490 -0.4547
 4726SOL    HW114756   1.393   9.396   3.980  1.1743 -0.7999 -2.9573
 4726SOL    HW214757   1.466   9.314   4.084 -1.0224  1.9024  0.9944
 4727SOL     OW14758   7.105   8.562   5.141  0.1189  0.1210 -0.0819
 4727SOL    HW114759   7.044   8.610   5.085  2.7940  1.9639 -1.6712
 4727SOL    HW214760   7.083   8.588   5.230 -1.4782  0.5717 -0.5770
 4728SOL     OW14761   9.454   3.695   5.093 -0.3850 -0.8651 -0.2059
 4728SOL    HW114762   9.462   3.608   5.053 -2.4364 -2.1908  1.9640
 4728SOL    HW214763   9.394   3.742   5.036 -1.0226 -1.6991 -0.2471
 4729SOL     OW14764   5.915   6.704   7.430 -0.4688 -0.1812 -0.1318
 4729SOL    HW114765   5.861   6.783   7.429  0.0837  0.2044 -0.1856
 4729SOL    HW214766   6.000   6.733   7.464 -0.1660 -0.6925 -0.4268
 4730SOL     OW14767   2.353   6.720   9.039 -0.4036  0.0098  0.3447
 4730SOL    HW114768   2.377   6.738   8.948 -0.7058  0.6588  0.3904
 4730SOL    HW214769   2.435   6.697   9.081 -0.4905 -2.1147 -0.4972
 4731SOL     OW14770   0.447   2.058   7.122  0.1916 -0.3670 -0.3440
 4731SOL    HW114771   0.407   2.011   7.195 -1.6961  0.0437 -1.0489
 4731SOL    HW214772   0.539   2.069   7.148 -0.0497 -1.6497  1.2179
 4732SOL     OW14773   8.542   2.573   8.098 -0.0060 -0.5484 -0.1998
 4732SOL    HW114774   8.482   2.503   8.122  1.2784 -1.4004  0.5942
 4732SOL    HW214775   8.530   2.639   8.166 -1.8197  0.4463 -1.3890
 4733SOL     OW14776   5.656   8.185   2.969  0.3548  0.1003 -0.2550
 4733SOL    HW114777   5.729   8.127   2.989 -1.8365 -2.8899 -0.2327
 4733SOL    HW214778   5.669   8.209   2.877  1.5839  0.0442 -0.1166
 4734SOL     OW14779   0.602   6.213   5.732  0.5699  0.1434 -0.1801
 4734SOL    HW114780   0.510   6.226   5.757  0.5542  2.1359 -1.1163
 4734SOL    HW214781   0.652   6.254   5.802  0.6662  1.1843 -0.8472
 4735SOL     OW14782   7.637   3.720   2.006 -0.3266 -0.6571 -0.0727
 4735SOL    HW114783   7.664   3.811   2.016 -1.4588 -0.2674 -0.3477
 4735SOL    HW214784   7.543   3.721   2.024 -0.3932 -1.7381 -0.2698
 4736SOL     OW14785   8.759   7.134   2.043  0.1035  0.0532 -0.0732
 4736SOL    HW114786   8.761   7.098   1.954 -0.1365  0.7127 -0.3490
 4736SOL    HW214787   8.844   7.175   2.054  1.0487 -2.0143  0.8574
 4737SOL     OW14788   7.076   8.907   7.722  0.1852 -0.2124  0.1226
 4737SOL    HW114789   7.109   8.932   7.808  0.3520  1.2220 -0.3350
 4737SOL    HW214790   6.988   8.944   7.718 -0.4625 -1.6307  0.2494
 4738SOL     OW14791   8.094   0.503   8.908 -0.0501 -0.4936  0.0914
 4738SOL    HW114792   8.089   0.501   8.813 -2.3842  2.4269 -0.0083
 4738SOL    HW214793   8.185   0.525   8.928  0.3638 -0.7349 -1.4374
 4739SOL     OW14794   9.026   0.294   8.619 -0.1078  0.1062  0.1472
 4739SOL    HW114795   8.946   0.293   8.672  0.6954 -2.4066  1.4386
 4739SOL    HW214796   9.092   0.334   8.676 -0.0215  0.5860 -0.2789
 4740SOL     OW14797   2.163   8.710   3.858  0.2678  0.0382  0.3256
 4740SOL    HW114798   2.104   8.723   3.783 -0.7777  0.2578  1.1476
 4740SOL    HW214799   2.231   8.652   3.825  0.8013  1.4976 -1.2822
 4741SOL     OW14800   6.243   7.572   5.089 -0.9557  0.1478 -0.0919
 4741SOL    HW114801   6.190   7.647   5.116 -1.7029 -0.8424  1.3590
 4741SOL    HW214802   6.239   7.572   4.994 -2.3711  0.9591 -0.0610
 4742SOL     OW14803   8.014   5.585   3.968 -0.2152 -0.0051 -0.8601
 4742SOL    HW114804   7.964   5.560   3.891  0.0849 -1.3817 -0.6222
 4742SOL    HW214805   8.053   5.504   4.000 -0.2025  0.5600  0.6529
 4743SOL     OW14806   7.679   4.361   4.199 -0.6444  0.5123 -0.3767
 4743SOL    HW114807   7.627   4.367   4.280 -0.9221  1.8611 -0.6303
 4743SOL    HW214808   7.626   4.306   4.141  0.4325 -2.1033  0.9635
 4744SOL     OW14809   7.438   5.355   2.203 -0.1001  0.6437 -0.0109
 4744SOL    HW114810   7.497   5.406   2.147  1.0501  3.9085  3.7545
 4744SOL    HW214811   7.488   5.341   2.284 -1.9823 -3.0034  0.7328
 4745SOL     OW14812   6.947   8.454   7.892  0.1770  0.8134 -0.0499
 4745SOL    HW114813   6.861   8.456   7.934 -0.0844  0.5517 -0.5599
 4745SOL    HW214814   6.972   8.547   7.884 -1.5175  1.1328 -2.7933
 4746SOL     OW14815   4.296   4.473   0.865 -0.2694  0.3632 -0.0563
 4746SOL    HW114816   4.275   4.505   0.777  0.7529 -1.1849 -0.9186
 4746SOL    HW214817   4.384   4.504   0.881  0.1591 -0.6772 -0.2813
 4747SOL     OW14818   4.143   5.542   0.848 -0.1541 -0.1986 -0.0877
 4747SOL    HW114819   4.052   5.530   0.821  0.4727 -0.5352 -2.1834
 4747SOL    HW214820   4.136   5.595   0.927 -2.1263  1.2864 -1.1412
 4748SOL     OW14821   1.301   0.457   3.114 -0.9480 -0.1328 -0.7735
 4748SOL    HW114822   1.233   0.416   3.167 -0.7637 -1.5752 -1.6038
 4748SOL    HW214823   1.360   0.497   3.178 -1.3785 -0.8034  0.0658
 4749SOL     OW14824   7.373   1.775   1.618 -0.0214 -0.1493 -0.1564
 4749SOL    HW114825   7.427   1.769   1.539  0.2637 -0.7857  0.0803
 4749SOL    HW214826   7.311   1.702   1.611 -1.4487  1.0770 -0.8463
 4750SOL     OW14827   1.744   8.976   6.582 -0.1031  0.0786 -0.0744
 4750SOL    HW114828   1.774   8.951   6.669  1.4919  1.2131 -0.2632
 4750SOL    HW214829   1.772   8.905   6.525  0.7032  0.3176  0.0209
 4751SOL     OW14830   0.743   5.794   4.217  0.0248  0.4282  0.5162
 4751SOL    HW114831   0.801   5.718   4.216 -0.0876  0.3475 -0.9110
 4751SOL    HW214832   0.765   5.843   4.138 -1.3442  0.7781  0.3240
 4752SOL     OW14833   2.360   7.205   1.789  0.3894 -0.6172 -0.6359
 4752SOL    HW114834   2.274   7.168   1.805 -0.9229  1.6607 -1.9507
 4752SOL    HW214835   2.398   7.217   1.876 -0.5658 -1.6775 -0.0507
 4753SOL     OW14836   1.241   1.920   8.876  0.1527 -0.5788  0.1817
 4753SOL    HW114837   1.266   1.976   8.950  1.5572  1.1727 -1.5233
 4753SOL    HW214838   1.146   1.931   8.870  0.4969  3.2556 -1.1868
 4754SOL     OW14839   3.675   6.167   7.981  0.0789  0.7860 -0.3593
 4754SOL    HW114840   3.753   6.136   7.935  0.0512 -0.9813  0.6955
 4754SOL    HW214841   3.665   6.106   8.054 -2.2367  1.0427 -0.4074
 4755SOL     OW14842   0.960   5.743   8.403 -0.2249  0.6810 -0.1634
 4755SOL    HW114843   0.929   5.666   8.355 -0.2422  0.1835  0.6343
 4755SOL    HW214844   0.947   5.721   8.495  1.9983  0.6561  0.2041
 4756SOL     OW14845   7.595  -0.007   4.918  0.4863 -0.1325  0.7313
 4756SOL    HW114846   7.564   0.074   4.958  0.5627  0.3139 -0.0900
 4756SOL    HW214847   7.519  -0.065   4.919  0.1216  0.3291  0.3464
 4757SOL     OW14848   5.518   8.996   8.730 -0.0291 -0.2637  0.2624
 4757SOL    HW114849   5.542   9.064   8.667  1.8327 -1.8384 -0.8049
 4757SOL    HW214850   5.535   9.036   8.815 -0.4892  1.1428 -0.2764
 4758SOL     OW14851   8.855   5.608   6.486  0.4164  0.0620 -0.2727
 4758SOL    HW114852   8.931   5.611   6.544 -0.8547 -0.3776  1.5194
 4758SOL    HW214853   8.856   5.691   6.440  0.7754  1.0110  1.3650
 4759SOL     OW14854   8.626   6.858   5.908  0.1926  0.4574  0.2169
 4759SOL    HW114855   8.718   6.832   5.899  0.0696  0.6850 -2.9254
 4759SOL    HW214856   8.624   6.950   5.882 -0.9771  0.2929 -0.3632
 4760SOL     OW14857   3.114   8.016   7.544 -0.2611 -0.2300  0.4085
 4760SOL    HW114858   3.046   8.026   7.611  0.6020  0.9558  1.1462
 4760SOL    HW214859   3.104   7.926   7.513 -0.8455 -0.7310  1.9582
 4761SOL     OW14860   6.066   4.299   7.280 -0.7534 -0.4845 -0.2883
 4761SOL    HW114861   6.025   4.221   7.318 -0.1877 -1.2078 -1.1110
 4761SOL    HW214862   5.996   4.365   7.280 -1.2144 -0.9454  0.5148
 4762SOL     OW14863   3.342   2.034   4.831 -0.2482  0.3380 -0.8715
 4762SOL    HW114864   3.282   2.016   4.903  0.4238  0.9074 -0.1564
 4762SOL    HW214865   3.420   1.982   4.852  0.6340  1.8707 -0.2413
 4763SOL     OW14866   4.514   4.862   1.832 -0.5708  0.5439  0.1153
 4763SOL    HW114867   4.574   4.807   1.882 -4.0249 -2.1548  1.6648
 4763SOL    HW214868   4.538   4.951   1.856  0.8211 -0.4976  3.1071
 4764SOL     OW14869   8.926   7.998   0.154 -0.2544  0.1531  0.3155
 4764SOL    HW114870   8.923   7.903   0.149 -0.8730  0.0973  1.3632
 4764SOL    HW214871   9.014   8.018   0.187  0.2041  0.0096 -0.7790
 4765SOL     OW14872   7.772   5.439   0.165 -0.4086  0.4863  0.1630
 4765SOL    HW114873   7.837   5.491   0.214 -0.8783  1.2701 -0.0375
 4765SOL    HW214874   7.765   5.483   0.081 -3.6905  2.5226  1.3118
 4766SOL     OW14875   8.902   1.387   5.143  0.4744 -0.7142 -0.1657
 4766SOL    HW114876   8.809   1.376   5.162  0.0048  2.2770 -0.2526
 4766SOL    HW214877   8.914   1.347   5.056 -0.6494 -1.3103 -0.0634
 4767SOL     OW14878   6.434   2.268   9.318 -0.1847  0.2500  0.2134
 4767SOL    HW114879   6.430   2.302   9.408  2.3952 -1.9515  1.2909
 4767SOL    HW214880   6.352   2.221   9.308 -0.5907  0.6547  1.3586
 4768SOL     OW14881   1.445   4.270   4.967  0.2788 -0.3272 -0.0318
 4768SOL    HW114882   1.407   4.193   5.010 -0.7378  0.0809 -0.1782
 4768SOL    HW214883   1.463   4.332   5.037  0.8472 -0.5764  0.0544
 4769SOL     OW14884   5.768   0.888   9.385 -0.0283 -0.0724 -0.5575
 4769SOL    HW114885   5.789   0.889   9.291  1.3680 -0.5514 -0.2639
 4769SOL    HW214886   5.796   0.802   9.415 -0.2395  0.1710  0.3690
 4770SOL     OW14887   3.992   8.700   0.999  0.2556  0.3377 -0.7756
 4770SOL    HW114888   3.988   8.759   0.924 -0.5359  2.8694  1.1042
 4770SOL    HW214889   3.903   8.699   1.033  0.6653 -0.4681  0.3231
 4771SOL     OW14890   0.406   1.997   4.939  0.4106  0.6634 -0.5673
 4771SOL    HW114891   0.414   2.089   4.962  1.6133  0.6359 -0.8205
 4771SOL    HW214892   0.451   1.988   4.855 -0.3925 -0.0074 -0.9422
 4772SOL     OW14893   5.126   3.778   2.117 -0.0292 -1.0149 -0.0307
 4772SOL    HW114894   5.152   3.857   2.070 -2.3218  0.9496  1.7464
 4772SOL    HW214895   5.195   3.764   2.182  0.1513 -0.1684 -0.0363
 4773SOL     OW14896   2.306   7.917   6.668  0.2963  0.1056 -0.0800
 4773SOL    HW114897   2.398   7.929   6.642  0.3556  0.5570  0.3178
 4773SOL    HW214898   2.310   7.864   6.747  0.2953  1.1288  0.6210
 4774SOL     OW14899   5.540   6.003   7.096  0.7090  0.4205  0.3305
 4774SOL    HW114900   5.567   6.031   7.009  0.9406  0.2769  0.3537
 4774SOL    HW214901   5.603   6.045   7.155  1.1264 -0.2258  0.3575
 4775SOL     OW14902   0.412   9.398   7.305 -0.0003  0.5018 -0.3830
 4775SOL    HW114903   0.401   9.484   7.264 -0.2349 -0.3273 -2.1532
 4775SOL    HW214904   0.332   9.386   7.356 -0.9712  0.4705 -1.8482
 4776SOL     OW14905   1.939   2.511   9.438 -0.3670  0.2845 -0.3320
 4776SOL    HW114906   1.864   2.535   9.493 -0.8901  0.8864 -1.2787
 4776SOL    HW214907   1.959   2.590   9.389 -0.1536 -0.3309 -1.2689
 4777SOL     OW14908   0.802   3.908   2.773 -0.2619 -0.1435  0.2232
 4777SOL    HW114909   0.830   3.965   2.844  1.5627  2.6594 -2.4926
 4777SOL    HW214910   0.883   3.873   2.736 -1.1544 -1.5775 -0.5090
 4778SOL     OW14911   0.748   4.157   4.098  0.0388 -1.1076  0.5264
 4778SOL    HW114912   0.710   4.235   4.140  1.6114 -1.0976  2.0109
 4778SOL    HW214913   0.672   4.105   4.072 -1.0728  1.0764 -0.8850
 4779SOL     OW14914   1.402   2.805   9.552  0.0785  0.2647 -0.2806
 4779SOL    HW114915   1.407   2.899   9.565  1.1106 -0.0550  2.4841
 4779SOL    HW214916   1.337   2.776   9.616 -2.4060 -0.7093 -3.0303
 4780SOL     OW14917   0.907   3.951   5.077 -0.3488  0.4624  0.2488
 4780SOL    HW114918   0.823   3.906   5.088 -0.8848  0.8114 -1.8689
 4780SOL    HW214919   0.907   4.019   5.143 -0.6914 -0.9663  1.7843
 4781SOL     OW14920   1.638   6.349   4.953 -0.6650 -0.7265  0.0894
 4781SOL    HW114921   1.569   6.284   4.940 -0.7757 -0.5158 -0.4272
 4781SOL    HW214922   1.625   6.381   5.042  0.0666 -2.1868  0.7521
 4782SOL     OW14923   5.844   7.590   5.005  0.0428  0.3099  0.2002
 4782SOL    HW114924   5.919   7.636   4.966  0.6870  0.6798  1.8165
 4782SOL    HW214925   5.781   7.584   4.933  1.2877  0.7189 -0.9749
 4783SOL     OW14926   1.857   2.118   2.239  0.4044 -0.4842 -0.2360
 4783SOL    HW114927   1.925   2.123   2.172  1.1258  1.4036  0.5741
 4783SOL    HW214928   1.776   2.104   2.189  1.2042 -1.4354 -1.3098
 4784SOL     OW14929   8.200   2.053   0.580 -0.1286 -0.1014 -0.2780
 4784SOL    HW114930   8.128   2.014   0.530 -1.2875  1.5908 -0.0243
 4784SOL    HW214931   8.163   2.068   0.667  0.6441  0.4768 -0.0389
 4785SOL     OW14932   8.044   1.658   7.989 -0.9728 -0.2630 -0.3305
 4785SOL    HW114933   8.007   1.605   8.060 -0.2327 -0.1983  0.1236
 4785SOL    HW214934   8.041   1.601   7.912 -4.0997  0.5095 -0.8994
 4786SOL     OW14935   0.692   4.245   7.144 -0.3025 -0.2847 -0.0474
 4786SOL    HW114936   0.615   4.195   7.117 -0.6006  0.3226 -0.3370
 4786SOL    HW214937   0.763   4.210   7.090 -0.8985  0.9657 -1.7483
 4787SOL     OW14938   6.652   2.041   0.721  0.0233  0.1006  0.0297
 4787SOL    HW114939   6.692   1.955   0.734  1.2336  0.5897 -0.3122
 4787SOL    HW214940   6.633   2.044   0.627 -0.4450  0.0415  0.1183
 4788SOL     OW14941   4.757   3.970   6.472 -0.1476  0.1325  0.0476
 4788SOL    HW114942   4.721   3.945   6.557  0.1076 -1.8728 -0.3752
 4788SOL    HW214943   4.846   3.933   6.471 -0.6558 -1.2038 -1.6043
 4789SOL     OW14944   4.578   2.482   3.377  0.2935  0.6809 -0.4326
 4789SOL    HW114945   4.527   2.486   3.458 -1.1223 -1.9410 -1.0648
 4789SOL    HW214946   4.660   2.439   3.403  0.6145  1.4631 -0.1095
 4790SOL     OW14947   2.568   1.368   1.165 -0.1267 -0.0338  1.0022
 4790SOL    HW114948   2.652   1.407   1.140 -0.3663  1.3989  2.2663
 4790SOL    HW214949   2.538   1.324   1.086  1.6744 -0.3482  0.4459
 4791SOL     OW14950   3.102   1.283   7.584 -0.1137 -0.6877 -0.3978
 4791SOL    HW114951   3.094   1.277   7.679  1.5771 -0.4019 -0.2024
 4791SOL    HW214952   3.105   1.192   7.555  0.0638 -0.7823 -0.0958
 4792SOL     OW14953   2.570   8.530   6.804  0.2354 -0.0953  0.4272
 4792SOL    HW114954   2.554   8.536   6.710  0.0232 -1.3852  0.3633
 4792SOL    HW214955   2.496   8.576   6.844  0.2438  0.3180 -0.0236
 4793SOL     OW14956   2.145   4.978   6.093  0.4366 -0.3654  0.1102
 4793SOL    HW114957   2.129   4.897   6.045  2.0942 -0.2459 -0.7000
 4793SOL    HW214958   2.058   5.007   6.121 -0.3609 -1.4714 -1.1212
 4794SOL     OW14959   1.688   3.749   9.113  0.2417 -0.2430  0.3585
 4794SOL    HW114960   1.649   3.770   9.028  0.3381  3.6039  1.0737
 4794SOL    HW214961   1.758   3.686   9.092  0.0285  0.2782 -2.3646
 4795SOL     OW14962   1.884   5.628   8.217  0.3327 -0.2754 -0.4462
 4795SOL    HW114963   1.861   5.543   8.255 -2.2019  0.0965 -0.9937
 4795SOL    HW214964   1.927   5.607   8.135 -0.4504 -1.0462 -0.6724
 4796SOL     OW14965   4.675   1.862   0.063  0.4970  0.3353 -0.0577
 4796SOL    HW114966   4.703   1.824  -0.021  3.4643 -1.3235  1.4916
 4796SOL    HW214967   4.628   1.791   0.107 -0.1647  0.8654  0.1066
 4797SOL     OW14968   6.764   9.847   9.450 -0.0341 -0.2396  0.0947
 4797SOL    HW114969   6.806   9.909   9.390  0.8539 -0.1297  0.8050
 4797SOL    HW214970   6.822   9.844   9.526 -0.3133 -1.5710  0.2911
 4798SOL     OW14971   2.413   9.644   0.301 -0.0223 -0.2061 -0.1285
 4798SOL    HW114972   2.437   9.551   0.297  1.1086  0.0752 -0.3429
 4798SOL    HW214973   2.398   9.669   0.209 -0.0551 -0.1088 -0.0969
 4799SOL     OW14974   8.510   6.085   7.924 -0.8482 -0.9336  0.1843
 4799SOL    HW114975   8.594   6.072   7.881  0.8354  3.2179  1.7491
 4799SOL    HW214976   8.524   6.051   8.013 -0.1612  1.1153  0.9202
 4800SOL     OW14977   9.876   0.799   5.219 -0.2167  0.4438  0.0656
 4800SOL    HW114978   9.817   0.875   5.219 -0.7239  0.0568 -0.0911
 4800SOL    HW214979   9.818   0.723   5.211  0.1521 -0.0725  1.7641
 4801SOL     OW14980   5.994   9.128   9.072  0.6472  0.1218  0.0504
 4801SOL    HW114981   5.997   9.036   9.098  0.5811  0.2743  0.6133
 4801SOL    HW214982   5.937   9.169   9.137  0.5626  0.5360 -0.2803
 4802SOL     OW14983   9.278   3.379   3.148  0.4128 -0.4251  1.0571
 4802SOL    HW114984   9.365   3.362   3.112  0.2488  2.3242 -0.9928
 4802SOL    HW214985   9.217   3.346   3.081 -0.0247  0.3298  1.0683
 4803SOL     OW14986   5.460   4.170   3.347 -0.3739 -0.0928 -0.4613
 4803SOL    HW114987   5.385   4.218   3.383  1.1372  1.8129  0.3428
 4803SOL    HW214988   5.422   4.114   3.280 -2.4710  1.1883 -0.4476
 4804SOL     OW14989   0.264   9.897   6.252 -0.1977  0.5899  0.1047
 4804SOL    HW114990   0.345   9.851   6.228 -0.5580 -1.2438  2.0890
 4804SOL    HW214991   0.290   9.988   6.263  0.9606  0.6023 -2.0808
 4805SOL     OW14992   2.439   9.045   0.631 -0.1689 -0.1368 -0.1698
 4805SOL    HW114993   2.364   9.104   0.638 -0.6152 -0.4122 -2.0592
 4805SOL    HW214994   2.509   9.100   0.595  0.4221  0.0144  1.1769
 4806SOL     OW14995   5.215   2.618   3.893 -0.6080  0.2602 -0.6688
 4806SOL    HW114996   5.305   2.649   3.889 -0.8192  0.8306 -1.2539
 4806SOL    HW214997   5.218   2.530   3.856 -0.3567  0.4327 -1.0626
 4807SOL     OW14998   2.151   3.627   1.990  0.4335 -0.6472 -0.2373
 4807SOL    HW114999   2.097   3.620   1.911 -0.4261  0.9530  0.1786
 4807SOL    HW215000   2.192   3.713   1.984  1.1552 -0.9266  0.5707
 4808SOL     OW15001   0.777   0.630   8.261  0.3615  0.3009  0.0012
 4808SOL    HW115002   0.790   0.722   8.286 -0.8173  0.5422 -0.1770
 4808SOL    HW215003   0.727   0.635   8.179 -0.7022 -0.4786  0.5783
 4809SOL     OW15004   4.281   0.864   9.242 -0.3124  0.5730 -0.5750
 4809SOL    HW115005   4.296   0.839   9.333  0.5227 -1.6245 -1.2452
 4809SOL    HW215006   4.308   0.787   9.192 -0.2838  1.9042 -2.7100
 4810SOL     OW15007   7.897   3.989   8.459 -0.4604  0.4271 -0.2252
 4810SOL    HW115008   7.984   3.949   8.454  0.0903  1.7204 -2.2734
 4810SOL    HW215009   7.836   3.917   8.446  0.3537 -0.2911 -0.1497
 4811SOL     OW15010   0.968   5.417   7.120  0.2597 -0.0991 -0.2747
 4811SOL    HW115011   0.880   5.419   7.158  0.7417 -1.1522  0.9626
 4811SOL    HW215012   0.956   5.376   7.035 -0.3839 -0.8161  0.1408
 4812SOL     OW15013   4.793   7.658   6.249  0.1670 -0.3358  0.1042
 4812SOL    HW115014   4.838   7.597   6.191  0.2811  0.2881 -0.4667
 4812SOL    HW215015   4.701   7.632   6.245  0.0233  0.2990 -1.1189
 4813SOL     OW15016   5.977   2.633   3.619 -0.1244  0.1996  0.2870
 4813SOL    HW115017   6.021   2.558   3.660  0.7126 -0.5308 -1.7688
 4813SOL    HW215018   5.894   2.597   3.589 -1.1633  0.9792  2.1238
 4814SOL     OW15019   3.841   5.634   0.503  0.0040 -0.4454 -0.5777
 4814SOL    HW115020   3.816   5.725   0.520  0.7688 -0.1805 -0.8594
 4814SOL    HW215021   3.833   5.623   0.408 -1.3572 -1.0651 -0.4225
 4815SOL     OW15022   5.631   9.572   4.041 -0.0414 -0.2444  0.1110
 4815SOL    HW115023   5.563   9.598   3.979 -0.9076 -0.2510  1.0383
 4815SOL    HW215024   5.619   9.631   4.115  2.1968  1.0720 -0.4543
 4816SOL     OW15025   0.229   7.070   3.196  0.4749  0.0790  0.3917
 4816SOL    HW115026   0.163   7.001   3.199  0.1159  0.1387 -2.6984
 4816SOL    HW215027   0.313   7.023   3.204  0.1854 -0.5146 -0.0046
 4817SOL     OW15028   5.689   9.407   1.194  0.0447 -0.2428  0.0990
 4817SOL    HW115029   5.599   9.415   1.224  0.6086  0.0001  1.8153
 4817SOL    HW215030   5.741   9.401   1.274  1.5467 -0.5662 -0.8534
 4818SOL     OW15031   1.945   5.379   6.293  0.0693  0.6337 -0.7621
 4818SOL    HW115032   1.935   5.288   6.318 -0.7527  1.1930  1.1167
 4818SOL    HW215033   2.034   5.402   6.320  0.1181  0.5162 -0.8231
 4819SOL     OW15034   7.719   0.340   3.418 -0.0368 -0.0911  0.4874
 4819SOL    HW115035   7.734   0.252   3.384  0.9151  0.7497 -1.4522
 4819SOL    HW215036   7.733   0.332   3.512  1.7404 -1.6783  0.1576
 4820SOL     OW15037   5.470   4.351   2.490 -0.2385  0.5039 -0.3479
 4820SOL    HW115038   5.474   4.365   2.584 -0.1601 -0.2218 -0.2393
 4820SOL    HW215039   5.559   4.329   2.465 -0.3846  0.0565 -0.4845
 4821SOL     OW15040   6.509   1.594   7.211  0.2115  0.1323 -0.8675
 4821SOL    HW115041   6.565   1.518   7.224  0.4289  0.2608 -1.0462
 4821SOL    HW215042   6.469   1.610   7.296  0.7704  0.2987 -0.6344
 4822SOL     OW15043   5.597   6.320   4.671 -0.1073 -0.3737 -0.1095
 4822SOL    HW115044   5.546   6.318   4.752  1.1629 -0.2985  0.7196
 4822SOL    HW215045   5.658   6.393   4.683  0.4145 -0.6628 -0.9324
 4823SOL     OW15046   5.940   2.527   1.378 -0.0585 -0.3317 -0.2128
 4823SOL    HW115047   5.849   2.507   1.356 -0.1067 -0.4264  0.0747
 4823SOL    HW215048   5.989   2.451   1.347  0.0589  0.1916 -1.3541
 4824SOL     OW15049   5.582   1.779   9.659  0.1138 -0.5913 -0.1803
 4824SOL    HW115050   5.630   1.717   9.714  0.0437 -1.1272 -0.7109
 4824SOL    HW215051   5.639   1.795   9.584 -0.5626 -1.3202 -0.8710
 4825SOL     OW15052   2.885   7.453   4.319  0.5695 -0.4720 -0.2265
 4825SOL    HW115053   2.810   7.467   4.377 -0.0743 -1.4033 -0.8127
 4825SOL    HW215054   2.883   7.360   4.300  0.4373 -0.1054 -2.1829
 4826SOL     OW15055   8.309   6.596   5.099 -0.2199 -0.0046  0.5903
 4826SOL    HW115056   8.367   6.591   5.023  1.0645 -0.4777  1.5575
 4826SOL    HW215057   8.360   6.644   5.165 -1.5471  0.9642  0.9585
 4827SOL     OW15058   4.410   1.120   9.777  0.0764 -0.0803  0.6316
 4827SOL    HW115059   4.364   1.190   9.823 -1.2465 -0.5059  0.0086
 4827SOL    HW215060   4.466   1.165   9.714 -0.0769  0.4328  0.8627
 4828SOL     OW15061   4.711   9.924   1.968 -0.0401 -0.1218 -0.0808
 4828SOL    HW115062   4.695  10.011   2.005 -0.7368  0.0150 -0.6884
 4828SOL    HW215063   4.702   9.865   2.043  0.4987  0.3302  0.3464
 4829SOL     OW15064   1.707   7.862   9.583 -0.1696 -0.2684 -0.2043
 4829SOL    HW115065   1.772   7.855   9.514 -0.0557 -0.5732 -0.0645
 4829SOL    HW215066   1.758   7.871   9.664 -0.2924 -0.9422 -0.0469
 4830SOL     OW15067   8.984   0.081   6.631  0.0059 -0.0556  0.0466
 4830SOL    HW115068   9.057   0.099   6.571  1.4461 -0.7471  1.4980
 4830SOL    HW215069   8.949  -0.003   6.601  1.8150 -1.2560  1.1114
 4831SOL     OW15070   1.497   7.268   4.653 -0.2185  0.4184 -0.7141
 4831SOL    HW115071   1.547   7.343   4.686 -0.3093  0.0460  0.3275
 4831SOL    HW215072   1.405   7.294   4.666 -0.2816  0.6526 -1.5866
 4832SOL     OW15073   2.220   7.370   6.387  0.0948 -0.1814 -0.1501
 4832SOL    HW115074   2.305   7.366   6.344  0.4783  0.3481  0.5613
 4832SOL    HW215075   2.158   7.382   6.314  0.6732  0.0160 -0.6188
 4833SOL     OW15076   4.880   2.574   3.037  1.0839  0.1876 -0.2878
 4833SOL    HW115077   4.958   2.597   3.087  1.1132  1.5392 -0.9081
 4833SOL    HW215078   4.837   2.658   3.020 -0.2128 -0.4765 -0.4446
 4834SOL     OW15079   1.397   9.272   0.267  0.3857 -0.0189 -0.3376
 4834SOL    HW115080   1.338   9.202   0.294  1.0766 -0.1960  0.7892
 4834SOL    HW215081   1.423   9.248   0.178 -0.1995 -0.6428 -0.3479
 4835SOL     OW15082   1.915   1.763   4.377 -0.0593 -0.5895 -0.1098
 4835SOL    HW115083   1.830   1.731   4.405 -0.4447 -0.4896 -1.1354
 4835SOL    HW215084   1.920   1.852   4.412 -0.3006 -0.6570  0.0935
 4836SOL     OW15085   9.586   6.987   5.290 -0.3995 -0.5958  0.3876
 4836SOL    HW115086   9.532   6.921   5.333 -0.0314 -0.6462  0.7828
 4836SOL    HW215087   9.675   6.967   5.319 -0.1921 -0.3917 -0.0949
 4837SOL     OW15088   5.618   3.902   8.013 -0.1300 -0.2803  0.1367
 4837SOL    HW115089   5.605   3.976   8.072 -0.1493 -1.1330  1.2484
 4837SOL    HW215090   5.649   3.940   7.932 -0.2184  0.9454  0.6629
 4838SOL     OW15091   8.823   4.933   5.684 -0.3485  0.2004 -0.8018
 4838SOL    HW115092   8.806   5.014   5.636 -2.1853  0.0745 -0.4370
 4838SOL    HW215093   8.775   4.944   5.766  1.3619 -0.2762  0.3241
 4839SOL     OW15094   4.258   9.508   6.691  0.0123  0.2822 -0.3510
 4839SOL    HW115095   4.253   9.595   6.731  2.0506 -0.1785  1.0494
 4839SOL    HW215096   4.231   9.448   6.761 -1.1490 -0.2733 -1.2276
 4840SOL     OW15097   6.169   1.874   0.912  0.1613 -0.0558 -0.3913
 4840SOL    HW115098   6.087   1.841   0.947 -0.3180  1.6439  0.1869
 4840SOL    HW215099   6.233   1.805   0.931 -0.8428 -0.7810  0.4500
 4841SOL     OW15100   2.226   5.630   2.202  0.4019  0.2496  0.1364
 4841SOL    HW115101   2.223   5.634   2.298  0.1309  0.6038  0.1171
 4841SOL    HW215102   2.294   5.566   2.182 -0.5194 -0.8969  0.5737
 4842SOL     OW15103   9.550   9.142   1.924  1.2935 -0.5208 -0.0052
 4842SOL    HW115104   9.491   9.072   1.895 -0.2971  1.6656 -2.5679
 4842SOL    HW215105   9.622   9.140   1.861  2.1977 -1.0006  1.0343
 4843SOL     OW15106   1.223   9.775   8.048  0.5617 -0.0096  0.4749
 4843SOL    HW115107   1.237   9.731   7.964 -0.2416 -0.1273  0.3953
 4843SOL    HW215108   1.305   9.823   8.064  1.9417 -2.4014  1.1014
 4844SOL     OW15109   9.972   9.935   8.104 -0.3282 -0.1370 -0.0697
 4844SOL    HW115110  10.053   9.888   8.121 -0.2641  0.6080  1.8652
 4844SOL    HW215111   9.914   9.869   8.065  0.6705 -1.0867  0.0108
 4845SOL     OW15112   0.319   6.514   5.964  0.1297  0.4592 -0.2098
 4845SOL    HW115113   0.391   6.558   5.920  0.5665  0.3834  0.4189
 4845SOL    HW215114   0.354   6.488   6.049 -0.2277 -0.7736 -0.4121
 4846SOL     OW15115   2.881   8.222   5.709 -0.1735 -0.2666 -0.4086
 4846SOL    HW115116   2.904   8.129   5.699 -0.9369 -0.4183 -0.8484
 4846SOL    HW215117   2.937   8.253   5.781 -0.6260 -1.3234  0.4331
 4847SOL     OW15118   5.591   1.211   8.862  0.1028  0.1679  0.3631
 4847SOL    HW115119   5.594   1.191   8.955 -0.1876 -1.3951  0.0703
 4847SOL    HW215120   5.657   1.154   8.823  1.6016  2.1799 -0.2033
 4848SOL     OW15121   5.096   6.398   9.970  0.3202 -0.5073  0.2044
 4848SOL    HW115122   5.035   6.462  10.007  0.2351  0.2970 -1.2179
 4848SOL    HW215123   5.065   6.386   9.880  3.0057  1.0198 -1.0628
 4849SOL     OW15124   7.756   4.930   3.750  0.5802 -0.6231 -0.0707
 4849SOL    HW115125   7.807   4.871   3.806 -0.7496 -2.0696 -0.2984
 4849SOL    HW215126   7.678   4.949   3.801  0.3509 -0.1980 -0.5792
 4850SOL     OW15127   6.946   0.952   6.540  0.2804  0.4654 -0.3835
 4850SOL    HW115128   6.923   0.861   6.519 -1.0260  0.6168  0.3180
 4850SOL    HW215129   7.041   0.950   6.553  0.1702 -0.9716  0.4094
 4851SOL     OW15130   0.372   6.089   3.533  0.1556 -0.1033 -0.5216
 4851SOL    HW115131   0.401   6.060   3.447  0.3122 -0.3111 -0.3990
 4851SOL    HW215132   0.422   6.169   3.550  0.9800 -0.6953 -0.1238
 4852SOL     OW15133   8.031   7.319   9.468 -0.0157  0.0903  0.8930
 4852SOL    HW115134   8.123   7.298   9.483 -0.0651 -0.7677  0.0209
 4852SOL    HW215135   8.030   7.360   9.382  0.0444  3.5639  2.3620
 4853SOL     OW15136   4.615   9.670   5.739 -0.4283 -0.0038  0.4225
 4853SOL    HW115137   4.687   9.651   5.799  1.4800 -2.1474 -2.2631
 4853SOL    HW215138   4.630   9.760   5.711  2.1387 -0.7513 -0.9994
 4854SOL     OW15139   1.761   5.952   9.539  0.3112 -0.4068  0.0067
 4854SOL    HW115140   1.769   5.964   9.444  0.8514 -1.1007 -0.0402
 4854SOL    HW215141   1.739   6.039   9.571  4.1781  0.9187 -0.3181
 4855SOL     OW15142   4.599   8.683   3.419  0.2024 -0.2355  0.2977
 4855SOL    HW115143   4.567   8.681   3.328 -1.2029  0.0283  0.7644
 4855SOL    HW215144   4.641   8.768   3.427 -0.4648  0.1141  0.1464
 4856SOL     OW15145   2.410   6.566   6.424 -0.4600 -0.4913 -0.8238
 4856SOL    HW115146   2.440   6.592   6.511  0.1541  1.5596 -1.5917
 4856SOL    HW215147   2.475   6.502   6.395  0.1991 -0.0445 -0.3673
 4857SOL     OW15148   4.421   2.600   8.812 -0.2012 -0.7197  0.1508
 4857SOL    HW115149   4.483   2.530   8.792  0.8781  0.4973 -0.8707
 4857SOL    HW215150   4.451   2.636   8.895 -0.5604 -1.2372  0.5100
 4858SOL     OW15151   4.089   9.456   5.296  0.1294 -0.6175 -0.4219
 4858SOL    HW115152   4.042   9.376   5.272 -0.4782 -0.8757  1.5142
 4858SOL    HW215153   4.123   9.439   5.384 -0.0488  1.2744  0.0597
 4859SOL     OW15154   6.846   2.078   8.930 -0.0387  0.1655 -0.0286
 4859SOL    HW115155   6.852   2.130   9.010  0.3761  1.2655 -0.7457
 4859SOL    HW215156   6.928   2.029   8.927 -0.6990 -1.0426  0.9734
 4860SOL     OW15157   6.332   2.653   6.568 -0.9120 -0.1492 -0.0875
 4860SOL    HW115158   6.382   2.725   6.529 -1.4912  0.1898 -0.2082
 4860SOL    HW215159   6.371   2.574   6.530 -0.1188  0.0788  0.2238
 4861SOL     OW15160   8.117   1.500   8.976  0.3725 -0.6058 -0.2125
 4861SOL    HW115161   8.208   1.511   9.003  0.0127  0.5631  0.5832
 4861SOL    HW215162   8.069   1.483   9.057 -0.4982  1.3853 -0.2630
 4862SOL     OW15163   9.023   7.100   6.448 -0.6057 -0.3201 -0.1515
 4862SOL    HW115164   9.110   7.062   6.435 -0.2838  0.5493 -0.6100
 4862SOL    HW215165   8.998   7.073   6.536 -0.5998 -1.9727 -0.6207
 4863SOL     OW15166   7.664   4.432   9.683  0.2056 -0.2674 -0.6388
 4863SOL    HW115167   7.643   4.411   9.774  4.0485 -0.4063  0.3767
 4863SOL    HW215168   7.638   4.524   9.672  0.1114 -0.1189  0.7364
 4864SOL     OW15169   1.838   2.342   1.973 -0.1302 -1.0326  0.0103
 4864SOL    HW115170   1.854   2.389   2.054  2.1015 -0.6278 -0.5877
 4864SOL    HW215171   1.789   2.264   1.998  0.6609 -0.9956  1.7741
 4865SOL     OW15172   7.303   4.747   9.683 -0.0525  1.0382  0.2480
 4865SOL    HW115173   7.234   4.760   9.748 -1.0423  0.5570 -0.6771
 4865SOL    HW215174   7.310   4.831   9.638 -1.1353  0.6499 -0.6806
 4866SOL     OW15175   1.639   6.666   4.287  0.3056  0.0391 -0.1290
 4866SOL    HW115176   1.555   6.638   4.324 -0.7041  1.7393 -1.0456
 4866SOL    HW215177   1.666   6.740   4.341  0.5723  0.3319 -0.6581
 4867SOL     OW15178   6.328   0.717   6.523  0.0121  0.1794 -0.2027
 4867SOL    HW115179   6.271   0.649   6.488  1.8629 -1.1276 -0.8054
 4867SOL    HW215180   6.365   0.760   6.446  0.6519  0.3047  0.1711
 4868SOL     OW15181   6.945   7.971   3.472  0.3600 -0.1553 -0.0865
 4868SOL    HW115182   7.037   7.969   3.500  0.6709  0.1311 -1.0343
 4868SOL    HW215183   6.915   7.881   3.484  1.1505 -0.5580 -0.9280
 4869SOL     OW15184   6.587   8.714   0.732 -1.0419 -0.1211 -0.3850
 4869SOL    HW115185   6.667   8.741   0.687 -0.4829  0.0361  0.6674
 4869SOL    HW215186   6.546   8.652   0.672  0.2381 -0.7658 -0.6338
 4870SOL     OW15187   6.159   4.874   7.337  0.2107 -0.1309 -0.0391
 4870SOL    HW115188   6.128   4.898   7.424 -0.0765 -0.9385  0.0869
 4870SOL    HW215189   6.087   4.900   7.279  0.2570  0.0905  0.0018
 4871SOL     OW15190   0.836   6.310   8.692 -0.3948 -0.6712  0.2019
 4871SOL    HW115191   0.798   6.388   8.732 -0.6458 -1.2260  1.0710
 4871SOL    HW215192   0.777   6.239   8.716  0.2414 -1.2548  0.0798
 4872SOL     OW15193   5.632   2.362   7.577 -0.1290  0.6672 -0.2745
 4872SOL    HW115194   5.698   2.395   7.516  1.6505  1.3600  1.8988
 4872SOL    HW215195   5.619   2.433   7.640  0.3221 -0.9712  1.8112
 4873SOL     OW15196   1.299   5.619   7.308 -0.3375  0.0810 -0.5714
 4873SOL    HW115197   1.350   5.695   7.281  1.7013 -0.3019  1.8171
 4873SOL    HW215198   1.364   5.554   7.334 -2.0114 -0.9789  1.2452
 4874SOL     OW15199   6.521   2.437   1.181 -0.7543 -0.2796 -0.3343
 4874SOL    HW115200   6.526   2.513   1.124 -0.6068 -0.9594 -1.2465
 4874SOL    HW215201   6.489   2.471   1.264 -0.0977  0.8747 -0.5389
 4875SOL     OW15202   3.192   1.222   0.507 -0.3704  0.4711  0.2853
 4875SOL    HW115203   3.229   1.134   0.498  0.3735  0.8976 -1.0132
 4875SOL    HW215204   3.097   1.208   0.506 -0.2612 -0.3818  0.9093
 4876SOL     OW15205   6.827   2.258   3.311 -0.1559 -0.4263  0.0930
 4876SOL    HW115206   6.836   2.347   3.347  0.4662 -0.2489 -0.4600
 4876SOL    HW215207   6.858   2.201   3.380  0.7241 -0.1102 -0.0184
 4877SOL     OW15208   4.437   5.459   7.820  0.2257  0.2225 -0.1947
 4877SOL    HW115209   4.512   5.418   7.862 -0.6406  0.4265  1.6286
 4877SOL    HW215210   4.380   5.386   7.797  0.3611  0.1675 -0.3654
 4878SOL     OW15211   5.714   1.706   0.854 -0.0891  0.0227  0.4735
 4878SOL    HW115212   5.745   1.632   0.907  0.6437 -0.3896 -0.5036
 4878SOL    HW215213   5.787   1.767   0.852  1.0572 -1.2602 -2.4039
 4879SOL     OW15214   3.436   4.719   5.014  0.1264  0.6116  0.1075
 4879SOL    HW115215   3.435   4.808   5.051  1.3810  1.1879 -1.1821
 4879SOL    HW215216   3.397   4.665   5.083  2.6946  1.5564  2.4865
 4880SOL     OW15217   9.413   6.695   2.798 -0.2305  0.3096  0.4151
 4880SOL    HW115218   9.381   6.728   2.714  0.6107  1.1608  0.4185
 4880SOL    HW215219   9.349   6.726   2.862 -0.4572  0.3194  0.1847
 4881SOL     OW15220   1.565   9.800   0.164  0.4008  0.2131  0.2387
 4881SOL    HW115221   1.551   9.894   0.175 -1.4764 -0.2408  2.4390
 4881SOL    HW215222   1.523   9.780   0.080 -0.5042  1.1347  0.4408
 4882SOL     OW15223   6.731   6.140   1.369 -0.3562  0.0750 -0.2977
 4882SOL    HW115224   6.646   6.111   1.335 -1.2264  1.6209  0.4384
 4882SOL    HW215225   6.763   6.203   1.304 -0.7660  1.0151  0.3726
 4883SOL     OW15226   6.082   8.696   1.587 -0.0586 -0.1283  0.3963
 4883SOL    HW115227   6.033   8.718   1.508  0.9330  1.3800  0.1640
 4883SOL    HW215228   6.171   8.680   1.557  0.4726  1.0443  1.2406
 4884SOL     OW15229   8.031   9.647   6.283 -0.3594  0.2149 -0.0017
 4884SOL    HW115230   8.042   9.553   6.270 -2.1382  0.1664 -1.5026
 4884SOL    HW215231   8.059   9.687   6.200  0.8862  1.0897  0.7984
 4885SOL     OW15232   1.940   2.092   0.578  0.2306 -0.5044  0.0645
 4885SOL    HW115233   2.019   2.098   0.633  0.3045 -0.3636 -0.0547
 4885SOL    HW215234   1.869   2.120   0.636  0.4642  0.7976 -0.2365
 4886SOL     OW15235   3.579   2.096   6.343 -0.5988 -0.5465 -0.1667
 4886SOL    HW115236   3.578   2.191   6.332  1.0179 -0.5896 -0.9961
 4886SOL    HW215237   3.651   2.066   6.288 -1.8481 -2.4042 -0.8982
 4887SOL     OW15238   1.496   4.675   4.967  0.4834 -0.2241 -0.4421
 4887SOL    HW115239   1.541   4.751   4.930  1.7184 -1.5913 -1.8977
 4887SOL    HW215240   1.526   4.601   4.914  1.6129 -2.2033  2.7005
 4888SOL     OW15241   5.799   3.349   8.755  0.1486 -0.0062  0.2205
 4888SOL    HW115242   5.893   3.341   8.740  0.2157  2.4181 -1.0207
 4888SOL    HW215243   5.791   3.413   8.826 -0.5622 -1.1201  1.1793
 4889SOL     OW15244   7.006   8.715   6.139 -0.5240 -0.3358 -0.4793
 4889SOL    HW115245   6.951   8.747   6.210  0.4608  1.6060 -0.5003
 4889SOL    HW215246   7.073   8.662   6.181  0.9591  2.0279  0.3356
 4890SOL     OW15247   8.165   0.135   6.842 -0.2739  0.4884 -0.0858
 4890SOL    HW115248   8.241   0.181   6.878  0.6538  0.2169 -1.5792
 4890SOL    HW215249   8.189   0.119   6.750 -0.7603 -2.5131  0.2117
 4891SOL     OW15250   0.887   0.195   6.688  0.3310 -0.1203  0.1323
 4891SOL    HW115251   0.818   0.161   6.632 -0.0479  0.2837  0.3534
 4891SOL    HW215252   0.949   0.236   6.627  0.3935 -0.5086 -0.0667
 4892SOL     OW15253   3.358   5.199   1.024  0.6060  0.7084  0.3028
 4892SOL    HW115254   3.376   5.105   1.022 -0.2566  0.5225  0.8615
 4892SOL    HW215255   3.405   5.234   0.948  2.1085  0.0506  0.8884
 4893SOL     OW15256   7.763   6.628   8.274  0.1297 -0.2491  0.2059
 4893SOL    HW115257   7.708   6.558   8.311  0.0085 -0.5573 -0.5397
 4893SOL    HW215258   7.852   6.604   8.300  0.1262 -0.8822 -0.3394
 4894SOL     OW15259   7.557   3.599   4.238 -0.5280  0.4428 -0.2066
 4894SOL    HW115260   7.592   3.511   4.253 -0.4076  0.1992 -1.7604
 4894SOL    HW215261   7.509   3.619   4.318  0.6822 -0.4189  0.7821
 4895SOL     OW15262   8.156   9.236   1.796 -0.3544 -0.4458  0.7029
 4895SOL    HW115263   8.145   9.317   1.847  0.3255 -0.8922  1.5768
 4895SOL    HW215264   8.149   9.265   1.705 -4.6226 -0.0116  0.9447
 4896SOL     OW15265   1.629   3.270   9.752  0.2077  0.2330  0.4910
 4896SOL    HW115266   1.550   3.324   9.759 -0.2924 -0.1927 -1.2208
 4896SOL    HW215267   1.694   3.327   9.712 -0.8053 -0.7162 -2.8933
 4897SOL     OW15268   5.970   5.329   0.423 -0.5589  0.0055  0.8901
 4897SOL    HW115269   5.955   5.255   0.482 -0.3695 -0.1990  0.6820
 4897SOL    HW215270   6.001   5.290   0.342 -1.2120  0.2577  0.5092
 4898SOL     OW15271   4.143   7.567   7.238  0.4862 -0.2468  0.2891
 4898SOL    HW115272   4.136   7.633   7.169 -0.9323  0.0410  0.6754
 4898SOL    HW215273   4.156   7.617   7.318  2.0379 -0.5769  0.2750
 4899SOL     OW15274   3.745   7.544   7.120  0.0490 -0.1698  0.1932
 4899SOL    HW115275   3.782   7.456   7.122  0.5345  0.0327  0.1676
 4899SOL    HW215276   3.776   7.585   7.200  0.4146  0.2153 -0.1402
 4900SOL     OW15277   4.315   6.788   1.483 -0.0425  0.4464 -0.5188
 4900SOL    HW115278   4.292   6.756   1.396 -0.4686 -3.0383  0.7082
 4900SOL    HW215279   4.405   6.820   1.474 -0.0228 -0.0003 -2.1974
 4901SOL     OW15280   9.859   5.783   8.158  0.2161 -0.0986 -0.0878
 4901SOL    HW115281   9.937   5.732   8.179 -1.0011 -1.7259  0.7339
 4901SOL    HW215282   9.880   5.826   8.076  2.5110  0.7299  0.8365
 4902SOL     OW15283   0.921   9.880   5.238 -0.2781  0.0825 -0.5013
 4902SOL    HW115284   0.885   9.935   5.169 -0.4460  0.1781 -0.3381
 4902SOL    HW215285   1.005   9.920   5.259  0.0896 -0.3423 -1.1241
 4903SOL     OW15286   1.757   3.699   3.542 -0.3881  0.7230 -0.0428
 4903SOL    HW115287   1.794   3.640   3.476 -0.3290 -0.0976  0.7108
 4903SOL    HW215288   1.816   3.775   3.541 -0.4178  0.7473 -0.9578
 4904SOL     OW15289   6.413   9.412   3.578  0.3328  0.1620  0.0173
 4904SOL    HW115290   6.475   9.403   3.650  0.1648 -0.1213  0.1275
 4904SOL    HW215291   6.327   9.398   3.619  0.2777 -0.5844 -0.3445
 4905SOL     OW15292   3.480   2.190   5.399 -0.2803  0.6383 -0.5178
 4905SOL    HW115293   3.420   2.183   5.474 -0.0522  1.6069 -0.2357
 4905SOL    HW215294   3.447   2.126   5.336  0.1626 -1.0001  0.8404
 4906SOL     OW15295   7.335   7.767   0.522  0.6153  0.1829  0.1547
 4906SOL    HW115296   7.329   7.732   0.433 -0.2131 -1.3902  0.7815
 4906SOL    HW215297   7.253   7.739   0.564  1.7431 -0.6645  1.9179
 4907SOL     OW15298   9.914   9.291   9.647 -0.0536 -0.5965  0.6259
 4907SOL    HW115299  10.002   9.309   9.614 -0.0625 -0.2949  0.7648
 4907SOL    HW215300   9.904   9.349   9.723 -0.9016  0.4173 -0.2247
 4908SOL     OW15301   4.390   7.559   8.270 -0.1460  0.0351  0.3176
 4908SOL    HW115302   4.296   7.551   8.287 -0.5939  1.1055 -1.4362
 4908SOL    HW215303   4.421   7.469   8.260 -0.1292 -0.6513  4.7048
 4909SOL     OW15304   9.253   1.552   1.112  0.5268  0.0122  0.3010
 4909SOL    HW115305   9.327   1.499   1.140  0.6027 -0.7498 -1.2391
 4909SOL    HW215306   9.178   1.493   1.118  0.1097  0.6115  1.3072
 4910SOL     OW15307   8.074   3.323   2.619  0.4438  0.2995 -0.5507
 4910SOL    HW115308   8.049   3.414   2.634 -0.3682 -0.0373  0.1937
 4910SOL    HW215309   7.991   3.275   2.614  0.8787 -0.5260 -0.0867
 4911SOL     OW15310   1.904   2.661   4.902  0.0003 -0.6120  0.2934
 4911SOL    HW115311   1.816   2.634   4.877 -0.3264  0.2724  0.4414
 4911SOL    HW215312   1.914   2.747   4.863 -0.6936  1.0572  3.4254
 4912SOL     OW15313   4.281   1.283   7.605  0.1492 -0.2799  0.3696
 4912SOL    HW115314   4.321   1.297   7.691  1.8876 -2.7186  0.0496
 4912SOL    HW215315   4.342   1.324   7.543  0.7185 -1.5281  0.0810
 4913SOL     OW15316   1.544   0.776   1.222  0.0159  0.0204  0.5795
 4913SOL    HW115317   1.533   0.861   1.263 -0.3257 -0.2982  1.1653
 4913SOL    HW215318   1.578   0.720   1.292 -2.4542 -1.0388  1.0150
 4914SOL     OW15319   0.516   3.573   5.239  0.0023 -0.5601  0.3152
 4914SOL    HW115320   0.478   3.491   5.269 -0.6825 -0.0044  0.9986
 4914SOL    HW215321   0.452   3.607   5.176 -0.5590  0.2629  1.2943
 4915SOL     OW15322   9.031   0.418   1.592  0.4402  0.2890  0.2353
 4915SOL    HW115323   9.031   0.471   1.513  0.4244 -0.0432  0.0131
 4915SOL    HW215324   8.971   0.346   1.573 -1.0587  1.2072  1.2147
 4916SOL     OW15325   4.343   1.979   6.409  0.4042 -0.4285 -0.2257
 4916SOL    HW115326   4.424   2.028   6.420  0.0883 -0.2343  1.5970
 4916SOL    HW215327   4.278   2.046   6.385  0.3264 -0.2244  0.5488
 4917SOL     OW15328   2.971   7.392   7.188  0.0627 -0.5894  0.5491
 4917SOL    HW115329   2.895   7.345   7.154  0.6679 -1.1917 -0.0113
 4917SOL    HW215330   3.045   7.333   7.171  0.7443  0.2669  0.4647
 4918SOL     OW15331   8.708   7.099   1.319 -0.3474 -0.2857 -0.0476
 4918SOL    HW115332   8.662   7.138   1.393  1.4419  1.9522  0.0156
 4918SOL    HW215333   8.701   7.165   1.250 -0.7567 -1.7066 -1.4000
 4919SOL     OW15334   1.373   5.454   5.946 -0.8249 -0.2179  0.3246
 4919SOL    HW115335   1.321   5.512   5.890  1.9779  0.9562 -1.2239
 4919SOL    HW215336   1.386   5.375   5.894  0.7000  0.3546 -0.1928
 4920SOL     OW15337   0.293   9.583   0.409 -0.9317 -0.0139 -0.3421
 4920SOL    HW115338   0.206   9.620   0.422  0.2853  2.9676  0.1028
 4920SOL    HW215339   0.316   9.606   0.319 -0.4641 -0.5177 -0.3597
 4921SOL     OW15340   9.932   5.144   5.330 -0.2204  0.3000 -0.0928
 4921SOL    HW115341   9.966   5.232   5.349 -2.4632  1.4505 -0.9747
 4921SOL    HW215342   9.843   5.144   5.367 -0.3885 -1.4972 -0.4040
 4922SOL     OW15343   4.372   1.906   0.420  0.1048  0.4040  0.2664
 4922SOL    HW115344   4.436   1.901   0.491  0.0726 -1.5925  0.2065
 4922SOL    HW215345   4.418   1.952   0.350  1.2791 -0.4374  0.4450
 4923SOL     OW15346   7.006   2.074   0.048 -0.1340  0.4436 -0.0770
 4923SOL    HW115347   7.026   2.122   0.128 -0.0328  1.4690 -0.7041
 4923SOL    HW215348   7.056   1.993   0.056  0.6868  0.9868  0.4320
 4924SOL     OW15349   9.664   0.803   3.891  0.4535  0.1140 -0.0073
 4924SOL    HW115350   9.632   0.887   3.858 -2.3378  0.1835  2.5018
 4924SOL    HW215351   9.713   0.825   3.970  0.1270 -0.5681  0.3951
 4925SOL     OW15352   4.079   9.320   8.625  0.3679  0.3216 -0.1420
 4925SOL    HW115353   4.092   9.317   8.720  0.1088  0.7015 -0.0920
 4925SOL    HW215354   4.109   9.408   8.600  1.5155 -0.1764 -0.5823
 4926SOL     OW15355   7.130   4.792   1.972 -0.0111  0.0943  0.1306
 4926SOL    HW115356   7.101   4.718   1.919 -1.7935 -0.1733  1.3952
 4926SOL    HW215357   7.095   4.869   1.928  0.8975  0.1097 -0.5813
 4927SOL     OW15358   1.679   8.089   9.375  0.2650  0.1285  0.1197
 4927SOL    HW115359   1.702   8.104   9.284  2.0250 -0.6759  0.3862
 4927SOL    HW215360   1.650   7.998   9.378  0.9804 -0.0992  0.4725
 4928SOL     OW15361   8.449   6.658   5.828 -0.1769  0.0734  0.0130
 4928SOL    HW115362   8.522   6.707   5.865 -1.2252  1.3685  0.4600
 4928SOL    HW215363   8.447   6.577   5.878 -0.4760  1.0413  1.6264
 4929SOL     OW15364   4.701   1.246   0.285 -0.1285 -0.0711  1.0358
 4929SOL    HW115365   4.759   1.172   0.301  0.4666  0.4978  1.5516
 4929SOL    HW215366   4.758   1.316   0.255 -0.7981 -0.0664 -0.3277
 4930SOL     OW15367   3.272   7.653   9.354 -0.4284  0.5638  0.2720
 4930SOL    HW115368   3.314   7.648   9.440  1.2530  2.0605 -0.4079
 4930SOL    HW215369   3.290   7.568   9.313 -0.3491  0.2299  0.9977
 4931SOL     OW15370   7.729   4.981   2.800 -0.0368 -0.0455 -0.1503
 4931SOL    HW115371   7.651   4.929   2.779 -0.3735  0.3997 -0.0244
 4931SOL    HW215372   7.715   5.009   2.890 -0.5169  1.4040 -0.6555
 4932SOL     OW15373   7.883   8.259   5.878 -0.4665  0.0989 -0.9609
 4932SOL    HW115374   7.841   8.314   5.944 -0.9570 -0.1359 -1.0728
 4932SOL    HW215375   7.970   8.241   5.914 -0.6439  0.1723 -0.4884
 4933SOL     OW15376   9.273   0.278   1.264  0.0199 -0.2569 -0.2347
 4933SOL    HW115377   9.203   0.277   1.199  0.9246 -0.5739 -1.2271
 4933SOL    HW215378   9.308   0.367   1.260 -0.3517 -0.0812  0.3030
 4934SOL     OW15379   6.518   0.208   0.018 -0.5620 -0.9905 -0.2406
 4934SOL    HW115380   6.481   0.277   0.073 -1.5495 -1.6417 -0.0689
 4934SOL    HW215381   6.558   0.255  -0.055 -0.3462 -0.1879  0.3849
 4935SOL     OW15382   6.455   1.633   3.408 -0.3385 -0.3006 -0.2698
 4935SOL    HW115383   6.517   1.704   3.395  0.1850 -0.9522 -1.4944
 4935SOL    HW215384   6.442   1.595   3.321  0.1098 -2.2769  0.4702
 4936SOL     OW15385   2.450   1.672   2.046 -0.2857  0.4749  0.4971
 4936SOL    HW115386   2.415   1.622   2.120  3.4999 -4.0546 -0.2436
 4936SOL    HW215387   2.407   1.635   1.969 -0.2334  1.1853  0.1164
 4937SOL     OW15388   2.054   7.246   4.101  0.0599 -0.0620  0.0380
 4937SOL    HW115389   1.976   7.233   4.156  0.2921 -0.9310  0.1754
 4937SOL    HW215390   2.079   7.337   4.116 -1.1646  0.3577 -0.3212
 4938SOL     OW15391   1.494   0.448   8.313  0.1806  0.1826 -0.5606
 4938SOL    HW115392   1.446   0.496   8.245 -1.7336 -1.2807 -0.3326
 4938SOL    HW215393   1.513   0.363   8.273 -2.8017 -1.5108  1.2545
 4939SOL     OW15394   8.803   4.126   9.447  0.6421  1.0872  0.2865
 4939SOL    HW115395   8.871   4.193   9.445  0.6932  1.0564  0.9589
 4939SOL    HW215396   8.829   4.064   9.379  0.3589  1.9591 -0.6469
 4940SOL     OW15397   7.824   1.746   2.086 -0.3643 -0.1588  0.2470
 4940SOL    HW115398   7.749   1.715   2.137  0.2397 -2.5789 -0.2176
 4940SOL    HW215399   7.825   1.690   2.008  0.7507  1.1933 -0.7734
 4941SOL     OW15400   3.613   7.698   2.553  0.2184 -0.0196  0.2646
 4941SOL    HW115401   3.633   7.723   2.462 -0.2171  1.6281  0.5850
 4941SOL    HW215402   3.647   7.771   2.605  0.6025 -1.0167  1.4553
 4942SOL     OW15403   9.331   7.369   9.797  0.2552  0.1256 -0.1665
 4942SOL    HW115404   9.415   7.407   9.823  0.3596  0.7847 -1.3708
 4942SOL    HW215405   9.330   7.377   9.702 -1.0454 -0.1649 -0.1956
 4943SOL     OW15406   9.228   1.361   3.556  0.2233  0.3394  0.3368
 4943SOL    HW115407   9.184   1.415   3.490 -0.3922  0.7454  1.0686
 4943SOL    HW215408   9.200   1.397   3.640  1.8390  0.5115  0.8374
 4944SOL     OW15409   7.659   8.114   6.499  0.4960 -0.5321 -0.2221
 4944SOL    HW115410   7.655   8.182   6.567  1.5869 -1.0707  0.4225
 4944SOL    HW215411   7.609   8.041   6.535 -0.3185 -0.2293 -0.7292
 4945SOL     OW15412   4.138   1.606   7.548  0.1595  0.1966  0.2460
 4945SOL    HW115413   4.181   1.603   7.463  1.8912  3.4664  0.8405
 4945SOL    HW215414   4.045   1.612   7.528  0.1292 -2.9930 -1.1899
 4946SOL     OW15415   3.617   4.940   6.149  0.1828  0.0526 -0.3506
 4946SOL    HW115416   3.641   5.022   6.105  1.1925  0.5712  1.0880
 4946SOL    HW215417   3.695   4.915   6.197 -1.1515  0.1202  2.0273
 4947SOL     OW15418   1.555   3.356   8.058 -0.7414 -0.2677  1.0854
 4947SOL    HW115419   1.501   3.276   8.061 -1.4929  0.2192  0.6899
 4947SOL    HW215420   1.532   3.397   7.975  0.5087 -0.2239  0.7511
 4948SOL     OW15421   7.280   9.783   3.483 -0.1318 -0.3002 -0.0894
 4948SOL    HW115422   7.264   9.693   3.511 -0.5440 -0.0176  0.6298
 4948SOL    HW215423   7.370   9.783   3.452 -0.6293 -1.3141 -1.6104
 4949SOL     OW15424   0.311   6.957   0.436  0.3922 -0.2543  0.3712
 4949SOL    HW115425   0.360   7.039   0.448  0.1123 -0.1938  1.1931
 4949SOL    HW215426   0.225   6.975   0.476  0.1943 -0.8226  0.2043
 4950SOL     OW15427   7.144   5.192   9.953 -0.2128  0.0375  0.2784
 4950SOL    HW115428   7.231   5.151   9.952  0.0503  0.5700 -0.8263
 4950SOL    HW215429   7.118   5.193   9.861 -1.6941 -0.7126  0.6550
 4951SOL     OW15430   4.151   8.894   2.171 -0.1626 -0.0981 -0.0707
 4951SOL    HW115431   4.227   8.882   2.114  0.0984 -0.5300  0.3640
 4951SOL    HW215432   4.185   8.882   2.259 -0.1748  2.3650  0.3412
 4952SOL     OW15433   6.839   3.891   7.534 -0.0077 -0.0703 -0.3295
 4952SOL    HW115434   6.898   3.822   7.501 -0.4952  0.5686 -2.7441
 4952SOL    HW215435   6.752   3.862   7.509 -0.3918  0.5653  0.2494
 4953SOL     OW15436   9.545   0.525   7.062 -0.0693  0.6880 -0.3165
 4953SOL    HW115437   9.544   0.618   7.039  0.5571  0.8457  0.2512
 4953SOL    HW215438   9.610   0.487   7.004 -1.4135  0.2987 -1.6106
 4954SOL     OW15439   2.003   3.357   7.579 -0.0470  0.2654  0.0738
 4954SOL    HW115440   1.946   3.377   7.653  0.1483  0.2114  0.2403
 4954SOL    HW215441   2.082   3.408   7.595  0.3676 -0.4702  0.3900
 4955SOL     OW15442   6.614   7.644   0.663  0.6963  0.2226  0.0106
 4955SOL    HW115443   6.625   7.693   0.744  1.4854 -0.2035  0.1748
 4955SOL    HW215444   6.610   7.711   0.595  0.0561  0.5830  0.3904
 4956SOL     OW15445   4.443   5.133   6.758 -0.0576  0.3218  0.2692
 4956SOL    HW115446   4.490   5.147   6.675  0.0157  0.6021  0.3569
 4956SOL    HW215447   4.507   5.154   6.826 -0.2122  0.3997  0.3925
 4957SOL     OW15448   2.254   5.024   9.922 -0.4732 -0.4271 -0.2381
 4957SOL    HW115449   2.197   5.048   9.849  0.3338  1.0540 -0.4231
 4957SOL    HW215450   2.221   5.074   9.996 -0.3673 -0.7656  0.0413
 4958SOL     OW15451   0.295   8.273   0.231 -0.0117  0.1019  0.1380
 4958SOL    HW115452   0.242   8.273   0.311  1.7343 -0.2300  1.3557
 4958SOL    HW215453   0.232   8.255   0.160 -1.3663 -1.3005  1.6079
 4959SOL     OW15454   6.329   5.386   8.743  0.1549  0.1073 -0.6315
 4959SOL    HW115455   6.281   5.456   8.787  1.7983  1.2512 -0.5730
 4959SOL    HW215456   6.285   5.306   8.771 -1.8183  1.0982 -0.7559
 4960SOL     OW15457   6.401   2.946   8.686 -0.1547  0.0243  0.7304
 4960SOL    HW115458   6.416   2.860   8.648 -1.0611  0.3576 -0.4482
 4960SOL    HW215459   6.449   3.007   8.629  0.3427  0.3277  1.4529
 4961SOL     OW15460   2.128   9.683   4.173 -0.2509 -0.0565  0.1642
 4961SOL    HW115461   2.085   9.598   4.160 -1.0575  0.1317  1.3678
 4961SOL    HW215462   2.182   9.695   4.096 -0.5472 -1.4205 -0.2830
 4962SOL     OW15463   4.317   0.868   9.777 -0.0733 -0.0473 -0.6991
 4962SOL    HW115464   4.230   0.833   9.798 -0.4922  0.0914 -2.0514
 4962SOL    HW215465   4.313   0.960   9.805 -0.5669  0.1010 -1.2278
 4963SOL     OW15466   4.470   4.895   2.504  0.4480  0.0033 -0.4512
 4963SOL    HW115467   4.556   4.928   2.478  0.1258 -0.2854 -1.9619
 4963SOL    HW215468   4.410   4.965   2.482 -0.0544 -0.9342 -2.3095
 4964SOL     OW15469   6.660   6.265   8.890 -0.5753  0.5968  0.5704
 4964SOL    HW115470   6.683   6.228   8.976  0.1413 -1.4443 -0.4367
 4964SOL    HW215471   6.667   6.191   8.830 -0.7195  2.0629 -1.3300
 4965SOL     OW15472   8.301   2.562   3.012  0.0517  0.1135  0.7627
 4965SOL    HW115473   8.263   2.601   3.091  0.8482  1.3376  0.5715
 4965SOL    HW215474   8.394   2.582   3.017  0.1068  0.2952 -0.5225
 4966SOL     OW15475   6.612   9.440   3.910 -0.6392 -0.0029  0.2043
 4966SOL    HW115476   6.682   9.445   3.976 -0.2504  1.5949 -0.2834
 4966SOL    HW215477   6.611   9.527   3.870  0.4409 -1.4113 -3.2717
 4967SOL     OW15478   9.184   0.778   0.342 -0.0009  0.1786 -0.2940
 4967SOL    HW115479   9.202   0.833   0.418  0.3991 -0.8895  0.4071
 4967SOL    HW215480   9.262   0.724   0.331  0.2256  0.7782 -1.8962
 4968SOL     OW15481   4.906   7.400   4.155 -0.5820  0.2089 -0.7528
 4968SOL    HW115482   4.954   7.443   4.225 -1.1249  0.4790 -0.5369
 4968SOL    HW215483   4.942   7.311   4.152 -0.4599  0.2364 -0.2197
 4969SOL     OW15484   0.279   3.928   8.958  0.2453  0.6055 -0.1208
 4969SOL    HW115485   0.330   3.847   8.954  0.2598  0.6352 -0.5906
 4969SOL    HW215486   0.279   3.961   8.868 -0.1238  0.9046 -0.0147
 4970SOL     OW15487   9.256   1.531   1.625 -0.1655 -0.1713 -0.2412
 4970SOL    HW115488   9.239   1.503   1.535 -0.9094 -0.1920 -0.0999
 4970SOL    HW215489   9.237   1.454   1.678  2.0656 -0.7535 -0.1882
 4971SOL     OW15490   4.253   6.903   3.424 -0.5138 -0.9648 -0.8600
 4971SOL    HW115491   4.213   6.862   3.501 -1.0346  1.4612  0.2425
 4971SOL    HW215492   4.346   6.882   3.431 -0.6196 -1.1332  0.2046
 4972SOL     OW15493   5.198   4.576   9.481  0.3796  0.0254 -0.0363
 4972SOL    HW115494   5.292   4.566   9.466  0.6833 -1.7254  2.4300
 4972SOL    HW215495   5.187   4.669   9.501  1.9227 -0.0268  1.2919
 4973SOL     OW15496   0.547   9.225   4.013 -0.2218 -0.2883  0.0541
 4973SOL    HW115497   0.455   9.248   4.027 -0.5186  0.5198 -2.6889
 4973SOL    HW215498   0.557   9.139   4.053 -2.3830 -0.7382 -0.2675
 4974SOL     OW15499   0.995   5.268   1.103  0.2692 -0.0506 -0.1632
 4974SOL    HW115500   1.070   5.221   1.067  0.3328  0.9289 -1.3609
 4974SOL    HW215501   1.007   5.263   1.198  1.2614 -0.8277 -0.3128
 4975SOL     OW15502   1.990   7.620   8.936 -0.2150  0.3713 -0.7363
 4975SOL    HW115503   2.035   7.577   8.863 -1.2974 -1.2414 -0.5162
 4975SOL    HW215504   2.060   7.654   8.992  0.7106 -1.1204 -0.9475
 4976SOL     OW15505   4.054   9.475   7.347  0.4105  0.2056  0.3041
 4976SOL    HW115506   4.125   9.449   7.288  1.5469  0.4137  1.5167
 4976SOL    HW215507   4.065   9.569   7.358 -0.2352  0.2855  0.2779
 4977SOL     OW15508   2.552   2.985   6.395  0.2024 -0.7427  0.3326
 4977SOL    HW115509   2.495   2.909   6.408  0.2692 -1.0151 -0.8632
 4977SOL    HW215510   2.495   3.061   6.409 -0.0817 -1.0076  0.6325
 4978SOL     OW15511   3.346   5.104   4.202 -0.5050  0.0511  0.3097
 4978SOL    HW115512   3.337   5.192   4.238  1.0726  0.4760 -0.2725
 4978SOL    HW215513   3.303   5.047   4.266 -0.3061  1.0939  1.3935
 4979SOL     OW15514   7.690   3.930   7.797  0.4917  0.1782  0.3238
 4979SOL    HW115515   7.627   3.999   7.775 -0.3670 -0.4205  0.8394
 4979SOL    HW215516   7.740   3.917   7.716 -1.5774 -0.9087 -0.8696
 4980SOL     OW15517   4.529   0.626   2.480  0.1471  0.8173  0.6286
 4980SOL    HW115518   4.519   0.694   2.413  0.0345 -1.0966 -1.3957
 4980SOL    HW215519   4.624   0.621   2.494  0.2164  0.8202  0.1735
 4981SOL     OW15520   8.313   3.503   6.000 -0.0207 -0.1909  0.1480
 4981SOL    HW115521   8.364   3.474   6.076 -0.3757  2.2473  1.4261
 4981SOL    HW215522   8.229   3.458   6.009  1.0751 -2.6782 -0.8738
 4982SOL     OW15523   5.110   0.109   0.971 -0.1996 -0.1056  0.0275
 4982SOL    HW115524   5.167   0.073   0.902  1.1111 -1.8693  1.8939
 4982SOL    HW215525   5.066   0.033   1.008 -0.1326  0.6259  1.7312
 4983SOL     OW15526   7.903   6.494   7.564  0.4773  0.2369 -0.2061
 4983SOL    HW115527   7.883   6.425   7.627 -0.5474  1.1925  0.5542
 4983SOL    HW215528   7.992   6.474   7.533  0.7016 -0.6695  0.9733
 4984SOL     OW15529   7.223   4.734   6.942  0.1084  0.6074 -0.0177
 4984SOL    HW115530   7.306   4.691   6.962 -0.5790 -0.7825 -0.0010
 4984SOL    HW215531   7.220   4.739   6.847  1.7000  3.8138 -0.0348
 4985SOL     OW15532   7.187   5.657   2.211 -0.4559 -0.2865 -0.0136
 4985SOL    HW115533   7.203   5.591   2.278 -1.1807  0.1244  0.5782
 4985SOL    HW215534   7.099   5.639   2.180  0.0495 -0.7960 -1.2534
 4986SOL     OW15535   0.396   0.357   8.436 -0.6952  0.0718 -0.4102
 4986SOL    HW115536   0.457   0.352   8.363  1.4297 -1.9460  1.3308
 4986SOL    HW215537   0.426   0.431   8.489  0.2143 -0.8191  0.3598
 4987SOL     OW15538   1.114   0.256   6.511  0.3399 -0.1825  0.1274
 4987SOL    HW115539   1.150   0.344   6.516 -1.6280  0.7737 -1.0736
 4987SOL    HW215540   1.190   0.198   6.513  1.6311  1.4224  2.4308
 4988SOL     OW15541   1.239   2.742   9.764 -0.4560  0.4557 -0.1147
 4988SOL    HW115542   1.277   2.813   9.816 -1.1460  0.5666  0.2424
 4988SOL    HW215543   1.146   2.761   9.761 -0.9302 -1.3178  1.4182
 4989SOL     OW15544   9.465   9.076   6.504  0.6841 -0.2963 -0.0511
 4989SOL    HW115545   9.437   8.992   6.467  1.9157 -1.0740  0.6994
 4989SOL    HW215546   9.456   9.138   6.432  0.9537 -1.3326 -1.0118
 4990SOL     OW15547   2.021   8.802   3.652  0.8545 -0.2910 -0.5286
 4990SOL    HW115548   2.044   8.859   3.579  0.1293 -0.5182 -0.9398
 4990SOL    HW215549   1.939   8.838   3.686 -0.3825 -1.8633 -1.6806
 4991SOL     OW15550   2.978   6.978   4.863 -0.0316 -0.2227  0.4695
 4991SOL    HW115551   2.948   6.945   4.947 -1.0752 -2.1890 -0.6012
 4991SOL    HW215552   2.977   6.901   4.805  0.1412  1.1670 -1.4733
 4992SOL     OW15553   3.282   6.962   8.113  0.1466  0.4038  0.1250
 4992SOL    HW115554   3.349   6.999   8.056  2.8332 -2.3351  1.2574
 4992SOL    HW215555   3.264   6.876   8.076 -1.5754  0.4257  0.8185
 4993SOL     OW15556   6.059   0.152   4.038  0.3447 -0.0768 -0.4674
 4993SOL    HW115557   5.973   0.138   4.078  0.5856  2.4312  1.1455
 4993SOL    HW215558   6.119   0.102   4.093  0.3067  1.0422  0.6483
 4994SOL     OW15559   6.003   9.210   2.743  0.1226  0.0501  0.3170
 4994SOL    HW115560   6.033   9.119   2.733  0.0101  0.0331  0.1246
 4994SOL    HW215561   5.925   9.204   2.798  0.6769  0.1293  1.1308
 4995SOL     OW15562   4.862   8.212   1.328 -0.4107  0.1148 -0.0046
 4995SOL    HW115563   4.805   8.213   1.405  0.4868 -1.5395  0.7493
 4995SOL    HW215564   4.834   8.135   1.279  0.2443  0.0936 -0.3509
 4996SOL     OW15565   6.336   6.701   0.743  0.0708 -0.2665 -0.0245
 4996SOL    HW115566   6.392   6.766   0.701  0.3620  0.2686  1.1655
 4996SOL    HW215567   6.252   6.746   0.757  0.1755 -0.2389  0.5288
 4997SOL     OW15568   5.511   9.084   7.045  0.2243  0.1089  1.2660
 4997SOL    HW115569   5.507   9.000   7.089  2.0242 -0.6994  0.0071
 4997SOL    HW215570   5.539   9.146   7.113 -1.6007 -0.1722  2.3159
 4998SOL     OW15571   1.120   4.121   1.331  0.3049 -0.3551  0.1460
 4998SOL    HW115572   1.172   4.094   1.256 -0.8825 -0.4056 -0.6847
 4998SOL    HW215573   1.107   4.215   1.319 -1.0638 -0.5987 -0.5024
 4999SOL     OW15574   2.341   2.255   9.469 -0.3217 -0.3540  0.4234
 4999SOL    HW115575   2.351   2.160   9.476  0.4282 -0.3907 -0.8496
 4999SOL    HW215576   2.260   2.274   9.517 -0.1646 -1.5484  1.2035
 5000SOL     OW15577   1.766   0.508   3.506 -0.0825 -0.0297  0.2512
 5000SOL    HW115578   1.707   0.570   3.548 -0.3767  0.4499 -0.8232
 5000SOL    HW215579   1.850   0.519   3.551 -0.2298  0.9024  0.3065
 5001SOL     OW15580   6.923   0.041   9.199 -0.0550  0.0031 -0.1651
 5001SOL    HW115581   6.995   0.022   9.139 -0.2114 -0.3212 -0.2526
 5001SOL    HW215582   6.965   0.075   9.278  0.1599  0.3210 -0.4134
 5002SOL     OW15583   0.710   3.283   7.604 -0.5071 -0.5354 -0.2186
 5002SOL    HW115584   0.713   3.345   7.530 -2.2451 -0.6582 -0.4397
 5002SOL    HW215585   0.679   3.201   7.565 -2.1204 -0.4198  0.7114
 5003SOL     OW15586   4.043   1.791   6.724  0.0001 -0.0157  0.5814
 5003SOL    HW115587   4.049   1.870   6.670 -3.1096 -0.1979 -0.2181
 5003SOL    HW215588   4.113   1.800   6.788  1.1890  2.2445 -0.9248
 5004SOL     OW15589   6.791   3.039   1.694  0.2937  0.2642  0.1170
 5004SOL    HW115590   6.714   3.078   1.654  0.7618  1.2479  0.1539
 5004SOL    HW215591   6.762   3.009   1.780 -0.2550 -0.1733 -0.2102
 5005SOL     OW15592   2.377   4.988   6.663  0.2369  0.0458  0.0922
 5005SOL    HW115593   2.423   4.985   6.747 -0.9372  0.1074  0.7725
 5005SOL    HW215594   2.430   4.936   6.604  0.6492 -0.7179  1.1037
 5006SOL     OW15595   6.414   2.773   9.402 -0.1662  0.9613  0.1335
 5006SOL    HW115596   6.339   2.721   9.373 -1.3935  2.4415  0.5614
 5006SOL    HW215597   6.416   2.848   9.343  1.7156  0.4111 -0.6081
 5007SOL     OW15598   8.674   9.865   9.237 -0.0790  0.0709 -0.6976
 5007SOL    HW115599   8.687   9.788   9.293 -0.3515  0.3569 -0.2472
 5007SOL    HW215600   8.762   9.903   9.228 -0.0158 -0.0441 -0.5733
 5008SOL     OW15601   7.471   1.756   1.368 -0.6326  0.8036 -0.0675
 5008SOL    HW115602   7.436   1.746   1.280  1.1126  0.1817 -0.7208
 5008SOL    HW215603   7.512   1.843   1.368  1.7195 -0.2358 -0.7771
 5009SOL     OW15604   4.234   6.565   2.854 -0.2956  0.1470 -0.5565
 5009SOL    HW115605   4.217   6.536   2.944  1.3429  1.2629  0.1778
 5009SOL    HW215606   4.302   6.504   2.822 -0.2659  0.2720 -0.7310
 5010SOL     OW15607   4.439   3.873   2.635  0.0615 -0.1940 -0.2214
 5010SOL    HW115608   4.363   3.931   2.638 -0.5466 -0.9191 -1.0920
 5010SOL    HW215609   4.446   3.838   2.724 -0.4147  0.1429 -0.0505
 5011SOL     OW15610   4.365   5.122   5.804 -0.5590  0.9481  0.2295
 5011SOL    HW115611   4.426   5.172   5.857 -1.2469  1.9733  0.0828
 5011SOL    HW215612   4.417   5.089   5.731  0.0624  0.8262  0.7243
 5012SOL     OW15613   4.981   3.106   8.587 -0.3270 -0.0847  0.2975
 5012SOL    HW115614   5.067   3.124   8.625 -1.3239  1.9502  1.7311
 5012SOL    HW215615   4.987   3.140   8.497  0.9405 -1.7646 -0.2993
 5013SOL     OW15616   4.801   0.861   5.921  0.5155  0.4332 -0.3298
 5013SOL    HW115617   4.727   0.808   5.891  0.2704  0.3444  0.4219
 5013SOL    HW215618   4.829   0.909   5.843 -0.6255  0.8150 -0.5246
 5014SOL     OW15619   7.921   4.861   4.832  0.5517  0.0139 -0.0316
 5014SOL    HW115620   7.953   4.944   4.867 -0.7803  0.3014  0.5717
 5014SOL    HW215621   7.923   4.801   4.906  2.0323 -0.6788 -0.5951
 5015SOL     OW15622   1.942   1.114   2.339 -0.0658  0.2711 -0.5856
 5015SOL    HW115623   1.967   1.199   2.303 -0.2868  0.5701 -0.0501
 5015SOL    HW215624   1.851   1.127   2.368 -0.5035 -0.4886 -1.5648
 5016SOL     OW15625   7.899   0.515   0.799  0.7159  0.2378 -0.1753
 5016SOL    HW115626   7.856   0.522   0.884 -0.4464 -0.1919 -0.7138
 5016SOL    HW215627   7.987   0.483   0.819  0.5867  0.5185  0.8929
 5017SOL     OW15628   3.495   8.979   1.776  0.3922  0.0974  0.5493
 5017SOL    HW115629   3.567   8.985   1.714  1.2719  1.6245  1.6413
 5017SOL    HW215630   3.473   8.886   1.778 -0.8071  0.1337 -3.2027
 5018SOL     OW15631   2.010   6.842   8.440 -0.2011  0.3910  0.1016
 5018SOL    HW115632   1.940   6.776   8.443  0.5761 -0.4378  0.5795
 5018SOL    HW215633   2.061   6.827   8.519  1.7166 -0.3870 -1.1996
 5019SOL     OW15634   3.649   9.098   6.747  0.1278  0.2038 -0.1290
 5019SOL    HW115635   3.635   9.192   6.733  2.2796  0.2320 -2.8124
 5019SOL    HW215636   3.601   9.056   6.676 -0.5183 -0.7505  0.8421
 5020SOL     OW15637   0.960   7.219   6.249  0.6526  0.0856  0.3477
 5020SOL    HW115638   0.932   7.243   6.161  0.5812 -1.0197  0.0517
 5020SOL    HW215639   0.888   7.246   6.306  1.0662  1.5872  0.1930
 5021SOL     OW15640   7.607   5.878   4.110 -0.3966  0.0942 -0.3688
 5021SOL    HW115641   7.653   5.918   4.036  1.3275 -0.6038  0.2562
 5021SOL    HW215642   7.604   5.948   4.176  1.0071 -0.2354  0.0712
 5022SOL     OW15643   9.643   8.365   7.492 -0.2849  0.1706 -0.3527
 5022SOL    HW115644   9.659   8.455   7.519 -0.7116 -0.0458  0.6591
 5022SOL    HW215645   9.714   8.315   7.532 -0.7236 -0.1038  0.0903
 5023SOL     OW15646   1.526   1.062   3.886  0.0092 -0.4013 -0.2562
 5023SOL    HW115647   1.568   0.991   3.934 -0.8663  0.5982  2.0909
 5023SOL    HW215648   1.596   1.125   3.870  0.1951 -0.5013  0.1743
 5024SOL     OW15649   5.310   7.990   6.670 -0.4713  0.4087  0.0107
 5024SOL    HW115650   5.233   7.938   6.694 -0.5935  0.8742  0.6629
 5024SOL    HW215651   5.288   8.079   6.697 -0.4284  0.8981 -1.4630
 5025SOL     OW15652   8.707   2.213   1.980  0.2317  0.1988 -0.0996
 5025SOL    HW115653   8.631   2.227   2.037  0.5056  0.6898  0.1551
 5025SOL    HW215654   8.681   2.142   1.922  0.0749 -0.5602  0.8746
 5026SOL     OW15655   1.710   4.078   2.954  0.2244  0.2056 -0.3102
 5026SOL    HW115656   1.692   4.042   3.040 -1.8518  1.4610 -0.1428
 5026SOL    HW215657   1.644   4.037   2.897  0.2115  0.9623 -0.8533
 5027SOL     OW15658   2.562   2.368   2.781 -0.1579  0.2981 -0.1807
 5027SOL    HW115659   2.611   2.422   2.718  0.8539  1.4546  1.5131
 5027SOL    HW215660   2.479   2.350   2.737 -0.3244  2.8141 -1.0889
 5028SOL     OW15661   3.066   5.636   7.320  0.3424  0.0035  0.2135
 5028SOL    HW115662   2.986   5.632   7.269 -0.8010 -0.8150  1.9554
 5028SOL    HW215663   3.131   5.589   7.268 -0.9527 -1.4084 -0.1777
 5029SOL     OW15664   9.213   9.197   0.377  0.1885 -0.1254 -0.1592
 5029SOL    HW115665   9.233   9.171   0.467  1.2146 -1.5449 -0.7556
 5029SOL    HW215666   9.257   9.131   0.323  0.9822  1.6184 -1.7445
 5030SOL     OW15667   6.103   8.078   2.039 -0.2475  0.1302  0.2950
 5030SOL    HW115668   6.131   8.074   1.948 -0.9508  1.2587  0.0146
 5030SOL    HW215669   6.172   8.128   2.084 -0.5481  0.7088  0.1152
 5031SOL     OW15670   6.518   8.047   1.690  0.2214 -0.2708 -0.3079
 5031SOL    HW115671   6.437   8.081   1.652 -0.7846 -0.8531  1.1920
 5031SOL    HW215672   6.524   8.089   1.775  0.8973 -1.0926  0.0657
 5032SOL     OW15673   1.588   9.276   6.215  0.1688  0.3223 -0.6635
 5032SOL    HW115674   1.500   9.248   6.187 -1.6440  2.3150  2.4866
 5032SOL    HW215675   1.603   9.358   6.169 -0.9218  1.3892  0.7861
 5033SOL     OW15676   0.363   8.773   4.352 -0.2468  0.4484 -0.3698
 5033SOL    HW115677   0.339   8.690   4.394 -0.2708 -0.2823 -1.7303
 5033SOL    HW215678   0.452   8.790   4.380  0.1663 -0.6630 -0.9494
 5034SOL     OW15679   5.158   3.937   7.607 -0.8987 -0.3844  0.1176
 5034SOL    HW115680   5.182   4.029   7.611  1.2206 -0.9236  0.9402
 5034SOL    HW215681   5.152   3.917   7.513  1.0284  0.0403 -0.1303
 5035SOL     OW15682   9.884   0.966   7.927 -0.3237 -0.1160  0.4252
 5035SOL    HW115683   9.852   0.909   7.997 -1.2860  1.3109  1.2002
 5035SOL    HW215684   9.972   0.992   7.955  0.5514 -1.9792 -0.4362
 5036SOL     OW15685   1.293   0.196   8.633  0.8737 -0.6821  0.9393
 5036SOL    HW115686   1.238   0.128   8.672 -1.0722  0.2849  0.0851
 5036SOL    HW215687   1.230   0.261   8.600  2.6072  1.0389  0.8341
 5037SOL     OW15688   5.933   4.475   2.928  0.4220  0.1319 -0.2157
 5037SOL    HW115689   5.845   4.469   2.965  0.2249 -0.4490 -0.7613
 5037SOL    HW215690   5.929   4.545   2.864  0.7286  1.0485  0.7398
 5038SOL     OW15691   5.862   8.736   7.846 -0.3123  0.1152 -0.0084
 5038SOL    HW115692   5.809   8.800   7.799 -0.6645 -0.6023 -0.6176
 5038SOL    HW215693   5.802   8.699   7.911 -0.2276  0.1157  0.0697
 5039SOL     OW15694   2.652   7.730   4.218  0.3750  0.1564 -0.1998
 5039SOL    HW115695   2.725   7.731   4.279  0.7445 -2.2682 -0.5269
 5039SOL    HW215696   2.576   7.707   4.272  0.5519 -1.1204 -0.4653
 5040SOL     OW15697   5.649   9.951   2.110  0.0569 -0.1725  0.4280
 5040SOL    HW115698   5.720   9.887   2.097  0.8353  0.5862  0.8295
 5040SOL    HW215699   5.643   9.962   2.205 -0.3716  0.0243  0.3808
 5041SOL     OW15700   0.045   2.647   0.090 -0.1847 -0.4525 -0.1413
 5041SOL    HW115701   0.028   2.696   0.171  0.5812  0.4202 -0.4811
 5041SOL    HW215702  -0.041   2.629   0.054 -0.4979  1.1047 -0.2445
 5042SOL     OW15703   2.324   8.181   7.821 -0.4770 -0.1382 -0.1089
 5042SOL    HW115704   2.253   8.138   7.869 -0.7123  0.0052 -0.3202
 5042SOL    HW215705   2.382   8.214   7.889 -0.1470 -1.0186  0.0563
 5043SOL     OW15706   9.818   8.732   5.732  0.0806 -0.1998  0.0529
 5043SOL    HW115707   9.772   8.744   5.649 -0.5834 -1.3035  0.2328
 5043SOL    HW215708   9.909   8.750   5.712 -0.1513  0.0781 -0.7965
 5044SOL     OW15709   2.821   2.316   8.127 -0.3617 -0.2161  0.1846
 5044SOL    HW115710   2.750   2.344   8.069  0.8068 -0.1125 -1.2656
 5044SOL    HW215711   2.853   2.397   8.167 -1.3650 -0.3210  1.2454
 5045SOL     OW15712   0.319   1.217   6.293  0.0923 -0.4757 -0.3169
 5045SOL    HW115713   0.391   1.184   6.346  0.5962 -1.6270 -1.6687
 5045SOL    HW215714   0.250   1.152   6.303 -0.8050  0.6271  0.9797
 5046SOL     OW15715   5.883   7.187   6.250  0.2433  0.2380  0.3631
 5046SOL    HW115716   5.842   7.219   6.169  0.9988 -0.1823 -0.2026
 5046SOL    HW215717   5.946   7.256   6.273 -0.2384  0.5348  0.8143
 5047SOL     OW15718   2.015   4.898   2.434 -0.1112 -0.9245 -0.3243
 5047SOL    HW115719   2.038   4.987   2.461 -0.3030 -0.8304 -0.4625
 5047SOL    HW215720   2.098   4.856   2.412 -0.0172 -0.7904 -0.2216
 5048SOL     OW15721   7.317   5.168   7.948  0.5500 -0.0505 -0.1597
 5048SOL    HW115722   7.399   5.134   7.984  0.2815  0.8908  1.4777
 5048SOL    HW215723   7.297   5.245   8.002 -1.2393 -0.0641 -0.7219
 5049SOL     OW15724   2.911   9.239   8.125  0.1267  0.0571  0.2512
 5049SOL    HW115725   2.950   9.325   8.137  1.4437 -0.6003  0.9119
 5049SOL    HW215726   2.869   9.243   8.039 -0.6735  1.6449  0.6746
 5050SOL     OW15727   3.548   4.327   2.586 -0.4939  0.2392  0.1198
 5050SOL    HW115728   3.547   4.239   2.624  2.5489 -0.1952 -0.5006
 5050SOL    HW215729   3.599   4.379   2.649 -0.3102  0.9589 -0.6074
 5051SOL     OW15730   9.868   6.483   0.113  0.1894  0.4804 -0.0920
 5051SOL    HW115731   9.938   6.459   0.052 -0.0016 -0.1791 -0.0651
 5051SOL    HW215732   9.851   6.575   0.096  1.5606  0.8493  0.4036
 5052SOL     OW15733   5.792   1.551   4.504 -0.0885 -0.2547 -0.4499
 5052SOL    HW115734   5.704   1.549   4.541  0.6184  0.9508  1.4912
 5052SOL    HW215735   5.784   1.602   4.424 -1.3280 -1.1234 -0.9076
 5053SOL     OW15736   1.825   8.079   7.137 -0.4404  0.0301 -0.1014
 5053SOL    HW115737   1.879   8.018   7.187  1.4324  1.1376 -0.6549
 5053SOL    HW215738   1.751   8.100   7.195 -0.0192 -1.1553  0.8916
 5054SOL     OW15739   3.675   1.848   7.822 -0.4260  0.0319 -0.1079
 5054SOL    HW115740   3.731   1.893   7.885 -0.3350  0.8234 -0.7328
 5054SOL    HW215741   3.719   1.765   7.805  0.1468  0.3069  0.0106
 5055SOL     OW15742   5.456   4.121   4.179 -0.0436 -0.4342 -0.6131
 5055SOL    HW115743   5.535   4.080   4.143  0.8782  0.3949  0.3840
 5055SOL    HW215744   5.385   4.062   4.155  0.5979 -0.2866 -3.1125
 5056SOL     OW15745   3.333   2.506   8.045 -0.2472  0.2846  0.1479
 5056SOL    HW115746   3.252   2.467   8.078 -0.7083 -1.0753 -2.3230
 5056SOL    HW215747   3.380   2.534   8.124 -2.3265 -0.4341  1.7507
 5057SOL     OW15748   4.535   2.656   5.611 -0.4882  0.0426 -0.6076
 5057SOL    HW115749   4.565   2.570   5.584 -0.0785 -0.3946  1.1516
 5057SOL    HW215750   4.548   2.658   5.706 -3.0921  1.0078 -0.1947
 5058SOL     OW15751   7.455   8.892   9.368 -0.0936 -0.4472 -0.2183
 5058SOL    HW115752   7.360   8.887   9.381 -0.0959 -0.3533 -0.1947
 5058SOL    HW215753   7.483   8.801   9.358  0.2876 -0.7861  2.9336
 5059SOL     OW15754   6.521   9.791   9.037 -0.4723 -0.1319 -0.4276
 5059SOL    HW115755   6.551   9.879   9.013 -1.9260  0.8470  1.1818
 5059SOL    HW215756   6.438   9.781   8.990  0.4639 -1.3410 -1.9028
 5060SOL     OW15757   5.463   9.724   0.729 -0.2438  0.0297 -0.0315
 5060SOL    HW115758   5.457   9.669   0.651  1.5089 -0.4969  0.1791
 5060SOL    HW215759   5.471   9.663   0.802  0.9675  0.5418  0.2803
 5061SOL     OW15760   0.062   5.668   1.489 -0.1277  0.7886  0.1949
 5061SOL    HW115761   0.113   5.587   1.482 -0.3856  0.2789  3.0024
 5061SOL    HW215762   0.041   5.691   1.398  1.4391 -1.3108 -0.7917
 5062SOL     OW15763   8.988   0.052   2.609 -0.1383 -0.6236 -0.0385
 5062SOL    HW115764   8.939   0.072   2.688 -2.0245  1.2899 -1.5579
 5062SOL    HW215765   9.024  -0.035   2.624 -0.8202 -0.5211  2.6903
 5063SOL     OW15766   3.876   1.255   5.319 -0.4623  0.1283 -0.1247
 5063SOL    HW115767   3.845   1.173   5.281  0.6743 -0.7161  0.7287
 5063SOL    HW215768   3.941   1.287   5.257 -2.2429  1.4235 -1.4395
 5064SOL     OW15769   5.699   5.288   7.758  0.1234  0.4420  0.3942
 5064SOL    HW115770   5.699   5.300   7.663 -1.4445 -0.7970  0.1959
 5064SOL    HW215771   5.781   5.244   7.777  2.0583  3.6184  0.1063
 5065SOL     OW15772   2.997   3.841   5.862  0.0306 -0.5174 -0.6419
 5065SOL    HW115773   2.920   3.874   5.816  0.4659 -1.2984 -1.9770
 5065SOL    HW215774   3.071   3.865   5.805  0.4998 -2.3204 -0.8457
 5066SOL     OW15775   8.149   8.977   6.809 -0.1232  0.1038  0.2435
 5066SOL    HW115776   8.227   8.970   6.753 -0.3890 -0.3045 -0.0775
 5066SOL    HW215777   8.139   9.071   6.824  2.0846  0.0846  2.6337
 5067SOL     OW15778   2.365   0.118   3.751  0.0842 -0.2642  0.1931
 5067SOL    HW115779   2.352   0.165   3.669 -1.0498  0.1289  0.5743
 5067SOL    HW215780   2.432   0.168   3.797  1.0507 -0.7403 -0.6677
 5068SOL     OW15781   8.719   9.807   2.260  0.0264  0.0635  0.6297
 5068SOL    HW115782   8.789   9.748   2.288  0.5027  0.0275 -0.5843
 5068SOL    HW215783   8.765   9.883   2.225 -0.4945 -0.4506 -1.2513
 5069SOL     OW15784   9.796   5.301   3.291  0.2573 -0.4347  0.3538
 5069SOL    HW115785   9.719   5.349   3.260  1.3076  0.4896 -0.9518
 5069SOL    HW215786   9.760   5.229   3.344 -1.4859 -0.0696 -0.2616
 5070SOL     OW15787   0.985   2.157   8.272  0.3963  0.1515 -0.6168
 5070SOL    HW115788   1.044   2.233   8.266  0.7304  0.2821  2.3996
 5070SOL    HW215789   1.024   2.103   8.341 -1.1648 -1.5423 -0.9992
 5071SOL     OW15790   7.415   6.744   9.430 -0.1309 -0.4451 -0.1102
 5071SOL    HW115791   7.344   6.694   9.390 -0.2448 -0.9461  0.6837
 5071SOL    HW215792   7.483   6.679   9.449 -1.2269 -0.8285  3.1147
 5072SOL     OW15793   8.637   3.213   7.230  0.4226  0.5978 -0.6874
 5072SOL    HW115794   8.561   3.209   7.172  0.3618  0.3707 -0.5975
 5072SOL    HW215795   8.637   3.302   7.263 -0.7412  0.1923  0.5235
 5073SOL     OW15796   6.002   1.268   5.336  0.3509 -0.1658 -0.1898
 5073SOL    HW115797   5.973   1.353   5.303  1.0084  0.8076  1.5932
 5073SOL    HW215798   5.921   1.225   5.363  0.1409  0.6994  0.6366
 5074SOL     OW15799   1.725   8.044   3.556  0.1678 -0.2349 -0.2515
 5074SOL    HW115800   1.665   7.974   3.582 -2.1167  1.2405 -1.2099
 5074SOL    HW215801   1.809   8.000   3.542 -0.9525 -2.6153  0.0505
 5075SOL     OW15802   7.849   9.649   9.111  0.6861  0.5650 -0.3443
 5075SOL    HW115803   7.826   9.562   9.079  1.8113  0.1652 -0.0960
 5075SOL    HW215804   7.825   9.647   9.204  0.2425  0.6961 -0.4536
 5076SOL     OW15805   4.436   6.424   0.090  0.2910  0.3343 -0.1135
 5076SOL    HW115806   4.374   6.476   0.039 -1.1744 -0.8663  0.3770
 5076SOL    HW215807   4.396   6.418   0.177  0.7312 -1.0651  0.0080
 5077SOL     OW15808   1.434   8.185   6.453  0.2264 -0.1407  0.8081
 5077SOL    HW115809   1.527   8.204   6.440  0.1287  0.4285  0.9193
 5077SOL    HW215810   1.429   8.142   6.538  0.3537  0.1597  0.9712
 5078SOL     OW15811   2.309   6.056   6.471  0.4996  0.0354 -0.3157
 5078SOL    HW115812   2.277   6.067   6.560  1.0453 -1.1511  0.0424
 5078SOL    HW215813   2.282   6.136   6.426 -0.3839  0.3428  0.7247
 5079SOL     OW15814   6.043   2.860   8.899 -0.1486  0.8595  0.2386
 5079SOL    HW115815   6.109   2.857   8.968 -0.1516  1.3937  0.2738
 5079SOL    HW215816   5.999   2.944   8.913  0.0155  1.0876 -0.5676
 5080SOL     OW15817   7.398   4.404   0.235 -0.4354 -0.1593  0.0959
 5080SOL    HW115818   7.431   4.493   0.221 -0.9428 -0.3724 -3.2774
 5080SOL    HW215819   7.315   4.402   0.189 -1.7331 -1.7106  2.3302
 5081SOL     OW15820   5.872   7.291   1.751 -0.0992  0.1042 -0.0264
 5081SOL    HW115821   5.921   7.263   1.829  0.1247 -0.4531 -0.3614
 5081SOL    HW215822   5.911   7.375   1.727  0.6918 -0.3244 -0.2807
 5082SOL     OW15823   6.262   4.581   9.500  0.0251  0.2919  0.1525
 5082SOL    HW115824   6.263   4.658   9.557  0.0497 -0.8986  1.8435
 5082SOL    HW215825   6.349   4.579   9.461  0.9344 -0.3054  2.1370
 5083SOL     OW15826   5.674   7.041   1.873 -0.2893 -0.7429 -0.4766
 5083SOL    HW115827   5.746   7.097   1.842  0.5443 -2.6474 -2.1380
 5083SOL    HW215828   5.697   7.022   1.964 -1.0484  2.2256  0.4451
 5084SOL     OW15829   2.786   9.568   9.695 -0.0465  0.2465 -0.0449
 5084SOL    HW115830   2.879   9.572   9.717  0.0597 -1.5665 -0.0655
 5084SOL    HW215831   2.743   9.622   9.761  1.0236  1.3787 -0.2273
 5085SOL     OW15832   7.535   9.372   9.257  0.2898 -0.2077  0.0103
 5085SOL    HW115833   7.537   9.349   9.350 -0.4393  2.2485  0.7054
 5085SOL    HW215834   7.461   9.323   9.222 -0.3037 -0.1032  1.0601
 5086SOL     OW15835   9.849   1.534   7.810  0.7826  0.1541 -0.2290
 5086SOL    HW115836   9.897   1.517   7.891  0.3821 -2.6735 -0.4920
 5086SOL    HW215837   9.758   1.512   7.830  0.5744  0.0096 -1.2647
 5087SOL     OW15838   7.009   8.330   7.310 -0.3560  0.2940 -0.2502
 5087SOL    HW115839   7.039   8.381   7.386  0.8757  1.9486 -1.7580
 5087SOL    HW215840   7.082   8.272   7.290 -0.6357 -0.0644 -0.2310
 5088SOL     OW15841   4.627   1.032   3.712  0.4926 -0.3814  0.2827
 5088SOL    HW115842   4.651   0.942   3.732  0.3012 -0.3749  0.5438
 5088SOL    HW215843   4.541   1.026   3.671  0.1962 -0.2646  0.8863
 5089SOL     OW15844   4.398   7.236   7.576 -0.1496  0.3394 -0.5130
 5089SOL    HW115845   4.430   7.313   7.529 -0.3007 -0.0837 -1.3414
 5089SOL    HW215846   4.476   7.182   7.587 -0.4240 -0.4402 -2.0405
 5090SOL     OW15847   1.865   9.689   8.478  0.0515 -0.0832 -0.1625
 5090SOL    HW115848   1.960   9.697   8.487  0.0382  0.3063 -0.3127
 5090SOL    HW215849   1.838   9.636   8.552  0.1015  1.8827  1.3492
 5091SOL     OW15850   8.104   8.646   5.231 -0.2517 -0.1711  0.3818
 5091SOL    HW115851   8.072   8.608   5.312 -2.1598 -2.4835 -1.3189
 5091SOL    HW215852   8.026   8.679   5.187  0.1808 -1.8653 -1.8614
 5092SOL     OW15853   8.192   5.320   3.211 -0.2817 -0.1448 -0.2211
 5092SOL    HW115854   8.252   5.365   3.270 -2.0036  1.2814  0.5535
 5092SOL    HW215855   8.218   5.348   3.123  1.8182 -1.6837 -0.1587
 5093SOL     OW15856   5.472   5.838   2.513 -0.1494 -0.1479 -0.1782
 5093SOL    HW115857   5.449   5.931   2.523  1.7110  0.3331  0.0161
 5093SOL    HW215858   5.404   5.791   2.561 -1.9027  1.0068 -1.4108
 5094SOL     OW15859   5.018   9.418   3.899 -0.2319 -0.0486  0.2852
 5094SOL    HW115860   5.083   9.348   3.890 -0.8918 -0.5465 -1.0532
 5094SOL    HW215861   5.067   9.499   3.891  0.2938 -0.4150 -0.3154
 5095SOL     OW15862   5.214   0.247   2.435 -0.3490  0.5631  0.2065
 5095SOL    HW115863   5.257   0.326   2.467  0.1484  0.1954  0.4496
 5095SOL    HW215864   5.240   0.241   2.343  0.1457  0.3276  0.3591
 5096SOL     OW15865   5.852   2.197   6.943 -0.7843  0.2206 -0.2148
 5096SOL    HW115866   5.924   2.252   6.975 -0.4079 -0.9934  1.1027
 5096SOL    HW215867   5.889   2.109   6.940 -1.8270 -0.2065 -0.8285
 5097SOL     OW15868   2.791   2.091   4.476 -0.1968 -0.2238 -0.4068
 5097SOL    HW115869   2.855   2.099   4.406  1.1348 -0.8653  0.6769
 5097SOL    HW215870   2.837   2.123   4.554 -0.9405 -1.3827  0.5432
 5098SOL     OW15871   2.263   9.521   7.045 -0.5948 -0.1902 -0.1868
 5098SOL    HW115872   2.249   9.442   7.097  1.0558 -0.0413  0.5406
 5098SOL    HW215873   2.176   9.559   7.034 -1.3234 -1.7667 -0.0145
 5099SOL     OW15874   3.819   0.305   5.563 -0.1973 -0.2355  0.1790
 5099SOL    HW115875   3.750   0.254   5.521  0.3602 -1.3713  0.5912
 5099SOL    HW215876   3.787   0.321   5.652 -2.3017  3.9301 -1.0749
 5100SOL     OW15877   3.682   3.406   6.747 -0.6967 -0.6785 -0.7080
 5100SOL    HW115878   3.674   3.315   6.777 -2.5647 -0.3308 -0.0071
 5100SOL    HW215879   3.744   3.446   6.807 -1.1980 -1.0643  0.0813
 5101SOL     OW15880   5.956   5.457   9.289 -0.1404 -0.5882  0.2746
 5101SOL    HW115881   5.938   5.500   9.372 -0.6994 -2.1949  1.0226
 5101SOL    HW215882   5.890   5.493   9.229  0.3993  0.7329  0.4325
 5102SOL     OW15883   1.082   5.536   3.209  0.3281  0.3945  0.4766
 5102SOL    HW115884   1.043   5.495   3.286  1.0160 -0.4554  0.3830
 5102SOL    HW215885   1.150   5.475   3.180 -0.5921  0.1726 -1.4316
 5103SOL     OW15886   9.399   9.343   4.951  0.8638 -0.2210 -0.1783
 5103SOL    HW115887   9.335   9.371   4.885  0.8757 -0.7613 -0.4290
 5103SOL    HW215888   9.468   9.301   4.900  0.2564 -1.8146  0.2649
 5104SOL     OW15889   4.592   2.352   7.006  0.3288  0.3184 -0.4952
 5104SOL    HW115890   4.681   2.386   7.014  0.2942  0.7229 -1.6962
 5104SOL    HW215891   4.594   2.268   7.052  1.4734  0.0888 -0.9480
 5105SOL     OW15892   3.197   6.808   9.913  0.2460 -0.0082  0.0951
 5105SOL    HW115893   3.182   6.883   9.855  1.1656 -0.4632 -0.7535
 5105SOL    HW215894   3.131   6.744   9.886 -0.9345  0.6864  1.2194
 5106SOL     OW15895   6.931   6.820   6.527  0.1547  0.0721  0.3234
 5106SOL    HW115896   6.845   6.843   6.491  0.2641  0.3215  0.2140
 5106SOL    HW215897   6.993   6.846   6.458  0.3080 -0.2220  0.3522
 5107SOL     OW15898   1.419   1.585   4.072 -0.5788 -0.4426 -0.0547
 5107SOL    HW115899   1.377   1.501   4.089  0.4735 -0.7415  1.2605
 5107SOL    HW215900   1.354   1.651   4.095 -0.8862 -0.8965  0.3787
 5108SOL     OW15901   2.001   4.537   9.354  0.2735 -0.0987 -1.0081
 5108SOL    HW115902   2.043   4.623   9.349 -0.0493 -0.0050 -2.8047
 5108SOL    HW215903   2.054   4.488   9.416  0.2084  1.5164  0.3958
 5109SOL     OW15904   8.905   5.771   5.975 -0.0485  0.1025  0.0207
 5109SOL    HW115905   8.960   5.819   6.038  1.9400 -1.0817 -0.7285
 5109SOL    HW215906   8.923   5.679   5.993 -1.3706 -0.3200 -0.6757
 5110SOL     OW15907   9.861   2.227   2.277  0.1906 -0.5050  0.2412
 5110SOL    HW115908   9.898   2.267   2.199 -1.0540  2.1620  0.8689
 5110SOL    HW215909   9.928   2.167   2.308  1.8442  0.4150 -1.3509
 5111SOL     OW15910   9.503   3.977   1.754  0.2378  0.4400  0.1377
 5111SOL    HW115911   9.552   4.040   1.807 -0.4736 -0.4211  1.9020
 5111SOL    HW215912   9.441   4.030   1.705 -0.3655  1.1669  1.6191
 5112SOL     OW15913   2.028   8.295   3.575  1.1237  0.4685  0.5352
 5112SOL    HW115914   2.118   8.327   3.573  1.1335  0.4609 -1.1957
 5112SOL    HW215915   2.019   8.247   3.492 -0.2578 -0.1520  1.0212
 5113SOL     OW15916   3.297   5.190   7.278 -0.9533 -0.1059 -0.2694
 5113SOL    HW115917   3.329   5.131   7.347 -0.9768  0.6234  0.3737
 5113SOL    HW215918   3.237   5.135   7.227 -0.6936 -0.7460  0.0962
 5114SOL     OW15919   9.755   3.192   3.627  0.0688  0.0329  0.6884
 5114SOL    HW115920   9.845   3.222   3.615  0.1428 -0.2180  0.6257
 5114SOL    HW215921   9.759   3.135   3.704 -0.0242 -0.0299  0.6465
 5115SOL     OW15922   6.775   3.553   4.366 -0.5740 -0.1191  0.3359
 5115SOL    HW115923   6.777   3.480   4.305  0.3927 -0.2250  0.4799
 5115SOL    HW215924   6.754   3.513   4.450 -0.6566 -0.1433  0.3042
 5116SOL     OW15925   0.779   7.253   6.468 -0.2236 -0.2277  0.0517
 5116SOL    HW115926   0.702   7.288   6.424  0.2883 -1.4630 -1.9391
 5116SOL    HW215927   0.746   7.180   6.520 -0.7192  0.8028  1.2646
 5117SOL     OW15928   0.890   0.230   8.658 -0.3597 -0.1664  0.1777
 5117SOL    HW115929   0.978   0.243   8.620  0.1926  0.1262  1.5258
 5117SOL    HW215930   0.884   0.295   8.727 -1.3063 -0.7819  0.6812
 5118SOL     OW15931   2.176   7.153   1.212  0.0029 -0.4970 -0.0466
 5118SOL    HW115932   2.263   7.149   1.170 -0.3875 -1.1193 -0.8243
 5118SOL    HW215933   2.189   7.108   1.296  0.1020 -1.9439 -0.7980
 5119SOL     OW15934   4.288   9.939   7.468  0.1808  0.0313 -0.0664
 5119SOL    HW115935   4.383   9.943   7.483  0.1814  1.1449 -0.2755
 5119SOL    HW215936   4.254   9.892   7.544  0.8410  0.1354  0.3057
 5120SOL     OW15937   3.011   6.500   9.327  0.6008 -0.1589 -0.2911
 5120SOL    HW115938   2.993   6.406   9.328 -0.9708  0.0185  2.6794
 5120SOL    HW215939   3.091   6.510   9.378 -1.0632  0.2038  2.4825
 5121SOL     OW15940   0.091   5.169   0.981  0.5433  0.6189 -0.0113
 5121SOL    HW115941   0.067   5.215   1.061 -0.3969  1.6126 -0.8321
 5121SOL    HW215942   0.102   5.239   0.916 -0.6797 -0.2766 -1.2395
 5122SOL     OW15943   7.167   0.329   1.459 -0.4638 -0.0535 -0.0508
 5122SOL    HW115944   7.204   0.328   1.371  0.5166 -1.5683  0.3507
 5122SOL    HW215945   7.233   0.374   1.512  0.6761 -2.3148  0.5671
 5123SOL     OW15946   8.365   4.955   9.796 -0.7570 -0.1230  0.0119
 5123SOL    HW115947   8.275   4.966   9.826 -1.7970 -4.0371 -1.1445
 5123SOL    HW215948   8.358   4.907   9.713  2.3760 -2.1669  0.7418
 5124SOL     OW15949   7.166   7.962   6.195 -0.0675  0.3427  0.2176
 5124SOL    HW115950   7.241   7.903   6.193  0.1055  0.5622  0.2465
 5124SOL    HW215951   7.193   8.034   6.252  0.6108  1.6224 -1.6277
 5125SOL     OW15952   3.316   0.026   8.355 -0.1521  0.5368 -0.0392
 5125SOL    HW115953   3.379   0.095   8.334 -0.6748  1.0935  0.1930
 5125SOL    HW215954   3.370  -0.047   8.385  0.3674  1.1918  0.6711
 5126SOL     OW15955   0.495   0.254   5.622 -0.1264  0.1376 -0.1374
 5126SOL    HW115956   0.566   0.192   5.603 -1.0113 -1.0824  0.3660
 5126SOL    HW215957   0.536   0.321   5.677  1.2540  0.9626 -2.0694
 5127SOL     OW15958   7.057   6.292   5.410 -0.0438 -0.4432  0.8811
 5127SOL    HW115959   7.131   6.265   5.356 -0.7862 -0.9978  0.1125
 5127SOL    HW215960   7.053   6.387   5.399 -0.1430 -0.5377  0.0090
 5128SOL     OW15961   5.277   4.246   3.578 -0.2576 -0.1112  0.2047
 5128SOL    HW115962   5.255   4.179   3.643 -0.0798 -0.6465 -0.2883
 5128SOL    HW215963   5.329   4.310   3.627  0.9564 -1.1443  0.3155
 5129SOL     OW15964   8.248   2.535   9.105 -0.6409  0.1804  0.1115
 5129SOL    HW115965   8.196   2.580   9.038  0.6611  0.0233 -1.0559
 5129SOL    HW215966   8.336   2.530   9.068 -0.0308 -0.5273  1.5661
 5130SOL     OW15967   5.326   2.688   5.728 -0.4677 -0.2296 -0.0766
 5130SOL    HW115968   5.336   2.758   5.663  0.4771 -0.8460 -0.6094
 5130SOL    HW215969   5.403   2.634   5.717 -0.3836 -0.4596  1.4457
 5131SOL     OW15970   2.503   5.145   4.018  0.4209 -0.8194  0.3428
 5131SOL    HW115971   2.548   5.130   4.101 -1.0602 -1.3464  1.0844
 5131SOL    HW215972   2.435   5.209   4.038  0.2765 -0.6643 -0.5627
 5132SOL     OW15973   6.191   0.432   8.463  0.6644 -0.0308 -0.5893
 5132SOL    HW115974   6.146   0.444   8.547  1.4408  1.7453 -0.3834
 5132SOL    HW215975   6.133   0.473   8.399  0.1056 -1.3235 -0.9408
 5133SOL     OW15976   9.707   9.125   1.652  0.2195 -0.1386  0.0557
 5133SOL    HW115977   9.749   9.091   1.573 -1.0658  1.4447 -1.4073
 5133SOL    HW215978   9.774   9.179   1.693  0.2636  0.8286 -1.2157
 5134SOL     OW15979   9.669   7.075   4.929  0.2014 -0.4758  0.3229
 5134SOL    HW115980   9.715   7.098   5.009 -3.9394  0.1727  2.8448
 5134SOL    HW215981   9.647   6.982   4.939 -0.5570 -0.3332  0.1044
 5135SOL     OW15982   8.456   7.714   6.047  0.0212 -0.3225 -0.8006
 5135SOL    HW115983   8.538   7.735   6.002  0.4427  0.6321  0.3875
 5135SOL    HW215984   8.482   7.669   6.127 -0.5301  1.0116  0.1642
 5136SOL     OW15985   0.310   7.621   6.472  0.0718 -1.0689 -0.5497
 5136SOL    HW115986   0.230   7.572   6.451 -0.3992 -1.0944  1.1634
 5136SOL    HW215987   0.278   7.704   6.509  0.8552 -0.3819 -1.3777
 5137SOL     OW15988   2.413   9.419   9.716 -0.3650  0.3204 -0.0067
 5137SOL    HW115989   2.395   9.513   9.724 -0.6136  0.1071  2.6706
 5137SOL    HW215990   2.490   9.415   9.659  0.0877  2.2149  0.3968
 5138SOL     OW15991   0.708   8.362   0.169 -0.2150  0.1921  0.0778
 5138SOL    HW115992   0.651   8.434   0.143 -0.2114  0.0679 -0.2889
 5138SOL    HW215993   0.651   8.285   0.172 -0.1496  0.1441  0.1087
 5139SOL     OW15994   8.436   5.168   8.704 -0.2781 -0.1096  0.3591
 5139SOL    HW115995   8.496   5.155   8.778 -0.5329  1.2610  0.8241
 5139SOL    HW215996   8.362   5.216   8.740  0.0050  1.3934 -0.9594
 5140SOL     OW15997   7.172   1.943   9.774 -0.5075  0.4991 -0.0085
 5140SOL    HW115998   7.184   1.849   9.780 -0.2428  0.5404  0.1094
 5140SOL    HW215999   7.206   1.977   9.857  2.2833  1.0041 -1.2743
 5141SOL     OW16000   8.256   7.732   2.628  0.0450 -0.5766  0.2476
 5141SOL    HW116001   8.260   7.668   2.557 -1.0246 -0.4357  0.0427
 5141SOL    HW216002   8.176   7.710   2.676 -0.4585  0.7129  0.0518
 5142SOL     OW16003   1.970   7.590   1.937  0.4539  0.1036  0.3022
 5142SOL    HW116004   2.018   7.510   1.961  0.3548  0.5384  2.1030
 5142SOL    HW216005   1.880   7.571   1.963  0.3640  0.6656  0.4079
 5143SOL     OW16006   9.820   1.301   3.513 -0.0039 -0.8291  0.6391
 5143SOL    HW116007   9.733   1.301   3.474 -0.5574 -0.2593  1.8200
 5143SOL    HW216008   9.870   1.364   3.461 -0.7439 -0.0230  0.8722
 5144SOL     OW16009   8.284   2.229   2.767  0.0791 -0.3836 -0.4640
 5144SOL    HW116010   8.343   2.300   2.790 -0.8473  0.4244 -0.5043
 5144SOL    HW216011   8.311   2.201   2.680  0.8242 -0.5009 -0.2068
 5145SOL     OW16012   7.967   2.293   4.342 -0.1958  0.2679  0.0175
 5145SOL    HW116013   8.016   2.252   4.270 -0.9734 -0.2390 -0.2330
 5145SOL    HW216014   7.879   2.305   4.306  0.2689  3.2730 -0.3576
 5146SOL     OW16015   1.578   3.913   0.251  0.2079 -0.1518 -0.2753
 5146SOL    HW116016   1.549   3.838   0.303 -0.3604 -0.3509 -0.8564
 5146SOL    HW216017   1.523   3.909   0.172 -1.3306  2.0517  0.5762
 5147SOL     OW16018   4.006   6.387   3.648  0.0020  0.3875  0.3024
 5147SOL    HW116019   3.944   6.411   3.580 -1.6809  2.8222  2.5072
 5147SOL    HW216020   4.090   6.421   3.618 -0.7355  1.5478 -0.5221
 5148SOL     OW16021   9.684   6.711   8.261 -0.0339  0.4976 -0.0061
 5148SOL    HW116022   9.714   6.659   8.187 -1.0660  0.2010 -0.2391
 5148SOL    HW216023   9.688   6.650   8.336  1.3200  0.8915  0.2725
 5149SOL     OW16024   5.306   1.090   5.120  0.1749  0.1175  0.3835
 5149SOL    HW116025   5.344   1.080   5.032 -3.0563  0.3388 -1.1814
 5149SOL    HW216026   5.354   1.163   5.158  1.2722  0.4256 -1.4501
 5150SOL     OW16027   9.138   4.207   3.431 -0.0842  0.7053 -0.2424
 5150SOL    HW116028   9.221   4.222   3.475 -0.6001  0.6217  0.7862
 5150SOL    HW216029   9.158   4.143   3.363  0.9637  1.6910 -0.9120
 5151SOL     OW16030   4.191   7.283   2.656 -0.0559 -0.6282 -0.3866
 5151SOL    HW116031   4.166   7.375   2.646  0.3152 -0.5090 -0.2542
 5151SOL    HW216032   4.209   7.254   2.566  0.3374 -0.4171 -0.3816
 5152SOL     OW16033   5.960   4.403   3.688  0.1146  0.3281 -0.7889
 5152SOL    HW116034   6.047   4.433   3.666 -0.6570  1.7825 -2.0317
 5152SOL    HW216035   5.915   4.481   3.721  0.5354 -1.2053  4.2853
 5153SOL     OW16036   9.099   5.999   6.100  0.2187  0.1956 -0.3820
 5153SOL    HW116037   9.095   5.985   6.195 -0.5214 -0.8618 -0.5611
 5153SOL    HW216038   9.180   5.957   6.073 -0.0361 -0.3195 -0.3508
 5154SOL     OW16039   8.587   0.085   7.711 -0.7545  0.9133  0.6166
 5154SOL    HW116040   8.500   0.065   7.678 -0.9916  4.0660 -1.0279
 5154SOL    HW216041   8.635   0.119   7.636  1.3648  0.8957  1.8561
 5155SOL     OW16042   5.230   1.667   4.719 -0.1416  0.3078  0.3244
 5155SOL    HW116043   5.303   1.711   4.675 -0.3519  2.0910  1.6353
 5155SOL    HW216044   5.241   1.574   4.698  2.6782  0.4817  0.6962
 5156SOL     OW16045   0.585   1.524   6.979 -0.2212 -0.1368 -0.2011
 5156SOL    HW116046   0.575   1.476   7.060  1.0130 -0.6453 -0.3232
 5156SOL    HW216047   0.590   1.457   6.911 -1.0041  0.2720 -0.6760
 5157SOL     OW16048   5.444   3.421   9.273  0.0965  0.2859 -0.0434
 5157SOL    HW116049   5.526   3.411   9.320 -0.1538  1.7058  0.7554
 5157SOL    HW216050   5.450   3.506   9.230 -1.3940  0.9834  1.0136
 5158SOL     OW16051   6.960   9.883   8.310 -0.0061  0.5828  0.7359
 5158SOL    HW116052   6.908   9.830   8.371 -0.6253 -0.3499 -0.5611
 5158SOL    HW216053   6.903   9.957   8.287 -0.6994 -0.2946 -0.4731
 5159SOL     OW16054   2.701   1.328   3.275  0.0849  0.2640  0.4086
 5159SOL    HW116055   2.796   1.337   3.268 -0.0826  2.4528  0.2592
 5159SOL    HW216056   2.669   1.335   3.185 -0.3174  1.2443  0.6209
 5160SOL     OW16057   1.589   6.708   5.998  0.0476 -0.4719 -0.3869
 5160SOL    HW116058   1.535   6.650   5.945 -1.4396  0.0997  0.4305
 5160SOL    HW216059   1.545   6.710   6.083 -0.2193  2.1343 -0.5051
 5161SOL     OW16060   3.896   6.367   0.388 -0.0772 -0.0740 -0.0427
 5161SOL    HW116061   3.936   6.415   0.316  0.8767 -0.7973 -0.0294
 5161SOL    HW216062   3.950   6.388   0.464 -1.0027  0.5901  0.4452
 5162SOL     OW16063   5.603   3.605   2.308 -0.2505  0.2751  0.7628
 5162SOL    HW116064   5.629   3.668   2.374  1.7688  1.7582 -1.3013
 5162SOL    HW216065   5.672   3.538   2.310 -0.7117 -0.2055  0.8139
 5163SOL     OW16066   8.904   6.874   5.069 -0.2587  0.3599  0.4111
 5163SOL    HW116067   8.844   6.882   5.142  0.0145  2.8458  0.4361
 5163SOL    HW216068   8.987   6.845   5.109  0.4142  3.3908  1.4891
 5164SOL     OW16069   3.069   3.901   8.885 -0.0250 -0.2019 -0.1098
 5164SOL    HW116070   3.157   3.891   8.848  0.5284 -1.1776  1.3507
 5164SOL    HW216071   3.026   3.817   8.867  0.0232 -0.4359  0.7842
 5165SOL     OW16072   6.313   8.115   8.325 -0.2037  0.3998  0.4362
 5165SOL    HW116073   6.346   8.042   8.377 -0.6509  0.6401  1.0688
 5165SOL    HW216074   6.390   8.148   8.279  0.3806  0.7069  1.5889
 5166SOL     OW16075   7.208   4.518   1.835 -0.7140  0.4937  0.2951
 5166SOL    HW116076   7.151   4.486   1.765 -0.6736  0.4730  0.2718
 5166SOL    HW216077   7.197   4.455   1.906  0.3276 -0.2859 -0.2047
 5167SOL     OW16078   8.165   9.017   7.414  0.0198 -0.0647  0.3526
 5167SOL    HW116079   8.113   9.005   7.334 -0.2668 -1.2523  0.6952
 5167SOL    HW216080   8.241   8.960   7.402  0.7175  0.8484  0.3218
 5168SOL     OW16081   5.801   9.935   9.693 -0.1360 -0.7998 -0.0953
 5168SOL    HW116082   5.836   9.850   9.720 -1.0358 -0.8748  0.8878
 5168SOL    HW216083   5.765   9.973   9.773  0.1616  0.4703 -0.5418
 5169SOL     OW16084  10.008   8.500   9.821 -0.1170  0.5228  0.8442
 5169SOL    HW116085   9.965   8.418   9.799 -1.3206  0.9490  1.5047
 5169SOL    HW216086   9.957   8.568   9.777  1.5886  0.8687 -0.7279
 5170SOL     OW16087   2.320   4.509   9.936 -0.1735  0.2535  0.1754
 5170SOL    HW116088   2.331   4.595   9.975  0.8651  0.1920  0.0317
 5170SOL    HW216089   2.277   4.457  10.004 -0.4547  0.7705  0.4001
 5171SOL     OW16090   1.400   2.827   0.723 -0.5095  0.3295 -0.1644
 5171SOL    HW116091   1.383   2.854   0.813  0.5709  0.5440 -0.0192
 5171SOL    HW216092   1.427   2.735   0.730 -1.2741  0.0821 -0.3637
 5172SOL     OW16093   6.018   9.387   4.798  0.2927 -0.7678 -0.2762
 5172SOL    HW116094   6.025   9.300   4.760  0.2918 -0.9955  0.2287
 5172SOL    HW216095   6.047   9.376   4.889  2.6431  0.2408 -0.8481
 5173SOL     OW16096   8.741   7.379   2.435 -0.2988 -0.1717 -0.1125
 5173SOL    HW116097   8.794   7.408   2.361  0.3240  0.0476  0.4148
 5173SOL    HW216098   8.699   7.458   2.468  0.0881 -0.1312  0.2897
 5174SOL     OW16099   7.982   3.776   1.712 -0.5540  0.1937  0.0336
 5174SOL    HW116100   7.987   3.742   1.801  0.5596 -0.7083 -0.3450
 5174SOL    HW216101   7.900   3.825   1.709 -0.8297 -0.1485  1.4114
 5175SOL     OW16102   5.511   0.660   5.548 -0.6602  0.2111  0.1055
 5175SOL    HW116103   5.471   0.576   5.567 -2.5016  0.3689 -2.5120
 5175SOL    HW216104   5.476   0.685   5.462  3.0431  1.6791 -1.2055
 5176SOL     OW16105   0.051   9.943   9.697  0.5689  0.2217  0.3905
 5176SOL    HW116106   0.015   9.862   9.733  1.1971 -0.2862 -0.0899
 5176SOL    HW216107  -0.022   9.983   9.649  0.0634  0.3066  1.2238
 5177SOL     OW16108   8.526   5.748   3.705 -0.3248 -0.1781  0.3047
 5177SOL    HW116109   8.477   5.687   3.649  0.1880  0.2971 -0.6776
 5177SOL    HW216110   8.617   5.718   3.699 -0.5252 -1.4974  2.6890
 5178SOL     OW16111   7.386   9.945   7.285 -0.7070  0.7434  0.6312
 5178SOL    HW116112   7.316   9.908   7.232 -1.3636  1.4655  0.9694
 5178SOL    HW216113   7.456   9.879   7.282  0.0007  1.4775 -2.5129
 5179SOL     OW16114   8.601   0.949   3.043  0.0189  0.0394  0.1700
 5179SOL    HW116115   8.518   0.942   2.996  0.7939 -0.5125 -1.1848
 5179SOL    HW216116   8.582   1.008   3.116 -1.5525 -0.0643 -0.1132
 5180SOL     OW16117   7.046   6.002   7.861 -0.2786 -0.7173 -0.5428
 5180SOL    HW116118   7.012   6.029   7.946  0.4453  0.4779 -0.6128
 5180SOL    HW216119   6.984   6.040   7.798 -0.0418 -0.4242 -0.5975
 5181SOL     OW16120   5.197   0.799   5.099  0.2125  0.1018  0.4976
 5181SOL    HW116121   5.218   0.772   5.189  0.6235  1.5562  0.8666
 5181SOL    HW216122   5.246   0.880   5.087  0.9194 -0.5564 -1.3935
 5182SOL     OW16123   2.900   0.660   6.295  0.0061 -0.3821  0.1016
 5182SOL    HW116124   2.838   0.733   6.289 -0.5479 -0.8743 -0.2606
 5182SOL    HW216125   2.893   0.630   6.386 -0.0861 -0.2636  0.1341
 5183SOL     OW16126   9.327   7.810   9.328  0.5159  0.4233 -0.1441
 5183SOL    HW116127   9.307   7.831   9.237  1.0196  1.3037 -0.0646
 5183SOL    HW216128   9.403   7.864   9.348  1.5544 -1.1349  0.2467
 5184SOL     OW16129   4.729   0.108   5.591  0.1719 -0.2393  0.2110
 5184SOL    HW116130   4.714   0.062   5.509  1.3882 -0.5649  0.1515
 5184SOL    HW216131   4.689   0.053   5.658 -0.2290 -0.3154 -0.0911
 5185SOL     OW16132   3.190   7.540   0.950  0.0511  0.3263 -0.5939
 5185SOL    HW116133   3.125   7.511   0.886 -0.7612  1.4012 -0.2824
 5185SOL    HW216134   3.220   7.459   0.992 -0.1367 -0.2992 -1.6215
 5186SOL     OW16135   7.839   8.275   6.289 -0.1638 -0.4626 -0.0714
 5186SOL    HW116136   7.793   8.196   6.316 -0.9545 -0.1083 -0.3639
 5186SOL    HW216137   7.925   8.268   6.331 -0.2542 -1.4293 -0.0290
 5187SOL     OW16138   4.313   8.106   9.754  0.0071  0.5491 -0.1901
 5187SOL    HW116139   4.253   8.040   9.788  0.0462 -0.6688 -2.3010
 5187SOL    HW216140   4.282   8.188   9.790 -0.7075 -0.4813  1.6523
 5188SOL     OW16141   6.364   8.241   8.652 -0.3568  0.5130  0.6692
 5188SOL    HW116142   6.310   8.205   8.722 -1.0302  0.3618  0.0827
 5188SOL    HW216143   6.386   8.166   8.597 -0.8205  0.8033  0.0696
 5189SOL     OW16144   1.733   7.797   8.646  0.0148  0.3679 -0.1099
 5189SOL    HW116145   1.777   7.880   8.664 -1.0494  0.7273  0.9459
 5189SOL    HW216146   1.721   7.757   8.732 -0.5619 -0.3106 -0.4946
 5190SOL     OW16147   9.026   4.292   2.583  0.5646  0.5146 -0.7428
 5190SOL    HW116148   9.051   4.333   2.666  2.0899  3.2251 -2.3750
 5190SOL    HW216149   9.053   4.201   2.592 -0.7411  0.3128  2.2512
 5191SOL     OW16150   3.560   7.828   4.813  0.0104  0.4505 -0.5652
 5191SOL    HW116151   3.545   7.780   4.894  2.0470  1.1352  0.2729
 5191SOL    HW216152   3.533   7.767   4.744  0.9353 -1.2551  0.5094
 5192SOL     OW16153   4.755   5.896   7.934 -0.6394 -0.1982  0.6542
 5192SOL    HW116154   4.661   5.904   7.914 -0.3570  0.3796 -0.5568
 5192SOL    HW216155   4.787   5.986   7.933  0.5167 -0.5261 -2.1526
 5193SOL     OW16156   4.790   0.379   7.462  0.2582 -0.3919 -0.1393
 5193SOL    HW116157   4.746   0.353   7.382 -0.0465 -0.7577  0.1456
 5193SOL    HW216158   4.866   0.321   7.469  0.1812 -0.4844 -0.0672
 5194SOL     OW16159   9.092   7.402   6.812 -0.0841  0.5009  0.2825
 5194SOL    HW116160   9.173   7.452   6.811  0.1187  0.1849 -0.7986
 5194SOL    HW216161   9.023   7.468   6.809  0.1024  0.7857  1.6185
 5195SOL     OW16162   4.481   3.050   5.736 -0.3265  0.7413 -0.0299
 5195SOL    HW116163   4.550   3.053   5.802  0.5080  0.1981 -0.8438
 5195SOL    HW216164   4.422   3.122   5.759 -0.3704  0.2151  1.6176
 5196SOL     OW16165   8.085   9.322   5.328 -0.4986 -0.5457  0.5408
 5196SOL    HW116166   8.056   9.257   5.263 -0.6057 -0.7234  0.7652
 5196SOL    HW216167   8.012   9.384   5.331 -0.7563 -0.8589  0.9246
 5197SOL     OW16168   9.979   5.864   3.884 -0.0370  0.4015 -0.3972
 5197SOL    HW116169  10.024   5.948   3.880  2.5287 -0.8612 -0.4575
 5197SOL    HW216170   9.888   5.886   3.902  0.3499  3.2017 -1.3750
 5198SOL     OW16171   1.375   9.836   5.846 -0.3524 -0.0743 -0.2072
 5198SOL    HW116172   1.434   9.910   5.829  0.3147 -0.1417  1.6047
 5198SOL    HW216173   1.300   9.852   5.788 -0.6002  2.4836  0.6882
 5199SOL     OW16174   8.880   6.809   8.986 -0.7782 -0.0226 -0.2022
 5199SOL    HW116175   8.890   6.880   9.049  0.3691 -1.4763  1.3711
 5199SOL    HW216176   8.962   6.810   8.937  0.2027 -1.5023  1.2799
 5200SOL     OW16177   0.811   7.120   6.783  0.3969  0.1347  0.6884
 5200SOL    HW116178   0.811   7.108   6.878  0.1845  0.1584  0.6912
 5200SOL    HW216179   0.788   7.035   6.748  2.2625 -0.3831  0.5916
 5201SOL     OW16180   4.981   1.458   7.723  0.3009 -0.0759 -0.3092
 5201SOL    HW116181   4.998   1.549   7.749  0.8266  0.0372 -1.0150
 5201SOL    HW216182   4.913   1.428   7.783  3.5121 -0.8365  3.4188
 5202SOL     OW16183   5.724   4.960   4.644 -0.4002  0.6019 -0.4730
 5202SOL    HW116184   5.778   4.927   4.716 -1.1020 -3.1566 -1.4276
 5202SOL    HW216185   5.635   4.933   4.668 -1.0811  1.9355 -1.4033
 5203SOL     OW16186   8.133   1.687   8.505 -0.1160 -0.0350 -0.3834
 5203SOL    HW116187   8.152   1.682   8.411  0.5315 -1.1217 -0.2128
 5203SOL    HW216188   8.057   1.745   8.511  1.3804  2.1502 -1.3411
 5204SOL     OW16189   5.824   2.258   6.324 -0.0723 -0.0815 -0.3432
 5204SOL    HW116190   5.802   2.171   6.359 -2.6947  1.0110  1.0142
 5204SOL    HW216191   5.801   2.253   6.231 -2.4711 -0.2643  0.1800
 5205SOL     OW16192   8.917   7.702   0.420  0.5093  0.0378 -0.1603
 5205SOL    HW116193   8.940   7.787   0.458  0.3776 -0.3279  0.7756
 5205SOL    HW216194   8.827   7.686   0.450  0.1592  0.0278 -1.1772
 5206SOL     OW16195   9.745   8.134   2.695 -0.0736  0.0475  0.4428
 5206SOL    HW116196   9.702   8.073   2.755  2.7942  0.2663  2.9248
 5206SOL    HW216197   9.830   8.095   2.677  0.7852  2.0238 -0.0813
 5207SOL     OW16198   3.590   2.563   8.944 -0.3068  0.1410  0.1785
 5207SOL    HW116199   3.641   2.565   8.863 -1.9643  0.7098 -0.8940
 5207SOL    HW216200   3.624   2.487   8.991  1.8372  0.7654 -0.2435
 5208SOL     OW16201   8.772   4.736   3.177 -0.0057  0.1976 -0.0980
 5208SOL    HW116202   8.797   4.648   3.147  0.8037  0.6666 -0.8636
 5208SOL    HW216203   8.686   4.752   3.137 -0.4255 -0.4678  0.5248
 5209SOL     OW16204   0.340   6.354   1.212  0.0604 -0.2468 -0.0727
 5209SOL    HW116205   0.395   6.431   1.222  0.2372 -0.5499  1.5169
 5209SOL    HW216206   0.295   6.345   1.296 -1.4260 -0.7743 -0.8831
 5210SOL     OW16207   6.337   3.794   4.012 -0.2903 -0.0387 -0.6204
 5210SOL    HW116208   6.247   3.794   3.981 -0.4465 -0.4235 -0.1874
 5210SOL    HW216209   6.331   3.769   4.104  0.1666  0.9667 -0.2939
 5211SOL     OW16210   8.569   0.264   9.162 -0.2127 -0.3195 -0.3067
 5211SOL    HW116211   8.562   0.176   9.126 -1.0053 -0.1598 -0.5811
 5211SOL    HW216212   8.481   0.301   9.150 -0.2275  0.0830  0.9146
 5212SOL     OW16213   4.802   8.363   5.989  0.0366  0.0342  0.1333
 5212SOL    HW116214   4.790   8.269   5.980  0.0801  0.1711 -1.5452
 5212SOL    HW216215   4.730   8.392   6.045 -0.5993 -0.8274 -0.2392
 5213SOL     OW16216   1.013   0.241   8.988  0.0251  0.0846  0.2526
 5213SOL    HW116217   1.099   0.272   8.962  0.4612  1.3175  2.8584
 5213SOL    HW216218   1.007   0.153   8.950  3.0295 -0.6142  1.1042
 5214SOL     OW16219   3.650   2.422   2.922  0.1774  0.5472  0.3188
 5214SOL    HW116220   3.718   2.467   2.973  0.6088  0.4330 -0.1414
 5214SOL    HW216221   3.695   2.396   2.841 -0.4854  0.6877 -0.0974
 5215SOL     OW16222   8.431   3.827   8.382 -0.2266 -0.1149 -0.3168
 5215SOL    HW116223   8.423   3.922   8.388  1.1738  0.2164 -2.5592
 5215SOL    HW216224   8.440   3.798   8.473 -0.0695  1.9618  0.3857
 5216SOL     OW16225   4.709   2.430   5.557  0.0049  0.3539 -0.1843
 5216SOL    HW116226   4.768   2.485   5.506  0.3051 -0.6461 -0.9441
 5216SOL    HW216227   4.701   2.349   5.507  1.2509 -1.1627  1.8820
 5217SOL     OW16228   9.122   3.086   6.722 -0.0314 -0.5105  0.0272
 5217SOL    HW116229   9.207   3.055   6.753  0.5893 -1.2729 -2.1881
 5217SOL    HW216230   9.102   3.029   6.647 -1.9209  0.4294 -0.2341
 5218SOL     OW16231   7.079   1.207   2.669 -0.0537  0.3429  0.0806
 5218SOL    HW116232   7.074   1.220   2.575 -0.7965  0.6431  0.1554
 5218SOL    HW216233   6.989   1.186   2.695 -0.3160  2.4075  1.0225
 5219SOL     OW16234   0.322   9.355   4.072 -0.4760 -0.7372 -0.0481
 5219SOL    HW116235   0.315   9.338   4.166  0.1852  1.9570  0.5800
 5219SOL    HW216236   0.309   9.450   4.064 -1.8284 -1.0690 -2.8491
 5220SOL     OW16237   8.614   3.184   9.785  0.1222 -0.5043  0.0663
 5220SOL    HW116238   8.587   3.205   9.695  1.6352 -0.5311 -0.4217
 5220SOL    HW216239   8.602   3.265   9.833  1.1225  0.0804 -0.6274
 5221SOL     OW16240   4.427   1.024   3.204  0.0741 -0.4784  0.4136
 5221SOL    HW116241   4.478   1.017   3.123 -0.4034 -0.6774  0.1199
 5221SOL    HW216242   4.349   0.970   3.187 -1.2194  1.4084  0.0615
 5222SOL     OW16243   9.411   6.946   8.986 -0.7337 -0.5460 -0.0897
 5222SOL    HW116244   9.421   7.000   8.907 -0.0420 -0.3749  0.1081
 5222SOL    HW216245   9.368   7.004   9.049  1.1190  0.1974  0.5301
 5223SOL     OW16246   9.471   2.659   3.047  0.0524 -0.3780 -0.2395
 5223SOL    HW116247   9.411   2.601   3.095 -0.9907  0.9536  0.1058
 5223SOL    HW216248   9.416   2.703   2.982  0.3793  1.7765  0.8718
 5224SOL     OW16249   1.326   2.448   3.262  0.1134  0.2120 -0.6452
 5224SOL    HW116250   1.403   2.406   3.300 -0.4667  0.2622  0.6423
 5224SOL    HW216251   1.268   2.375   3.239 -0.1730  0.2234  0.0069
 5225SOL     OW16252   8.913   4.554   2.641  0.3593  0.1945 -0.2106
 5225SOL    HW116253   8.931   4.460   2.637  1.0649  0.3516 -0.9463
 5225SOL    HW216254   8.848   4.569   2.572  0.9101  0.3756 -0.7063
 5226SOL     OW16255   2.767   5.070   6.388 -0.2911 -0.2875 -0.3973
 5226SOL    HW116256   2.824   5.135   6.429 -1.0574 -0.7610  1.5458
 5226SOL    HW216257   2.824   4.997   6.368 -0.1755 -0.8432  1.7159
 5227SOL     OW16258   8.667   3.037   9.448 -0.2145 -0.4419 -0.3760
 5227SOL    HW116259   8.609   3.110   9.467  0.2905 -0.5775  1.9488
 5227SOL    HW216260   8.666   2.983   9.527  2.2939 -0.9791 -0.6067
 5228SOL     OW16261   2.977   0.256   2.376 -0.1788  0.3972 -0.4944
 5228SOL    HW116262   2.991   0.349   2.397  0.9109  0.1479 -0.0224
 5228SOL    HW216263   2.885   0.240   2.396  0.1943  0.7952  1.8548
 5229SOL     OW16264   4.212   4.002   2.220  0.5564 -0.7675  0.5156
 5229SOL    HW116265   4.141   3.983   2.282  1.6419  1.4953  2.6302
 5229SOL    HW216266   4.289   4.014   2.275  2.0928 -0.8461 -1.5268
 5230SOL     OW16267   5.135   8.742   6.377  0.3860 -0.3716 -0.0983
 5230SOL    HW116268   5.196   8.815   6.379 -0.9361  0.8451 -1.4022
 5230SOL    HW216269   5.190   8.664   6.370  1.7961  0.5794  0.0874
 5231SOL     OW16270   4.508   9.402   5.524 -0.3567  0.2946 -0.1709
 5231SOL    HW116271   4.499   9.489   5.486  0.1478  0.1118 -0.7244
 5231SOL    HW216272   4.431   9.354   5.494 -2.1340  1.3329  2.3978
 5232SOL     OW16273   8.938   9.879   2.057  0.0104 -0.2039 -0.1930
 5232SOL    HW116274   8.930   9.787   2.032  1.3294 -0.2564 -0.4840
 5232SOL    HW216275   9.031   9.892   2.074 -0.0233  1.2738 -0.9241
 5233SOL     OW16276   8.592   0.865   3.779  0.7566  0.1069  0.1470
 5233SOL    HW116277   8.538   0.907   3.845 -0.5566  0.4711 -1.1132
 5233SOL    HW216278   8.679   0.903   3.791 -0.0100  1.9378  0.1313
 5234SOL     OW16279   9.746   9.165   6.682  0.4681 -0.2601 -0.6521
 5234SOL    HW116280   9.663   9.182   6.727  0.6405  0.0072 -0.4330
 5234SOL    HW216281   9.720   9.127   6.598  0.1359 -0.5199 -0.4362
 5235SOL     OW16282   8.096   9.158   7.648  0.3136 -0.3096  0.4671
 5235SOL    HW116283   8.125   9.086   7.593  2.2486 -0.1650  1.2115
 5235SOL    HW216284   8.003   9.168   7.628  0.8479 -0.4372 -2.5416
 5236SOL     OW16285   9.523   8.582   0.276 -0.3427  0.1360  0.2349
 5236SOL    HW116286   9.509   8.491   0.304 -0.8425  0.8805  2.5601
 5236SOL    HW216287   9.463   8.633   0.329 -1.3947  1.7266 -2.2948
 5237SOL     OW16288   9.930   1.628   0.640 -0.1274  0.0858  0.0055
 5237SOL    HW116289   9.982   1.691   0.590 -0.4554 -0.9065 -1.6799
 5237SOL    HW216290   9.970   1.543   0.622 -0.6433 -0.3754  0.9536
 5238SOL     OW16291   3.627   9.276   6.198  0.2720  0.1712 -0.1889
 5238SOL    HW116292   3.702   9.243   6.149  1.0777  0.9696  0.4706
 5238SOL    HW216293   3.559   9.210   6.185  0.9611 -0.3832 -1.1075
 5239SOL     OW16294   6.298   6.932   8.124 -0.2278  0.0293  0.3311
 5239SOL    HW116295   6.351   7.012   8.126  0.0612 -0.0715 -1.6320
 5239SOL    HW216296   6.329   6.881   8.199  1.2254  0.7405  0.2438
 5240SOL     OW16297   8.637   9.925   1.880 -0.4081 -0.6037 -0.2210
 5240SOL    HW116298   8.690   9.938   1.958 -1.0412 -0.5265  0.2114
 5240SOL    HW216299   8.640  10.009   1.834 -1.9099  0.1457  0.9332
 5241SOL     OW16300   3.856   3.907   4.581 -0.1391  0.1094 -0.2084
 5241SOL    HW116301   3.761   3.913   4.588 -0.1467 -0.9089  0.7263
 5241SOL    HW216302   3.884   3.996   4.560 -0.9827  1.2964  3.1616
 5242SOL     OW16303   4.624   5.669   4.059  0.5555 -0.5438  0.1648
 5242SOL    HW116304   4.604   5.724   3.984 -0.5594  0.5618  1.2225
 5242SOL    HW216305   4.542   5.624   4.079  0.2136  0.7593  1.9437
 5243SOL     OW16306   6.745   0.401   8.518 -0.2371  0.4813  0.6594
 5243SOL    HW116307   6.754   0.369   8.428 -1.4049  0.1868  0.6414
 5243SOL    HW216308   6.836   0.409   8.549  0.1768  0.4578 -0.4885
 5244SOL     OW16309   6.893   6.891   7.686  0.0988  0.0948 -0.1703
 5244SOL    HW116310   6.841   6.844   7.621 -0.6269  0.0707  0.4161
 5244SOL    HW216311   6.859   6.980   7.684 -0.0170  0.0619  0.2658
 5245SOL     OW16312   4.440   9.079   1.949 -0.4038  0.0742 -0.7943
 5245SOL    HW116313   4.392   9.007   1.989  1.5473 -1.3110 -0.8248
 5245SOL    HW216314   4.455   9.141   2.020 -0.0391 -0.6994 -0.1811
 5246SOL     OW16315   2.417   8.763   8.834  0.1268 -0.1924 -0.4748
 5246SOL    HW116316   2.500   8.780   8.879  0.9816 -1.9494 -1.2555
 5246SOL    HW216317   2.440   8.764   8.741 -1.1146  0.9994 -0.7988
 5247SOL     OW16318   3.386   1.564   7.512  0.2335  0.2254  0.2315
 5247SOL    HW116319   3.370   1.598   7.424 -0.4161 -0.4032  0.1025
 5247SOL    HW216320   3.301   1.570   7.556  0.1558 -1.0176  0.2815
 5248SOL     OW16321   8.841   0.384   8.367 -0.2359  0.2003 -0.1969
 5248SOL    HW116322   8.838   0.476   8.340 -0.1259  1.0539  2.4146
 5248SOL    HW216323   8.782   0.379   8.442  1.0388 -1.4571  0.7699
 5249SOL     OW16324   2.199   9.184   0.356 -0.1601  0.0411  0.2955
 5249SOL    HW116325   2.163   9.156   0.272  1.1985  2.1379 -1.0681
 5249SOL    HW216326   2.193   9.106   0.412 -2.4069 -0.9998 -1.2603
 5250SOL     OW16327   9.367   9.703   6.796  0.0541 -0.0355  0.0267
 5250SOL    HW116328   9.341   9.618   6.830 -0.5687  0.1119 -0.0775
 5250SOL    HW216329   9.286   9.753   6.791  0.1616  0.0344 -1.4187
 5251SOL     OW16330   0.552   2.211   5.308  0.0879 -0.2766 -0.1891
 5251SOL    HW116331   0.488   2.162   5.360 -0.6782 -0.0491 -0.8954
 5251SOL    HW216332   0.529   2.303   5.323  0.4515 -0.1804 -0.2050
 5252SOL     OW16333   4.259   9.738   0.441  0.3624 -0.0069  0.1864
 5252SOL    HW116334   4.240   9.666   0.380 -0.1661  0.1301  0.1805
 5252SOL    HW216335   4.203   9.809   0.411 -0.2701 -0.0951  1.1241
 5253SOL     OW16336   4.290   1.941   7.379  0.6272 -0.4236 -0.4767
 5253SOL    HW116337   4.246   1.970   7.458  3.2092  1.1567  0.5196
 5253SOL    HW216338   4.269   2.008   7.314 -1.8485 -1.9450 -1.3749
 5254SOL     OW16339   4.416   7.617   5.614  0.2154 -0.0314  0.1090
 5254SOL    HW116340   4.372   7.697   5.584 -0.0290  0.3784  1.4889
 5254SOL    HW216341   4.380   7.547   5.560  1.5012  0.9432 -2.1548
 5255SOL     OW16342   1.542   8.454   5.375 -0.1792 -0.2345  0.5515
 5255SOL    HW116343   1.576   8.462   5.286 -0.4286 -0.1385  0.4641
 5255SOL    HW216344   1.615   8.479   5.431 -0.1001 -0.0494  0.3661
 5256SOL     OW16345   1.787   2.925   3.258 -0.4784 -0.5215 -0.5996
 5256SOL    HW116346   1.777   3.017   3.280  0.6952 -0.4625 -0.2424
 5256SOL    HW216347   1.774   2.921   3.163 -2.0378 -0.2385 -0.4269
 5257SOL     OW16348   2.010   2.472   8.461 -0.0685 -0.4363 -0.3932
 5257SOL    HW116349   2.082   2.521   8.421  1.5486 -2.4980 -0.1830
 5257SOL    HW216350   1.966   2.535   8.518  1.5152  0.9220 -0.6160
 5258SOL     OW16351   9.695   4.167   1.896 -0.0964 -0.0602 -0.1511
 5258SOL    HW116352   9.759   4.213   1.951  0.0200 -1.0985  0.6170
 5258SOL    HW216353   9.658   4.235   1.841  0.5862  0.8280  0.4463
 5259SOL     OW16354   2.856   4.586   2.061  0.4861  0.0589  0.4796
 5259SOL    HW116355   2.837   4.634   2.141  0.3686 -1.0989  1.1780
 5259SOL    HW216356   2.771   4.566   2.023  0.5536  0.9308 -0.1419
 5260SOL     OW16357   4.471   1.431   1.448  0.7969 -0.0967 -0.1889
 5260SOL    HW116358   4.422   1.349   1.453  0.3863  0.1740  0.4727
 5260SOL    HW216359   4.563   1.405   1.444  0.6082 -0.6168 -1.6848
 5261SOL     OW16360   9.387   0.252   1.523  0.4221  0.1990  0.5158
 5261SOL    HW116361   9.458   0.307   1.491 -1.0254  0.3648 -2.7809
 5261SOL    HW216362   9.320   0.257   1.455 -1.4307 -2.5064  1.9551
 5262SOL     OW16363   9.266   2.050   2.210 -0.4157  0.3364 -0.3364
 5262SOL    HW116364   9.310   1.965   2.202 -0.8635  0.0634  0.0301
 5262SOL    HW216365   9.177   2.028   2.239 -0.5588  0.9264 -0.3190
 5263SOL     OW16366   6.883   0.621   6.155 -0.2576 -0.0619 -0.0026
 5263SOL    HW116367   6.869   0.697   6.212 -0.9348  0.2895 -0.6201
 5263SOL    HW216368   6.847   0.648   6.071  0.8074 -0.5411 -0.6370
 5264SOL     OW16369   7.774   3.455   1.033 -0.4967  0.0239 -0.4539
 5264SOL    HW116370   7.858   3.454   0.986  1.1780 -2.4927  2.2659
 5264SOL    HW216371   7.730   3.375   1.005 -0.7506 -0.0630  0.1953
 5265SOL     OW16372   7.251   6.903   3.484 -0.0925  0.5027 -0.4967
 5265SOL    HW116373   7.270   6.818   3.524 -2.3022 -0.7592 -1.9284
 5265SOL    HW216374   7.296   6.900   3.399 -0.9794  0.3239 -0.9689
 5266SOL     OW16375   2.372   6.227   9.418  0.7439 -0.6373 -0.0527
 5266SOL    HW116376   2.301   6.285   9.392  0.6939 -0.7041 -0.0648
 5266SOL    HW216377   2.330   6.158   9.470  0.9398 -0.0908  0.8636
 5267SOL     OW16378   8.340   9.249   8.281 -0.2428 -0.2444 -0.2973
 5267SOL    HW116379   8.343   9.344   8.267 -0.2077 -0.3128 -0.7738
 5267SOL    HW216380   8.393   9.213   8.210  0.3045 -0.5861  0.2729
 5268SOL     OW16381   1.459   8.994   9.377 -0.4752 -0.2945 -0.3889
 5268SOL    HW116382   1.474   9.058   9.307  0.6533 -0.0078  0.0987
 5268SOL    HW216383   1.484   9.039   9.457 -1.4263 -0.7436  0.1732
 5269SOL     OW16384   7.870   7.738   4.324  0.3490 -0.0752 -0.7171
 5269SOL    HW116385   7.856   7.697   4.409 -1.9697  1.3851 -0.3022
 5269SOL    HW216386   7.946   7.795   4.337  0.5623 -0.5417  0.1240
 5270SOL     OW16387   8.063   6.810   3.162  0.2545  0.6513  0.3649
 5270SOL    HW116388   8.021   6.786   3.079 -0.6545  1.1012  0.6874
 5270SOL    HW216389   8.012   6.765   3.229  1.9484 -1.0110  0.6120
 5271SOL     OW16390   5.678   3.073   7.579 -0.5012 -0.1322 -0.1637
 5271SOL    HW116391   5.767   3.057   7.545 -1.0671 -1.2195 -1.2101
 5271SOL    HW216392   5.632   3.113   7.506 -0.5386  1.6656  0.8066
 5272SOL     OW16393   4.981   4.865   6.707  0.2278 -0.2223 -0.3369
 5272SOL    HW116394   4.984   4.769   6.711  0.4339 -0.1836  1.3489
 5272SOL    HW216395   5.072   4.892   6.709  0.1828  0.0232 -1.1396
 5273SOL     OW16396   4.965   1.933   2.433  0.2863  0.6297  0.1290
 5273SOL    HW116397   5.057   1.950   2.453  0.7960 -2.1765  0.5533
 5273SOL    HW216398   4.965   1.851   2.384 -1.8783  1.5927 -1.7109
 5274SOL     OW16399   7.813   1.289   0.609  0.1484 -0.3247 -0.4396
 5274SOL    HW116400   7.763   1.214   0.642 -0.2960  0.2359  0.1991
 5274SOL    HW216401   7.880   1.304   0.676 -0.2274  0.2970 -0.1939
 5275SOL     OW16402   2.363   3.977   8.333  0.1541 -0.2202 -0.5612
 5275SOL    HW116403   2.454   3.970   8.360  0.7609  0.9957 -2.1628
 5275SOL    HW216404   2.339   4.068   8.348 -1.2364 -0.7854  1.0135
 5276SOL     OW16405   6.301   3.312   6.141  0.2090  0.1522 -0.7567
 5276SOL    HW116406   6.243   3.382   6.110  0.4499  0.2158 -1.0779
 5276SOL    HW216407   6.344   3.349   6.218  0.4226  0.4071 -0.9943
 5277SOL     OW16408   3.273   3.060   2.609 -0.2207 -0.0242  0.2674
 5277SOL    HW116409   3.208   2.997   2.641 -0.0211 -0.7802 -0.7747
 5277SOL    HW216410   3.345   3.006   2.578  0.1911  0.7483 -0.1407
 5278SOL     OW16411   7.964   1.232   0.378 -0.5255 -0.5548  0.4148
 5278SOL    HW116412   7.896   1.211   0.442 -1.4675 -1.6648 -0.8991
 5278SOL    HW216413   7.928   1.306   0.329 -0.2102 -0.3042  0.5589
 5279SOL     OW16414   3.745   0.384   7.649  0.4472  0.1577 -0.4984
 5279SOL    HW116415   3.826   0.395   7.599  1.6683 -0.7767  1.1749
 5279SOL    HW216416   3.679   0.366   7.583  1.7837 -0.0070 -1.8507
 5280SOL     OW16417   6.671   8.887   5.344  0.4689  0.1374 -0.0993
 5280SOL    HW116418   6.674   8.808   5.290  0.1554  0.4002 -0.5074
 5280SOL    HW216419   6.730   8.868   5.417  1.9642  0.2781 -1.2199
 5281SOL     OW16420   0.060   8.002   7.337 -0.4376  0.1033 -0.3375
 5281SOL    HW116421   0.068   8.080   7.391 -0.8772 -0.2247  0.2139
 5281SOL    HW216422   0.027   8.033   7.253 -0.3772  0.5375 -0.2005
 5282SOL     OW16423   0.897   7.280   9.520  0.7913  0.5105 -0.1062
 5282SOL    HW116424   0.817   7.249   9.478  0.9822  0.2909 -0.3073
 5282SOL    HW216425   0.967   7.248   9.465  1.1941 -1.8563  1.6127
 5283SOL     OW16426   8.597   3.446   7.352 -0.4430  0.2008 -0.5337
 5283SOL    HW116427   8.658   3.448   7.426 -0.8970 -1.9068 -0.0331
 5283SOL    HW216428   8.551   3.530   7.356  2.3141  1.8191 -0.8855
 5284SOL     OW16429   7.208   5.200   3.732 -0.2985 -0.0912  0.1615
 5284SOL    HW116430   7.119   5.232   3.718 -0.1380 -0.2306 -1.3432
 5284SOL    HW216431   7.264   5.277   3.717 -0.0562 -0.4889 -1.1714
 5285SOL     OW16432   3.275   9.645   0.106 -0.3487  0.1351  0.4224
 5285SOL    HW116433   3.252   9.718   0.164  1.7133  0.6695  0.6779
 5285SOL    HW216434   3.200   9.635   0.048 -0.6656  2.5733  0.2985
 5286SOL     OW16435   3.158   5.834   3.425  0.7867  0.1187 -0.1240
 5286SOL    HW116436   3.168   5.757   3.369  1.2020 -0.1477  0.3135
 5286SOL    HW216437   3.111   5.897   3.370  0.9305 -0.2447 -0.6756
 5287SOL     OW16438   4.949   9.620   9.471 -0.0922  0.6650 -0.1975
 5287SOL    HW116439   5.004   9.693   9.502  0.8320  0.2221 -0.7641
 5287SOL    HW216440   4.968   9.613   9.378 -0.6443  0.0801 -0.2727
 5288SOL     OW16441   1.387   7.746   2.624 -0.0747  0.3786 -0.2253
 5288SOL    HW116442   1.318   7.679   2.617  0.3560  0.1194 -2.7833
 5288SOL    HW216443   1.344   7.819   2.669 -1.1482 -0.8077  0.7972
 5289SOL     OW16444   7.190   9.801   6.138 -0.0145 -0.0922 -0.2590
 5289SOL    HW116445   7.179   9.805   6.233  0.7356  2.0046 -0.1872
 5289SOL    HW216446   7.160   9.714   6.113  0.7101 -1.0737  2.0194
 5290SOL     OW16447   6.060   4.072   1.991  0.2612  0.3259  0.4867
 5290SOL    HW116448   6.144   4.117   1.996  0.5975 -0.2202 -0.0088
 5290SOL    HW216449   5.995   4.138   2.015  0.7206  1.1355 -0.4083
 5291SOL     OW16450   4.614   4.326   9.767  0.1572  0.5918 -0.3514
 5291SOL    HW116451   4.547   4.257   9.774  0.7037  0.1579  0.9434
 5291SOL    HW216452   4.697   4.279   9.777  0.5266  1.4436  0.7619
 5292SOL     OW16453   6.790   1.151   3.357 -0.3306 -0.4555  0.5508
 5292SOL    HW116454   6.783   1.233   3.406 -1.1053 -0.7284  0.9040
 5292SOL    HW216455   6.847   1.096   3.410 -1.0850 -0.7136  1.1187
 5293SOL     OW16456   6.115   5.421   6.289 -0.1861  0.0109 -0.1516
 5293SOL    HW116457   6.021   5.420   6.270 -0.3191  4.2860 -0.6048
 5293SOL    HW216458   6.155   5.375   6.216 -1.8154 -0.9838 -0.4768
 5294SOL     OW16459   6.723   9.105   2.954 -0.3691  0.6235  0.4077
 5294SOL    HW116460   6.719   9.201   2.953 -1.7920  0.6016 -1.1522
 5294SOL    HW216461   6.633   9.077   2.941  0.0285 -0.9447  0.8336
 5295SOL     OW16462   0.914   4.385   7.347  0.0224 -0.2431 -0.2828
 5295SOL    HW116463   0.920   4.320   7.417 -0.4896 -0.6826 -0.6461
 5295SOL    HW216464   0.926   4.335   7.266 -0.6750  0.0679 -0.5840
 5296SOL     OW16465   9.555   7.723   7.113 -0.1134  0.0877 -0.5065
 5296SOL    HW116466   9.477   7.708   7.060 -0.2541 -0.8509 -0.0533
 5296SOL    HW216467   9.594   7.803   7.076 -1.2698  0.5605 -0.7410
 5297SOL     OW16468   9.136   5.650   6.606 -0.8611  0.4385  0.6733
 5297SOL    HW116469   9.102   5.708   6.673 -0.9072  1.5301 -0.2595
 5297SOL    HW216470   9.178   5.709   6.543  1.8499 -0.7429  1.2282
 5298SOL     OW16471   9.849   8.835   7.024 -0.3202  0.3882 -0.3289
 5298SOL    HW116472   9.799   8.823   7.104  1.3631  1.5509  0.9935
 5298SOL    HW216473   9.918   8.769   7.028 -0.0410  0.6524 -0.6502
 5299SOL     OW16474   2.561   2.468   5.469  0.6076  0.5465 -1.3113
 5299SOL    HW116475   2.620   2.540   5.491  0.8310  0.5232 -1.8240
 5299SOL    HW216476   2.483   2.511   5.433  0.7815  0.5352 -1.7120
 5300SOL     OW16477   6.051   2.284   5.164  0.4047  0.0345 -0.6051
 5300SOL    HW116478   6.050   2.291   5.260  1.3674 -0.4202 -0.5567
 5300SOL    HW216479   5.960   2.296   5.139  0.2251  0.7917  0.3255
 5301SOL     OW16480   6.487   8.973   0.682  0.3610 -0.5023 -0.6623
 5301SOL    HW116481   6.397   8.952   0.656 -0.9512  0.7009  2.3834
 5301SOL    HW216482   6.524   8.889   0.709 -0.6973 -0.7283  0.1907
 5302SOL     OW16483   0.828   5.406   6.096 -0.4292  0.1793 -0.0356
 5302SOL    HW116484   0.796   5.444   6.178 -0.1489  2.4080 -0.9006
 5302SOL    HW216485   0.798   5.466   6.028  0.1965 -1.0917 -1.4979
 5303SOL     OW16486   8.869   8.330   6.954  0.1409  0.3942  0.2635
 5303SOL    HW116487   8.835   8.375   6.877  1.6989  1.7044  0.2803
 5303SOL    HW216488   8.944   8.383   6.982  1.7274 -1.9016  0.6635
 5304SOL     OW16489   7.627   9.625   1.864 -0.2226  0.1110 -0.3346
 5304SOL    HW116490   7.706   9.577   1.840 -0.0342 -0.0368  0.5397
 5304SOL    HW216491   7.569   9.616   1.788 -0.1711 -1.4396 -0.2228
 5305SOL     OW16492   2.341   6.315   8.944 -0.0423  0.0689 -0.4416
 5305SOL    HW116493   2.403   6.351   9.008 -0.4153  0.2728 -0.1933
 5305SOL    HW216494   2.391   6.247   8.899  0.4836  0.4885 -0.5075
 5306SOL     OW16495   3.493   6.847   6.909 -0.3019 -0.2765 -0.0302
 5306SOL    HW116496   3.434   6.921   6.892  0.5208  0.4435  0.1488
 5306SOL    HW216497   3.487   6.834   7.004  0.2964  0.2280  0.0882
 5307SOL     OW16498   8.266   8.451   5.457  0.0110 -0.0681 -0.2196
 5307SOL    HW116499   8.314   8.523   5.417 -1.2905  2.0874  1.8883
 5307SOL    HW216500   8.290   8.454   5.549 -3.3652  0.5142  0.7474
 5308SOL     OW16501   8.056   3.923   4.162 -0.2139 -0.0602 -0.5218
 5308SOL    HW116502   8.087   3.909   4.073  0.4531  2.0892 -0.6955
 5308SOL    HW216503   7.961   3.931   4.154 -0.2330 -0.6434 -0.9162
 5309SOL     OW16504   2.361   1.722   9.537  0.1924 -0.2634  0.1138
 5309SOL    HW116505   2.448   1.684   9.518 -0.6056 -1.2141 -2.0235
 5309SOL    HW216506   2.361   1.805   9.488  0.3325  0.3672  1.1628
 5310SOL     OW16507   6.083   4.809   0.708 -0.0177 -0.7565  0.2646
 5310SOL    HW116508   6.078   4.836   0.616  0.6230  0.2900  0.5176
 5310SOL    HW216509   5.993   4.813   0.739  0.1125  2.8481  0.7087
 5311SOL     OW16510   5.816   9.685   6.430 -0.4496 -0.0545  0.3647
 5311SOL    HW116511   5.722   9.671   6.427 -0.3266 -0.8222 -0.0691
 5311SOL    HW216512   5.834   9.713   6.520 -0.9146 -1.1750  0.8136
 5312SOL     OW16513   6.976   6.586   9.275 -0.2210  0.1961 -0.3544
 5312SOL    HW116514   6.913   6.572   9.345 -1.3018  0.0447 -1.3372
 5312SOL    HW216515   7.060   6.558   9.312 -0.3379  2.1560  1.6300
 5313SOL     OW16516   6.971   0.354   8.835  0.2936  0.1247  0.0564
 5313SOL    HW116517   7.034   0.425   8.846  0.2072  0.2358 -0.1695
 5313SOL    HW216518   6.887   0.398   8.823  0.5861  0.1075 -2.7664
 5314SOL     OW16519   7.579   4.751   9.128  0.2714  0.8834  0.4396
 5314SOL    HW116520   7.607   4.690   9.060 -0.3133  0.6395  0.4177
 5314SOL    HW216521   7.568   4.697   9.206 -1.1789  0.7846  0.1872
 5315SOL     OW16522   2.509   4.566   2.645 -0.1324  0.2170 -0.1256
 5315SOL    HW116523   2.598   4.600   2.654  0.6922 -2.0152  0.9809
 5315SOL    HW216524   2.463   4.601   2.721  0.8813 -1.5088  1.3620
 5316SOL     OW16525   3.153   4.839   1.215  0.0254  0.0471  0.1124
 5316SOL    HW116526   3.157   4.863   1.307  2.1092 -0.8231  0.3073
 5316SOL    HW216527   3.244   4.819   1.191 -0.6965 -1.4484 -1.6670
 5317SOL     OW16528   8.726   5.679   2.156 -0.3499 -0.0812 -0.0807
 5317SOL    HW116529   8.679   5.600   2.181 -0.0893  0.1763  1.3177
 5317SOL    HW216530   8.793   5.649   2.095 -1.3893 -0.6632 -0.9582
 5318SOL     OW16531   1.431   5.518   9.034  0.2648 -0.3559 -0.0569
 5318SOL    HW116532   1.514   5.553   9.066 -0.4073  0.3617  0.9567
 5318SOL    HW216533   1.413   5.567   8.953  1.0280 -0.8297 -0.5252
 5319SOL     OW16534   5.638   1.750   0.563 -0.2482  0.0247  0.2913
 5319SOL    HW116535   5.600   1.836   0.548 -0.6314  0.5773  3.6538
 5319SOL    HW216536   5.591   1.716   0.640  2.1273 -1.7515  1.0868
 5320SOL     OW16537   7.501   6.773   9.081 -0.6377  0.0823  0.5583
 5320SOL    HW116538   7.424   6.749   9.132 -1.6970  0.6627 -0.7107
 5320SOL    HW216539   7.468   6.832   9.014  0.9570  0.5012  0.0903
 5321SOL     OW16540   5.382   1.573   1.048 -0.0661 -0.0695  0.0331
 5321SOL    HW116541   5.302   1.626   1.045 -0.9837 -1.4336 -0.7113
 5321SOL    HW216542   5.354   1.486   1.022  1.0795 -1.3730  2.7578
 5322SOL     OW16543   0.712   0.572   1.548  0.0928 -0.1109 -0.0964
 5322SOL    HW116544   0.679   0.482   1.550  0.8366 -0.4179 -0.9966
 5322SOL    HW216545   0.799   0.565   1.508  0.8400  0.8096  1.3114
 5323SOL     OW16546   3.047   6.853   1.375  0.5140  0.0583 -0.4927
 5323SOL    HW116547   3.087   6.832   1.290  0.6178 -0.5445 -0.2984
 5323SOL    HW216548   3.048   6.948   1.379 -2.3837  0.3091 -2.5958
 5324SOL     OW16549   9.138   3.202   4.075  0.0079 -0.8151 -0.4224
 5324SOL    HW116550   9.186   3.283   4.056 -0.1319 -0.7239 -0.3952
 5324SOL    HW216551   9.056   3.233   4.114  0.7179 -1.0274  1.3002
 5325SOL     OW16552   4.828   2.827   4.161 -0.3942 -0.1438  0.4359
 5325SOL    HW116553   4.830   2.787   4.074 -1.1347 -1.4466  0.9778
 5325SOL    HW216554   4.920   2.842   4.183 -0.2318  2.1798 -1.3866
 5326SOL     OW16555   9.814   1.911   4.685 -0.4619 -0.3041 -0.1851
 5326SOL    HW116556   9.899   1.875   4.659  0.1565  0.8475  0.1709
 5326SOL    HW216557   9.826   2.006   4.680 -2.4423 -0.0623 -2.4594
 5327SOL     OW16558   2.047   8.365   6.932  0.5212 -0.2741 -0.0903
 5327SOL    HW116559   2.064   8.274   6.955  2.0258 -0.0219 -0.1187
 5327SOL    HW216560   2.113   8.386   6.865 -0.4722  0.5296 -0.8592
 5328SOL     OW16561   3.196   3.574   8.507  0.5397  0.0010  0.3012
 5328SOL    HW116562   3.132   3.645   8.510  0.6079  0.0618  0.3327
 5328SOL    HW216563   3.171   3.516   8.580 -0.3480 -0.7350 -0.5602
 5329SOL     OW16564   4.513   1.091   1.620 -0.5187 -0.0695  0.0472
 5329SOL    HW116565   4.567   1.163   1.654 -1.2525  0.4269  0.1810
 5329SOL    HW216566   4.467   1.057   1.697  0.8614 -1.6194  0.2422
 5330SOL     OW16567   2.506   9.589   4.666  0.0663  0.1179  0.1057
 5330SOL    HW116568   2.536   9.592   4.757  0.7499 -0.3968 -0.0948
 5330SOL    HW216569   2.475   9.499   4.654 -0.9676  0.4505  0.1066
 5331SOL     OW16570   8.716   6.380   8.057 -0.1223  0.1013  0.2260
 5331SOL    HW116571   8.770   6.408   8.131  0.0631  0.4442 -0.0353
 5331SOL    HW216572   8.759   6.418   7.980 -1.3954  1.3774  0.1050
 5332SOL     OW16573   2.958   3.962   0.674  0.4039  0.1424  0.4385
 5332SOL    HW116574   2.992   3.921   0.753 -0.3417 -1.7206 -0.1454
 5332SOL    HW216575   2.864   3.943   0.675  0.3420  0.2839 -0.7700
 5333SOL     OW16576   1.572   3.435   6.435 -0.0552 -0.1492  0.1826
 5333SOL    HW116577   1.514   3.491   6.382  0.7035  0.2674 -0.2351
 5333SOL    HW216578   1.533   3.436   6.522 -0.1081  0.9792  0.1629
 5334SOL     OW16579   4.165   1.008   1.368  0.0785 -0.3590  0.3452
 5334SOL    HW116580   4.187   0.925   1.324  0.2857 -1.0567  1.7122
 5334SOL    HW216581   4.089   0.987   1.421 -0.3785  0.5674  0.0712
 5335SOL     OW16582   9.675   9.521   7.316 -0.4216 -0.1993  0.6971
 5335SOL    HW116583   9.586   9.522   7.279 -0.4817 -1.5950  0.7669
 5335SOL    HW216584   9.695   9.428   7.328  2.5728 -0.2347 -2.9811
 5336SOL     OW16585   5.098   3.871   3.607  0.3543 -0.2317 -0.2649
 5336SOL    HW116586   5.065   3.960   3.596  0.3982 -0.3287 -1.2174
 5336SOL    HW216587   5.065   3.823   3.531  3.7185 -0.0183 -2.0315
 5337SOL     OW16588   0.913   3.810   0.010 -1.4915 -0.0522  0.0465
 5337SOL    HW116589   0.823   3.814  -0.021 -1.5744 -0.9545  0.1336
 5337SOL    HW216590   0.931   3.717   0.021 -0.3410  0.0785 -0.5410
 5338SOL     OW16591   8.576   4.069   6.108  0.2570 -0.6513 -0.1947
 5338SOL    HW116592   8.536   4.092   6.024 -1.4741 -1.8962  0.2379
 5338SOL    HW216593   8.541   4.133   6.169  0.0579 -0.8747 -0.0754
 5339SOL     OW16594   7.319   7.101   0.420 -0.1014 -1.0500  0.4233
 5339SOL    HW116595   7.268   7.123   0.499 -0.4868  1.0861 -0.3623
 5339SOL    HW216596   7.402   7.147   0.432 -0.5730  0.1913 -0.8701
 5340SOL     OW16597   7.623   5.374   0.777  0.6996  0.2019  0.0555
 5340SOL    HW116598   7.532   5.375   0.806  0.9619  0.4376  0.8804
 5340SOL    HW216599   7.672   5.335   0.849  1.2113 -0.2465 -0.5209
 5341SOL     OW16600   6.066   7.221   6.896 -0.4564  0.5967 -0.2842
 5341SOL    HW116601   6.003   7.216   6.968 -0.1662  2.4428  0.1548
 5341SOL    HW216602   6.151   7.204   6.938 -0.5749 -1.8528 -0.8688
 5342SOL     OW16603   8.167   7.371   7.483  0.7253  0.1823 -0.0596
 5342SOL    HW116604   8.119   7.292   7.461  0.5061  0.8033 -2.0059
 5342SOL    HW216605   8.259   7.344   7.485  0.5558 -0.3714  0.6154
 5343SOL     OW16606   9.066   1.774   6.529  0.1284  0.1681  0.1862
 5343SOL    HW116607   9.017   1.844   6.573 -1.7012 -1.5851  1.1033
 5343SOL    HW216608   9.066   1.798   6.437 -0.5709  1.3147  0.4723
 5344SOL     OW16609   7.947   2.131   2.822  0.6809 -0.2542  0.0395
 5344SOL    HW116610   7.984   2.187   2.891  0.1903 -0.4921  0.5046
 5344SOL    HW216611   7.889   2.190   2.773  0.0877 -0.3638  0.5903
 5345SOL     OW16612   4.285   1.710   0.260 -0.5010  0.6848  0.5746
 5345SOL    HW116613   4.296   1.786   0.317 -1.2913  0.9759  0.3451
 5345SOL    HW216614   4.256   1.640   0.319 -0.9874  0.8932  0.5798
 5346SOL     OW16615   0.541   9.883   9.732  0.3194  0.0356 -0.2505
 5346SOL    HW116616   0.538   9.877   9.827  2.0198  0.3538 -0.1416
 5346SOL    HW216617   0.449   9.891   9.705 -0.1746  0.0929  1.3551
 5347SOL     OW16618   6.225   4.314   0.732 -0.2645 -0.1033  0.5550
 5347SOL    HW116619   6.319   4.300   0.738 -0.1524  0.3288 -0.0020
 5347SOL    HW216620   6.214   4.363   0.650 -1.0907 -1.1767 -0.0064
 5348SOL     OW16621   8.076   7.787   1.469 -0.1457 -0.2612  0.1673
 5348SOL    HW116622   8.129   7.852   1.515  1.3064  1.1130 -3.1257
 5348SOL    HW216623   8.133   7.711   1.460  0.1154  0.0105 -0.5504
 5349SOL     OW16624   8.289   2.799   2.220 -0.6148  0.2813 -0.3905
 5349SOL    HW116625   8.213   2.856   2.208  0.0118  0.8430 -1.9483
 5349SOL    HW216626   8.365   2.858   2.215 -0.0526 -0.1742  1.7338
 5350SOL     OW16627   6.469   6.690   9.503  0.2403 -0.7911 -0.8355
 5350SOL    HW116628   6.486   6.638   9.581 -0.7954 -0.6232 -0.4785
 5350SOL    HW216629   6.522   6.769   9.516  0.8581 -1.2018 -0.7962
 5351SOL     OW16630   1.416   1.341   1.816 -0.0079  0.0240  0.6878
 5351SOL    HW116631   1.352   1.340   1.745  1.7040 -2.2310 -1.0016
 5351SOL    HW216632   1.383   1.278   1.880 -0.3014  0.1058  0.6145
 5352SOL     OW16633   4.286   1.823   2.935 -0.4105  0.2636  0.1001
 5352SOL    HW116634   4.191   1.823   2.941 -0.4422  2.3361  0.3451
 5352SOL    HW216635   4.311   1.914   2.953  1.4457  0.3860 -2.4651
 5353SOL     OW16636   6.541   9.636   7.705  0.2360 -0.0816 -0.1434
 5353SOL    HW116637   6.618   9.590   7.740  0.6833  1.0350  0.3950
 5353SOL    HW216638   6.573   9.723   7.683 -1.4361  1.4584  2.8549
 5354SOL     OW16639   1.722   0.786   4.612 -0.4311  0.5919 -0.4344
 5354SOL    HW116640   1.733   0.822   4.700 -1.7964  0.0289 -0.0107
 5354SOL    HW216641   1.765   0.701   4.616  1.7792  1.5998 -1.1020
 5355SOL     OW16642   7.687   5.936   4.945  0.1024  0.1852  0.0188
 5355SOL    HW116643   7.779   5.935   4.970  0.7585  0.3819 -2.1472
 5355SOL    HW216644   7.651   5.855   4.981  1.3033 -0.2321  0.3332
 5356SOL     OW16645   9.331   5.345   2.422 -0.4802  0.1864  0.2971
 5356SOL    HW116646   9.380   5.282   2.474  0.4004 -0.6667 -1.4663
 5356SOL    HW216647   9.387   5.363   2.346 -1.3234  2.0339  0.0545
 5357SOL     OW16648   4.069   0.437   9.061 -0.5371  0.3228 -0.3549
 5357SOL    HW116649   4.067   0.342   9.073  0.1732  0.2647 -0.6311
 5357SOL    HW216650   4.143   0.452   9.002 -0.1353  1.1178  0.3301
 5358SOL     OW16651   6.987   0.753   2.554 -0.0682  0.3669  0.0906
 5358SOL    HW116652   6.910   0.698   2.537 -0.6059  1.1828 -0.1375
 5358SOL    HW216653   7.046   0.695   2.603 -1.0075 -0.1335  0.6722
 5359SOL     OW16654   7.008   2.379   3.893  0.4483  0.4334  0.2184
 5359SOL    HW116655   6.998   2.452   3.832  0.6539  2.8986  2.8917
 5359SOL    HW216656   7.038   2.420   3.974  1.4726 -2.8024  1.6309
 5360SOL     OW16657   3.960   6.866   9.810 -0.0522 -0.2439 -0.4663
 5360SOL    HW116658   4.033   6.924   9.793 -0.3541  0.0605 -0.7483
 5360SOL    HW216659   3.979   6.787   9.760 -0.3725  0.1992 -1.2958
 5361SOL     OW16660   1.236   8.778   6.789 -0.2088  0.5373  0.7360
 5361SOL    HW116661   1.206   8.770   6.699 -0.5384  1.6552  0.7321
 5361SOL    HW216662   1.314   8.724   6.793  1.4998  2.6654 -1.0177
 5362SOL     OW16663   3.128   5.879   8.156 -0.0776 -0.0168  0.0618
 5362SOL    HW116664   3.108   5.910   8.068 -1.2703  1.2467  0.7497
 5362SOL    HW216665   3.060   5.814   8.174  1.8456 -2.5068 -0.9967
 5363SOL     OW16666   8.977   7.521   9.979  0.0179 -0.3751 -0.3640
 5363SOL    HW116667   9.041   7.559   9.919 -0.5731 -1.0395 -1.4550
 5363SOL    HW216668   8.935   7.451   9.928 -1.2055 -0.2919  0.4907
 5364SOL     OW16669   2.994   3.132   6.209  0.0068  0.5459 -0.1925
 5364SOL    HW116670   3.078   3.128   6.163 -0.5696  1.7679 -1.4588
 5364SOL    HW216671   2.992   3.220   6.246  0.8405 -0.6809  3.0936
 5365SOL     OW16672   3.135   9.932   7.429 -0.7330 -0.0364  0.4227
 5365SOL    HW116673   3.214   9.879   7.415  0.6026  1.6274  1.2479
 5365SOL    HW216674   3.068   9.869   7.456  1.1249 -1.2130  2.6676
 5366SOL     OW16675   8.690   8.772   6.882 -0.5293 -0.3991 -0.3769
 5366SOL    HW116676   8.617   8.724   6.922 -0.6691 -0.2594 -0.4651
 5366SOL    HW216677   8.758   8.771   6.949 -1.4705  1.5946  0.6930
 5367SOL     OW16678   6.022   3.863   2.151 -0.1762 -0.0658  0.0388
 5367SOL    HW116679   5.939   3.904   2.176 -0.6833  0.9146 -2.8441
 5367SOL    HW216680   6.047   3.908   2.070  0.5361 -3.7168 -1.9783
 5368SOL     OW16681   8.432   3.960   3.448 -0.0366 -0.2637 -0.0094
 5368SOL    HW116682   8.388   4.041   3.473 -1.7149 -1.1938  0.2246
 5368SOL    HW216683   8.467   3.926   3.530 -0.6664 -0.5159  0.1641
 5369SOL     OW16684   6.168   8.088   5.309 -0.1273  0.5847  0.1325
 5369SOL    HW116685   6.080   8.116   5.334  0.0829  1.7494 -0.3954
 5369SOL    HW216686   6.166   8.086   5.213  0.7286  1.7270  0.0694
 5370SOL     OW16687   5.397   7.807   1.981 -0.2845 -0.4551 -0.3896
 5370SOL    HW116688   5.349   7.732   2.017  2.3205 -1.1377  2.0813
 5370SOL    HW216689   5.469   7.767   1.932  1.2374  0.3393  1.0952
 5371SOL     OW16690   4.019   5.596   8.462 -0.3806 -0.2370  0.2917
 5371SOL    HW116691   4.111   5.619   8.469 -0.3685  0.5004 -1.5948
 5371SOL    HW216692   4.009   5.518   8.516  1.4607 -0.6640  0.0762
 5372SOL     OW16693   0.250   5.170   6.340 -0.4330  0.6386  0.2211
 5372SOL    HW116694   0.202   5.212   6.269  0.6834  1.8326  0.1225
 5372SOL    HW216695   0.342   5.185   6.318 -0.0290 -0.6701  0.9336
 5373SOL     OW16696   7.509   9.784   5.737 -0.0905  0.2969  0.5598
 5373SOL    HW116697   7.448   9.857   5.745 -0.7034 -0.0264 -0.9106
 5373SOL    HW216698   7.502   9.738   5.821  0.8958  2.3297  1.8348
 5374SOL     OW16699   6.503   2.105   3.584  0.1082 -0.2934 -0.0592
 5374SOL    HW116700   6.458   2.021   3.591 -0.4957 -0.0946 -1.2578
 5374SOL    HW216701   6.509   2.121   3.490  3.6202 -0.7838 -0.0479
 5375SOL     OW16702   5.905   6.768   4.175  0.1678 -0.1043  0.0270
 5375SOL    HW116703   5.868   6.719   4.248  0.4278  0.5096  0.5831
 5375SOL    HW216704   5.831   6.814   4.137  0.0985 -0.1087  0.1565
 5376SOL     OW16705   1.216   4.713   2.613 -0.4889 -0.0351 -0.0541
 5376SOL    HW116706   1.309   4.716   2.633 -0.3006 -0.4132 -0.8443
 5376SOL    HW216707   1.194   4.620   2.610 -1.2889  0.0384  1.8247
 5377SOL     OW16708   0.658   8.886   1.685 -0.1499  0.4083  0.6186
 5377SOL    HW116709   0.690   8.913   1.599  1.2221 -0.7635  0.7324
 5377SOL    HW216710   0.736   8.885   1.740 -0.8337  0.0909  1.5988
 5378SOL     OW16711   2.359   2.896   8.828  0.0318 -0.2981  0.6468
 5378SOL    HW116712   2.307   2.850   8.894 -0.5621 -0.2115  0.2538
 5378SOL    HW216713   2.408   2.962   8.877  0.0923 -0.6584  1.0783
 5379SOL     OW16714   3.972   6.029   9.539  0.1084 -0.4691  0.9977
 5379SOL    HW116715   3.901   5.988   9.588 -1.2178  0.0659 -0.4132
 5379SOL    HW216716   3.940   6.117   9.519  0.3611 -0.8430 -1.2795
 5380SOL     OW16717   9.976   0.655   7.963 -0.0987 -0.3244 -0.2471
 5380SOL    HW116718   9.907   0.651   7.897 -0.3284  2.2840 -0.2441
 5380SOL    HW216719  10.004   0.564   7.974 -2.3311 -1.2239 -1.5025
 5381SOL     OW16720   0.672   5.973   4.999  0.3031 -0.2476 -0.4823
 5381SOL    HW116721   0.740   5.934   5.054 -0.6991 -1.2872  0.0651
 5381SOL    HW216722   0.656   5.908   4.931  0.0727  0.1249 -0.7880
 5382SOL     OW16723   7.680   7.518   8.278 -0.6836  0.1892 -0.0038
 5382SOL    HW116724   7.600   7.471   8.256 -2.3626  2.3442  1.1046
 5382SOL    HW216725   7.729   7.457   8.333 -2.0578 -0.8088  0.1653
 5383SOL     OW16726   6.934   3.411   1.662 -0.2249 -0.5519  0.1941
 5383SOL    HW116727   6.864   3.406   1.727 -0.6333  0.8996 -0.0830
 5383SOL    HW216728   6.903   3.476   1.599  2.4663  2.2612  1.5090
 5384SOL     OW16729   8.624   8.175   5.889 -0.1552 -0.2681  0.2843
 5384SOL    HW116730   8.556   8.162   5.823 -0.0355  1.4018 -0.2158
 5384SOL    HW216731   8.592   8.129   5.966 -2.3291  1.2194  0.3720
 5385SOL     OW16732   7.521   4.684   4.655 -0.9877  0.2002 -0.0201
 5385SOL    HW116733   7.512   4.750   4.724  0.6548  0.3814  0.0571
 5385SOL    HW216734   7.509   4.732   4.573 -0.2950  0.5287  0.0564
 5386SOL     OW16735   5.735   3.491   5.811 -0.2030  0.1096 -0.0993
 5386SOL    HW116736   5.711   3.399   5.803  0.3337  0.0246 -0.7388
 5386SOL    HW216737   5.652   3.538   5.804 -0.3920 -0.2840 -0.4777
 5387SOL     OW16738   5.126   6.029   8.076  0.1944  0.1753 -0.1378
 5387SOL    HW116739   5.212   6.071   8.077  0.9318 -1.2275 -1.7171
 5387SOL    HW216740   5.104   6.021   7.984 -0.8761 -0.9890  0.1958
 5388SOL     OW16741   5.850   5.701   6.615  0.1903  0.1188  0.4399
 5388SOL    HW116742   5.783   5.656   6.564  1.4328 -0.3571 -0.8200
 5388SOL    HW216743   5.924   5.640   6.618  0.5961  0.6318  1.7979
 5389SOL     OW16744   3.739   2.391   6.802  0.2432 -0.0305 -0.2911
 5389SOL    HW116745   3.722   2.483   6.781 -0.8795 -0.6516 -2.4348
 5389SOL    HW216746   3.653   2.349   6.796  0.6376 -1.1607  1.2474
 5390SOL     OW16747   6.096   0.167   4.753  0.2939  0.0625  0.4663
 5390SOL    HW116748   6.170   0.128   4.706 -0.1532 -0.4771  0.1988
 5390SOL    HW216749   6.080   0.250   4.709 -0.0558 -0.3945 -0.2878
 5391SOL     OW16750   8.560   4.997   6.312 -0.5274  0.1933 -0.2999
 5391SOL    HW116751   8.493   5.052   6.352  0.1673  0.6167  0.3193
 5391SOL    HW216752   8.531   4.908   6.330 -0.5799  0.3753  0.5810
 5392SOL     OW16753   5.993   4.143   0.485  0.2423 -0.9815 -0.3844
 5392SOL    HW116754   5.917   4.141   0.427  0.6435  0.4383 -1.0194
 5392SOL    HW216755   5.980   4.221   0.539  4.0391  3.2906 -4.7092
 5393SOL     OW16756   6.161   2.082   5.006 -0.2913  0.3199 -0.3565
 5393SOL    HW116757   6.117   2.156   5.049 -2.5046  0.0791 -1.9970
 5393SOL    HW216758   6.182   2.114   4.919  1.0378 -0.2365 -0.2619
 5394SOL     OW16759   4.470   2.005   0.198 -0.0936  0.1587 -0.0410
 5394SOL    HW116760   4.535   1.944   0.165  1.6387  1.6972  0.3997
 5394SOL    HW216761   4.405   2.012   0.128 -2.0809 -4.3946  0.9829
 5395SOL     OW16762   5.715   9.390   0.097 -0.0814  0.1010  0.4229
 5395SOL    HW116763   5.749   9.479   0.108 -0.9547  0.6814 -1.2053
 5395SOL    HW216764   5.636   9.389   0.151  1.4345 -0.6798  2.7778
 5396SOL     OW16765   5.843   5.243   8.095 -0.1778  0.1316  0.0165
 5396SOL    HW116766   5.923   5.248   8.042 -0.1069 -1.8576 -0.1536
 5396SOL    HW216767   5.843   5.154   8.130 -2.0689  0.2507  0.4439
 5397SOL     OW16768   4.338   4.082   5.731  0.4633  0.1855 -0.2687
 5397SOL    HW116769   4.397   4.017   5.769 -1.2382 -1.1325  0.2266
 5397SOL    HW216770   4.316   4.048   5.645 -0.4693  0.0683  0.0071
 5398SOL     OW16771   3.601   6.905   0.521  0.0056  0.3963 -0.1818
 5398SOL    HW116772   3.577   6.985   0.474 -0.6092  0.4454  0.1916
 5398SOL    HW216773   3.689   6.922   0.554 -0.4715  1.3226  0.7039
 5399SOL     OW16774   0.950   6.921   2.549  0.7557  0.3307 -0.3006
 5399SOL    HW116775   0.942   6.951   2.458  1.3837 -0.1099 -0.5047
 5399SOL    HW216776   0.995   6.993   2.593 -0.2991  0.9108 -0.1379
 5400SOL     OW16777   1.354   3.384   9.904 -0.0509 -0.5792 -0.1706
 5400SOL    HW116778   1.400   3.457   9.946 -0.3925 -0.0538 -0.6988
 5400SOL    HW216779   1.265   3.416   9.890 -0.3867 -1.3326  0.1878
 5401SOL     OW16780   1.694   7.206   2.934 -0.6897  0.5048  0.1400
 5401SOL    HW116781   1.694   7.234   3.025 -0.3678  0.8808  0.0277
 5401SOL    HW216782   1.657   7.281   2.886 -0.4499  0.4797 -0.0863
 5402SOL     OW16783   2.792   1.064   8.328  0.0493 -0.1653  0.1798
 5402SOL    HW116784   2.839   1.145   8.309 -2.0723  2.6078  4.9939
 5402SOL    HW216785   2.705   1.076   8.290  0.0631 -0.6924 -0.0279
 5403SOL     OW16786   1.960   2.791   5.393 -0.5389 -0.1061 -0.0752
 5403SOL    HW116787   1.917   2.875   5.407 -0.7704 -0.4111  1.1627
 5403SOL    HW216788   1.943   2.742   5.473  0.9216 -0.7550 -0.1251
 5404SOL     OW16789   8.574   7.765   9.476 -0.4427  0.5761  0.2385
 5404SOL    HW116790   8.655   7.760   9.527  1.5815  1.3963 -2.6086
 5404SOL    HW216791   8.532   7.680   9.487  1.8183 -0.5850  0.3135
 5405SOL     OW16792   4.644   1.262   4.961 -0.4941  0.0453 -0.0761
 5405SOL    HW116793   4.732   1.226   4.946  0.3238  1.3984  1.1596
 5405SOL    HW216794   4.639   1.272   5.056 -1.8116  0.4522 -0.1769
 5406SOL     OW16795   0.949   4.960   6.107 -0.0642 -0.5848  0.2116
 5406SOL    HW116796   1.011   4.904   6.060  0.4427  0.6219 -0.5903
 5406SOL    HW216797   0.875   4.902   6.126  0.4495 -1.5314 -0.5677
 5407SOL     OW16798   7.327   3.844   4.491  0.0471 -0.0704  0.1468
 5407SOL    HW116799   7.300   3.902   4.562 -0.1129  0.5317 -0.4021
 5407SOL    HW216800   7.377   3.900   4.432  0.3726 -0.6193 -0.1056
 5408SOL     OW16801   0.177   3.622   2.582 -0.2982  0.1626 -0.2647
 5408SOL    HW116802   0.266   3.590   2.564  0.6830  2.6371 -0.2306
 5408SOL    HW216803   0.162   3.598   2.674 -0.0593 -1.0608 -0.5232
 5409SOL     OW16804   7.332   4.437   3.668 -0.1711  0.2098  0.1030
 5409SOL    HW116805   7.237   4.434   3.657 -0.0046  1.0866 -2.4487
 5409SOL    HW216806   7.345   4.479   3.752 -2.0530  0.4952  0.3045
 5410SOL     OW16807   0.077   8.925   8.447  0.2830  0.2423  0.0795
 5410SOL    HW116808  -0.003   8.977   8.440  0.1061 -0.0328  0.0543
 5410SOL    HW216809   0.127   8.949   8.369  0.4929  0.8564  0.3915
 5411SOL     OW16810   6.257   3.846   2.290  0.1662  0.0700  0.9719
 5411SOL    HW116811   6.166   3.846   2.258 -0.0204 -0.1930  1.4978
 5411SOL    HW216812   6.267   3.931   2.333 -0.5485 -0.7567  2.8909
 5412SOL     OW16813   7.559   7.176   1.169 -0.8865  0.0917  0.1863
 5412SOL    HW116814   7.619   7.118   1.122  0.4371  2.4894 -1.2892
 5412SOL    HW216815   7.581   7.163   1.262  0.9388 -0.1521 -0.2363
 5413SOL     OW16816   4.419   5.679   6.487  0.3908 -0.1597 -0.3963
 5413SOL    HW116817   4.483   5.711   6.424 -0.7036 -0.5503 -1.7524
 5413SOL    HW216818   4.383   5.758   6.527  0.9402  0.1014 -0.4142
 5414SOL     OW16819   3.935   5.686   3.313 -0.1733  0.2344 -0.6624
 5414SOL    HW116820   4.027   5.678   3.335 -0.4016  2.1324  1.2121
 5414SOL    HW216821   3.889   5.656   3.391 -1.1610 -0.2502 -1.4066
 5415SOL     OW16822   9.838   7.278   0.449  0.3363 -0.2827  0.3362
 5415SOL    HW116823   9.778   7.258   0.377  0.6277 -0.3446  0.1029
 5415SOL    HW216824   9.801   7.234   0.525  0.7420 -1.3972 -0.0764
 5416SOL     OW16825   7.063   2.724   7.540  0.0726 -0.0710 -0.7718
 5416SOL    HW116826   7.110   2.725   7.457  1.2045 -1.1258 -0.1853
 5416SOL    HW216827   7.036   2.633   7.551  0.3948 -0.0547  0.2528
 5417SOL     OW16828   0.815   4.497   3.974 -0.0072 -0.0276 -0.0069
 5417SOL    HW116829   0.862   4.458   4.048 -0.8752  0.2070  0.6935
 5417SOL    HW216830   0.741   4.544   4.014 -1.0894 -0.7395 -1.0772
 5418SOL     OW16831   3.517   7.930   6.842  0.3612 -0.2048  0.7091
 5418SOL    HW116832   3.569   7.853   6.865  0.0691 -1.1745 -1.6534
 5418SOL    HW216833   3.436   7.919   6.891  0.7294 -0.8657  1.1885
 5419SOL     OW16834   1.416   5.641   5.467  0.0620  0.5783 -0.4354
 5419SOL    HW116835   1.323   5.620   5.474 -0.0297  0.3991 -1.9791
 5419SOL    HW216836   1.460   5.557   5.472  0.1756  0.6829  0.5322
 5420SOL     OW16837   2.346   2.414   5.198 -0.1844 -0.1188 -0.0653
 5420SOL    HW116838   2.312   2.451   5.279 -1.1377 -0.3528 -0.3431
 5420SOL    HW216839   2.352   2.488   5.138 -0.4253 -0.1034 -0.0747
 5421SOL     OW16840   5.262   2.829   2.987  0.1006 -0.2447 -0.5874
 5421SOL    HW116841   5.333   2.777   2.948 -0.0375 -0.0730 -1.0680
 5421SOL    HW216842   5.307   2.894   3.041  0.2861 -0.6350 -0.2669
 5422SOL     OW16843   9.490   3.932   0.128 -0.0706 -0.0307  0.6025
 5422SOL    HW116844   9.493   3.980   0.211 -1.3838  0.5936  0.3264
 5422SOL    HW216845   9.580   3.901   0.114  1.0233  2.7758  0.5810
 5423SOL     OW16846   6.246   7.802   0.364  0.0528 -0.4042 -0.1866
 5423SOL    HW116847   6.151   7.792   0.368 -0.0369 -0.4385 -1.7702
 5423SOL    HW216848   6.270   7.840   0.448 -1.6025  1.3874 -0.4558
 5424SOL     OW16849   3.646   2.320   5.774 -0.0706 -0.4765 -0.3290
 5424SOL    HW116850   3.705   2.393   5.753 -0.8605  0.6333  1.1238
 5424SOL    HW216851   3.558   2.358   5.770 -0.6531 -1.9060 -1.6535
 5425SOL     OW16852   7.341   6.265   8.059 -0.0981 -0.5196 -0.1044
 5425SOL    HW116853   7.413   6.230   8.112 -0.5127 -1.5663 -0.2154
 5425SOL    HW216854   7.321   6.350   8.099  1.1027 -0.2773  0.0130
 5426SOL     OW16855   9.359   8.876   9.812 -0.6374  0.1700  0.4967
 5426SOL    HW116856   9.269   8.908   9.807 -1.1156 -0.9936  1.1700
 5426SOL    HW216857   9.350   8.786   9.843  0.5640 -0.9488 -2.1541
 5427SOL     OW16858   6.970   7.648   5.483  0.2213  0.3458  0.0063
 5427SOL    HW116859   6.953   7.588   5.410 -0.1571 -1.4079  1.4612
 5427SOL    HW216860   6.946   7.734   5.449  0.1726 -0.3997 -1.9670
 5428SOL     OW16861   0.367   9.605   9.863 -0.4162 -0.1399 -0.0416
 5428SOL    HW116862   0.456   9.638   9.877 -0.9178  1.7432 -0.9708
 5428SOL    HW216863   0.344   9.561   9.944  0.8429  0.6034  0.7431
 5429SOL     OW16864   8.238   9.348   1.333 -0.1242  0.0828  0.1388
 5429SOL    HW116865   8.192   9.382   1.410  0.6939 -0.3387  0.8317
 5429SOL    HW216866   8.303   9.287   1.369 -0.6978 -1.2378 -0.9708
 5430SOL     OW16867   0.793   7.584   2.325 -0.0609 -0.1927 -0.2448
 5430SOL    HW116868   0.712   7.533   2.320  0.0642 -0.7616  2.2667
 5430SOL    HW216869   0.775   7.663   2.273 -1.2423 -1.4921 -1.9026
 5431SOL     OW16870   2.775   9.096   6.540 -0.6680  0.2117 -0.3603
 5431SOL    HW116871   2.841   9.067   6.603 -0.2369 -1.4307 -1.4972
 5431SOL    HW216872   2.822   9.153   6.480 -0.3995 -0.5022 -0.8379
 5432SOL     OW16873   8.505   5.078   4.068 -0.4546 -0.0690  0.7427
 5432SOL    HW116874   8.488   5.005   4.127  0.1311  0.5427  1.6937
 5432SOL    HW216875   8.469   5.154   4.113 -0.8708  0.2683 -0.1427
 5433SOL     OW16876   0.508   7.823   8.924 -0.3297  0.2475 -0.0468
 5433SOL    HW116877   0.535   7.862   9.006  0.4888  0.0120 -0.1930
 5433SOL    HW216878   0.506   7.729   8.942  0.2486  0.1659 -0.4072
 5434SOL     OW16879   2.699   5.479   5.023 -0.2877  0.0161  0.7662
 5434SOL    HW116880   2.691   5.546   5.091  0.7669  0.5569  0.3929
 5434SOL    HW216881   2.697   5.396   5.070 -1.8069  0.2879  1.2171
 5435SOL     OW16882   6.270   1.311   1.054  0.4527  0.2355  0.0216
 5435SOL    HW116883   6.325   1.390   1.049  1.1430 -0.2905 -0.9883
 5435SOL    HW216884   6.279   1.282   1.145  0.9382  0.7971  0.1593
 5436SOL     OW16885   9.719   4.762   9.051  0.1302 -0.4733 -0.5084
 5436SOL    HW116886   9.737   4.712   8.971  2.4695 -1.1471  0.3585
 5436SOL    HW216887   9.803   4.763   9.097 -0.7648  1.2959  1.1755
 5437SOL     OW16888   3.663   2.336   5.257 -0.1195  0.1390  0.1572
 5437SOL    HW116889   3.603   2.286   5.313 -1.1405  2.1938  1.0006
 5437SOL    HW216890   3.738   2.353   5.313  0.0615 -0.1246 -0.0055
 5438SOL     OW16891   0.107   3.097   3.660 -0.1530 -0.2505 -0.8843
 5438SOL    HW116892   0.114   3.154   3.584 -2.0152 -0.1620 -1.0245
 5438SOL    HW216893   0.178   3.126   3.718  0.8236  0.1741 -2.2404
 5439SOL     OW16894   3.815   8.747   4.473 -1.0051 -0.7680  0.0828
 5439SOL    HW116895   3.875   8.791   4.534 -2.2462  0.6240  0.3550
 5439SOL    HW216896   3.867   8.733   4.394  0.1807 -1.1989  0.8968
 5440SOL     OW16897   3.836   4.585   4.062 -0.0782 -0.4635 -0.1235
 5440SOL    HW116898   3.788   4.502   4.070 -1.7148  0.6039  1.8790
 5440SOL    HW216899   3.906   4.579   4.127  1.6457 -1.3638 -1.9517
 5441SOL     OW16900   5.670   6.473   1.923 -0.5809  0.1719  0.0475
 5441SOL    HW116901   5.758   6.508   1.936 -1.0227  1.5008 -0.4213
 5441SOL    HW216902   5.611   6.542   1.952 -1.4842 -0.5856  0.0795
 5442SOL     OW16903   5.792   9.311   3.598  0.2299 -0.1627  0.1525
 5442SOL    HW116904   5.798   9.406   3.611 -0.2690  0.1179 -1.4045
 5442SOL    HW216905   5.738   9.280   3.670  0.8505  0.6390  0.9953
 5443SOL     OW16906   4.745   3.752   7.762 -0.8415 -0.2669  0.1638
 5443SOL    HW116907   4.706   3.695   7.828 -2.7495 -0.1356 -0.7854
 5443SOL    HW216908   4.705   3.837   7.776 -1.1873 -0.2019 -1.0606
 5444SOL     OW16909   2.145   7.753   1.581 -0.5638 -0.3189 -0.1078
 5444SOL    HW116910   2.231   7.744   1.621  0.1054 -2.1153 -1.7874
 5444SOL    HW216911   2.088   7.783   1.652  1.6888  2.4446  0.7106
 5445SOL     OW16912   2.111   8.714   1.824  0.4297  0.3142 -0.8411
 5445SOL    HW116913   2.175   8.650   1.858 -0.8602 -0.5419  0.0700
 5445SOL    HW216914   2.118   8.707   1.729  2.3019  0.8946 -0.8062
 5446SOL     OW16915   2.675   0.769   5.770 -0.0759  0.3825  0.7849
 5446SOL    HW116916   2.716   0.844   5.728  0.4211  0.5177  1.4906
 5446SOL    HW216917   2.743   0.733   5.827  0.3724 -1.8038 -0.9803
 5447SOL     OW16918   1.496   4.513   0.968  0.1167  0.8945 -0.1806
 5447SOL    HW116919   1.414   4.466   0.982  0.3878  0.4111 -0.1772
 5447SOL    HW216920   1.495   4.584   1.031 -0.0285  0.5250  0.2370
 5448SOL     OW16921   8.511   4.268   8.393  0.5276  0.3855 -0.0441
 5448SOL    HW116922   8.518   4.322   8.314  0.3889 -0.5773 -0.7391
 5448SOL    HW216923   8.602   4.248   8.416  0.5530 -0.6047 -0.8941
 5449SOL     OW16924   9.349   6.676   1.781 -0.0703 -0.3611 -0.1584
 5449SOL    HW116925   9.279   6.699   1.720 -0.3564 -2.0357 -0.5046
 5449SOL    HW216926   9.354   6.580   1.778  1.2253 -0.3708  0.9931
 5450SOL     OW16927   3.846   2.080   5.731  0.1149 -0.4720  0.0786
 5450SOL    HW116928   3.849   2.003   5.674 -1.0281 -0.9017  0.5814
 5450SOL    HW216929   3.757   2.113   5.724  0.3715  0.3442  0.4865
 5451SOL     OW16930   1.001   8.995   9.649 -0.1086  0.2600  0.6066
 5451SOL    HW116931   1.038   8.961   9.568  0.4030  0.7513  0.6256
 5451SOL    HW216932   0.978   8.917   9.699  1.6691 -0.1032  0.9446
 5452SOL     OW16933   5.750   0.621   2.613 -0.2059  0.1475  0.1849
 5452SOL    HW116934   5.801   0.686   2.662  0.5808 -0.8887  0.7898
 5452SOL    HW216935   5.738   0.549   2.675 -0.1001 -0.7544 -0.8207
 5453SOL     OW16936   8.416   5.568   5.748 -0.0238  0.3676 -0.0047
 5453SOL    HW116937   8.370   5.596   5.669  0.9093 -0.1073 -0.7405
 5453SOL    HW216938   8.495   5.623   5.749 -0.1402  0.5269  0.7306
 5454SOL     OW16939   9.650   6.029   3.268 -0.0158  0.0543  0.0530
 5454SOL    HW116940   9.696   5.995   3.191 -1.6459  1.0339 -1.3965
 5454SOL    HW216941   9.585   5.962   3.289 -0.0776  0.1341  0.1158
 5455SOL     OW16942   5.118   3.339   3.746 -0.0405 -0.0085 -0.5511
 5455SOL    HW116943   5.214   3.337   3.737  0.1693 -0.9642  1.3366
 5455SOL    HW216944   5.087   3.368   3.660  2.0309  3.2800 -0.3939
 5456SOL     OW16945   1.788   9.325  -0.005 -0.1875 -0.2997 -0.1576
 5456SOL    HW116946   1.701   9.306   0.032  0.3380  0.0140  1.2988
 5456SOL    HW216947   1.786   9.419  -0.025 -0.6417 -0.5653 -1.4546
 5457SOL     OW16948   2.821   1.715   1.240 -0.3371  0.3245 -1.0749
 5457SOL    HW116949   2.763   1.726   1.164 -0.2318  1.1468 -1.0459
 5457SOL    HW216950   2.910   1.720   1.203 -0.2760 -1.0222 -1.1320
 5458SOL     OW16951   9.656   4.213   3.241 -0.7777  0.4748  0.2580
 5458SOL    HW116952   9.657   4.240   3.149  0.7219 -1.0109 -0.2047
 5458SOL    HW216953   9.628   4.292   3.288  0.2886  1.8767 -1.2918
 5459SOL     OW16954   7.400   3.383   8.663  0.0623  0.3569 -0.0318
 5459SOL    HW116955   7.482   3.383   8.614  0.1034  0.2644  0.0354
 5459SOL    HW216956   7.342   3.327   8.612  0.6571 -1.1922  0.9185
 5460SOL     OW16957   7.981   0.380   0.222  0.0241 -0.1856 -0.5918
 5460SOL    HW116958   7.898   0.334   0.222 -0.0004 -0.1663 -1.6531
 5460SOL    HW216959   8.024   0.353   0.303 -0.1628 -1.7630 -0.9802
 5461SOL     OW16960   5.137   0.851   7.201  0.2247 -0.4594 -0.0709
 5461SOL    HW116961   5.109   0.760   7.207 -1.1233 -0.0354  0.2870
 5461SOL    HW216962   5.151   0.877   7.292 -0.5965  0.0414 -0.0773
 5462SOL     OW16963   3.234   2.049   8.800 -0.4365  0.0701 -0.4129
 5462SOL    HW116964   3.196   1.989   8.736 -1.8150 -0.2403  0.6633
 5462SOL    HW216965   3.307   1.999   8.838 -1.4059 -0.8537  0.2891
 5463SOL     OW16966   7.688   4.035   1.256 -0.2577  0.1663  0.3761
 5463SOL    HW116967   7.760   3.973   1.269 -0.1819  0.1441 -0.1298
 5463SOL    HW216968   7.629   4.019   1.330 -0.0445 -0.2380  0.4621
 5464SOL     OW16969   8.113   3.205   4.901  0.2098 -0.3493  0.0711
 5464SOL    HW116970   8.155   3.223   4.817  1.2988 -0.3780  0.5909
 5464SOL    HW216971   8.134   3.282   4.955 -0.3685 -0.3918  0.3638
 5465SOL     OW16972   6.951   8.667   6.429  0.6326  0.0153 -0.0803
 5465SOL    HW116973   6.918   8.746   6.472  0.9358 -0.0120  0.2031
 5465SOL    HW216974   6.875   8.632   6.384  0.1153 -0.3744  1.0571
 5466SOL     OW16975   4.112   7.350   6.231  0.0158 -0.2038 -0.2461
 5466SOL    HW116976   4.193   7.375   6.187 -0.1476  1.5273  0.3724
 5466SOL    HW216977   4.099   7.258   6.207  1.0009  0.0994 -2.1211
 5467SOL     OW16978   9.514   9.612   7.846 -0.0090 -0.3147 -0.3761
 5467SOL    HW116979   9.424   9.642   7.843  0.1023 -0.0691 -1.6523
 5467SOL    HW216980   9.545   9.637   7.933 -1.0581 -0.1115 -0.0481
 5468SOL     OW16981   5.003   2.495   9.740 -0.5348 -0.6416  0.1399
 5468SOL    HW116982   4.911   2.498   9.714 -1.0183  1.4273  1.8764
 5468SOL    HW216983   5.017   2.574   9.792  1.9459 -1.4719  0.8917
 5469SOL     OW16984   3.000   1.286   8.976 -0.2772  1.0567  0.0931
 5469SOL    HW116985   2.938   1.277   8.903 -0.8430  0.1303  0.6711
 5469SOL    HW216986   3.052   1.363   8.954  1.7634 -0.9868 -2.8987
 5470SOL     OW16987   7.084   5.003   4.594  0.3248  0.1247  0.2695
 5470SOL    HW116988   7.119   4.977   4.509 -0.5819 -1.7188  0.4256
 5470SOL    HW216989   6.992   4.976   4.592  0.2808  0.0741  1.8169
 5471SOL     OW16990   3.957   8.953   9.097  0.4258  0.6193  0.5219
 5471SOL    HW116991   3.881   8.958   9.155 -1.4819  2.4192 -1.9419
 5471SOL    HW216992   3.988   8.862   9.106 -3.8447 -1.1833 -0.5034
 5472SOL     OW16993   0.100   5.899   9.200 -0.1495 -0.4041  0.0705
 5472SOL    HW116994   0.060   5.820   9.236 -0.6453  0.0963  0.6521
 5472SOL    HW216995   0.098   5.962   9.273 -0.2383  0.3059 -0.5327
 5473SOL     OW16996   9.411   7.597   3.475 -0.2189  0.2001  0.5246
 5473SOL    HW116997   9.318   7.596   3.499 -0.2414 -0.3103  0.4327
 5473SOL    HW216998   9.411   7.596   3.379 -0.1228  1.3640  0.5068
 5474SOL     OW16999   8.815   4.334   1.196 -0.1750 -0.0035 -0.3836
 5474SOL    HW117000   8.825   4.242   1.220 -1.1304 -0.5280 -1.8970
 5474SOL    HW217001   8.808   4.380   1.280  0.2285 -1.3127  0.3885
 5475SOL     OW17002   5.978   0.916   7.448 -0.1476 -0.2241  0.0438
 5475SOL    HW117003   6.046   0.981   7.429  2.1849 -2.2365  0.9694
 5475SOL    HW217004   5.964   0.871   7.365 -0.0681 -0.0624 -0.0575
 5476SOL     OW17005   0.482   7.549   0.975 -0.3662 -0.2155 -0.8729
 5476SOL    HW117006   0.543   7.598   0.921  0.3081  0.8340  0.7793
 5476SOL    HW217007   0.537   7.490   1.027 -0.7864  0.2889  0.1759
 5477SOL     OW17008   2.751   6.713   9.390  0.3681 -0.7266 -0.5790
 5477SOL    HW117009   2.807   6.787   9.415  0.3602 -0.9480  0.1340
 5477SOL    HW217010   2.806   6.636   9.404  0.6459 -0.8264 -2.0856
 5478SOL     OW17011   8.666   2.909   0.408  0.1623 -0.0035  0.4153
 5478SOL    HW117012   8.659   2.855   0.329  4.1792  1.7378 -1.4316
 5478SOL    HW217013   8.720   2.856   0.467 -0.4346 -0.1451  0.8402
 5479SOL     OW17014   5.918   0.808   6.422 -0.4197  0.3164  0.3598
 5479SOL    HW117015   5.970   0.730   6.407  0.4850  0.9962 -0.1725
 5479SOL    HW217016   5.953   0.873   6.361 -0.8952  1.2504  1.0329
 5480SOL     OW17017   0.353   2.263   2.036 -0.8361  0.4875  0.4724
 5480SOL    HW117018   0.349   2.344   2.087  0.0095  0.2404  0.9539
 5480SOL    HW217019   0.424   2.276   1.974  0.5497 -0.5172  1.7550
 5481SOL     OW17020   2.195   5.117   0.193  0.0738  0.5368 -0.0511
 5481SOL    HW117021   2.173   5.086   0.281  0.7135 -2.1655 -0.7598
 5481SOL    HW217022   2.284   5.151   0.201  0.0897  0.4019  0.3574
 5482SOL     OW17023   0.616   9.205   3.260  0.1031  0.3856  0.3200
 5482SOL    HW117024   0.633   9.299   3.264  0.9132  0.2648 -0.0042
 5482SOL    HW217025   0.596   9.188   3.168  0.4721  0.1628  0.2788
 5483SOL     OW17026   8.926   4.241   2.026  0.8523 -0.3426 -0.2938
 5483SOL    HW117027   8.870   4.164   2.035 -0.3362  0.5012 -0.2227
 5483SOL    HW217028   8.935   4.253   1.931  0.0521  0.1046 -0.3231
 5484SOL     OW17029   1.210   6.076   5.449 -0.0925  0.1543  0.1059
 5484SOL    HW117030   1.220   6.068   5.354 -0.1727 -0.5307  0.1492
 5484SOL    HW217031   1.229   6.168   5.468 -1.7395  0.7100 -0.7896
 5485SOL     OW17032   8.317   1.628   3.301  0.1882 -0.5739  0.2854
 5485SOL    HW117033   8.396   1.667   3.336  1.4112 -1.5934 -1.2107
 5485SOL    HW217034   8.330   1.533   3.313 -0.3314 -0.8108 -0.8715
 5486SOL     OW17035   3.859   7.068   4.245  0.0237  0.1250 -0.1781
 5486SOL    HW117036   3.844   7.035   4.156 -1.7916 -0.0448  0.1448
 5486SOL    HW217037   3.861   7.163   4.237 -0.1766  0.1094 -0.4054
 5487SOL     OW17038   5.177   8.403   6.595 -0.3375 -0.1609  0.0746
 5487SOL    HW117039   5.209   8.355   6.671  0.0388  0.4786  0.3386
 5487SOL    HW217040   5.125   8.340   6.546 -1.4139 -0.3311  1.3638
 5488SOL     OW17041   7.729   9.310   8.466  0.2112 -0.3378  0.6562
 5488SOL    HW117042   7.757   9.397   8.438  1.7718 -0.3593  1.9863
 5488SOL    HW217043   7.686   9.324   8.550 -0.8094 -0.7174  0.2149
 5489SOL     OW17044   3.753   0.170   0.378 -0.0210  0.3085  0.5060
 5489SOL    HW117045   3.840   0.131   0.385 -0.1806  0.1624  2.1939
 5489SOL    HW217046   3.763   0.257   0.419 -0.7732  0.0754  1.2097
 5490SOL     OW17047   5.318   9.470   6.574 -0.0327 -0.6768 -0.0657
 5490SOL    HW117048   5.327   9.460   6.669 -0.7099 -0.9719 -0.0275
 5490SOL    HW217049   5.385   9.411   6.538 -0.1766 -1.0250  0.2229
 5491SOL     OW17050   2.902   5.561   7.540  0.0259 -0.1642 -0.1930
 5491SOL    HW117051   2.943   5.611   7.470 -0.3088  1.7024  0.8661
 5491SOL    HW217052   2.845   5.624   7.585  1.4711 -0.7828  2.7876
 5492SOL     OW17053   0.804   3.470   3.147  0.1484  0.5571  0.0108
 5492SOL    HW117054   0.777   3.507   3.062 -1.9052 -0.5655  0.1111
 5492SOL    HW217055   0.899   3.482   3.148 -0.0726  3.3731 -1.0846
 5493SOL     OW17056   9.229   0.846   8.229  0.3972 -0.0969 -0.0292
 5493SOL    HW117057   9.245   0.940   8.235 -0.2098  0.0311 -0.3005
 5493SOL    HW217058   9.139   0.839   8.195  0.9658 -0.7728 -1.4904
 5494SOL     OW17059   3.383   1.419   5.069 -0.1493 -0.1161  0.4461
 5494SOL    HW117060   3.413   1.509   5.075  1.5495 -0.5820 -0.4895
 5494SOL    HW217061   3.435   1.372   5.134  0.0046 -0.6678 -0.0654
 5495SOL     OW17062   4.127   0.050   1.929  0.1898  0.1532 -0.0720
 5495SOL    HW117063   4.075   0.105   1.872  0.2881 -0.1814 -0.4891
 5495SOL    HW217064   4.209   0.035   1.881 -0.2566 -1.2291 -0.4520
 5496SOL     OW17065   4.463   6.607   8.198 -0.5448  0.0468 -0.9610
 5496SOL    HW117066   4.398   6.537   8.209 -1.8447  1.4290  0.4908
 5496SOL    HW217067   4.425   6.665   8.133 -0.5127  0.5763 -0.5125
 5497SOL     OW17068   3.563   8.935   9.839 -0.8350  0.1708 -0.3161
 5497SOL    HW117069   3.633   8.961   9.898 -0.9061  0.6300 -0.4310
 5497SOL    HW217070   3.519   9.017   9.817  0.2321  0.2681 -2.3481
 5498SOL     OW17071   6.814   9.010   7.697 -0.2908 -0.4146 -0.1746
 5498SOL    HW117072   6.774   9.018   7.611  0.4595  1.3370 -0.4066
 5498SOL    HW217073   6.824   9.101   7.727 -1.3691 -0.9929  2.1569
 5499SOL     OW17074   3.878   7.347   6.538  0.2448  0.1888 -0.1791
 5499SOL    HW117075   3.931   7.267   6.532 -0.2507 -0.1218 -0.4445
 5499SOL    HW217076   3.799   7.319   6.584 -0.0280  0.4788 -0.4791
 5500SOL     OW17077   0.596  -0.005   0.282  0.1212 -0.2573  0.1121
 5500SOL    HW117078   0.526   0.056   0.262  0.4248  0.0285 -0.0794
 5500SOL    HW217079   0.627  -0.036   0.197 -0.3742 -1.0760  0.2156
 5501SOL     OW17080   3.959   2.556   9.182  0.1133 -0.2680 -0.1011
 5501SOL    HW117081   3.997   2.614   9.248 -1.2827 -1.2099  1.6137
 5501SOL    HW217082   4.000   2.471   9.199 -0.4231 -0.5665 -0.2960
 5502SOL     OW17083   2.430   8.552   1.985 -0.2329 -0.5500  0.1503
 5502SOL    HW117084   2.442   8.582   1.895 -1.3491 -0.1790  0.1116
 5502SOL    HW217085   2.500   8.488   1.999  1.2412  0.9234 -0.2749
 5503SOL     OW17086   4.043   6.243   4.371 -0.0484 -0.0651 -0.6877
 5503SOL    HW117087   3.989   6.225   4.295 -0.4959 -0.8205 -0.1970
 5503SOL    HW217088   4.065   6.157   4.407 -0.9475  0.2916  0.7929
 5504SOL     OW17089   5.490   4.833   4.703  0.2932 -0.9637  0.0871
 5504SOL    HW117090   5.441   4.839   4.785  1.6201 -0.1705  0.8357
 5504SOL    HW217091   5.422   4.820   4.636 -1.0817  1.5129  0.9021
 5505SOL     OW17092   1.121   2.402   6.370 -0.0699  0.2961 -0.1129
 5505SOL    HW117093   1.086   2.391   6.458  1.0700  0.4062  0.3742
 5505SOL    HW217094   1.045   2.427   6.317 -0.5285  1.7368  1.1337
 5506SOL     OW17095   3.145   9.885   4.954  0.0058  0.2737 -0.3452
 5506SOL    HW117096   3.160   9.811   5.012  1.6167 -1.2177 -2.5427
 5506SOL    HW217097   3.153   9.962   5.011  0.0515 -1.1481  1.6521
 5507SOL     OW17098   5.114   3.156   4.168  0.4592  0.6423 -0.0133
 5507SOL    HW117099   5.129   3.240   4.211  0.1132  0.5980  0.1970
 5507SOL    HW217100   5.058   3.177   4.093 -1.1941  0.3582  1.0895
 5508SOL     OW17101   0.883   3.936   9.412 -0.2972  0.2358 -0.0717
 5508SOL    HW117102   0.926   3.996   9.473  0.6523 -0.2863 -0.2189
 5508SOL    HW217103   0.897   3.975   9.326 -2.3447  1.4146  0.0488
 5509SOL     OW17104   9.916   2.167   4.686 -0.4831  0.2762  0.4943
 5509SOL    HW117105   9.950   2.197   4.771  0.5031  1.4218 -0.2726
 5509SOL    HW217106   9.854   2.234   4.660 -0.2098  0.3234 -0.0399
 5510SOL     OW17107   7.828   6.143   6.637  0.3203 -0.5605  0.1937
 5510SOL    HW117108   7.773   6.213   6.600  2.1652  0.5348 -0.6076
 5510SOL    HW217109   7.872   6.184   6.711  0.0620 -1.4449  0.8600
 5511SOL     OW17110   4.557   2.823   1.569  1.0586 -0.5323  0.7407
 5511SOL    HW117111   4.507   2.774   1.503  0.8000  2.5937 -1.6671
 5511SOL    HW217112   4.496   2.834   1.642  0.8925 -2.9841  1.0504
 5512SOL     OW17113   5.560   5.696   8.433  0.0081  0.0879  0.3122
 5512SOL    HW117114   5.545   5.717   8.341 -1.0226 -1.6845  0.0284
 5512SOL    HW217115   5.648   5.658   8.435 -0.2626 -0.5720 -0.0817
 5513SOL     OW17116   8.703   3.357   2.809 -0.2983 -0.0640  0.4905
 5513SOL    HW117117   8.693   3.421   2.880  2.5856  1.0823  0.0424
 5513SOL    HW217118   8.714   3.410   2.731 -0.1106 -1.1813 -0.2661
 5514SOL     OW17119   0.609   2.136   1.245 -0.2817  0.2180  1.3944
 5514SOL    HW117120   0.605   2.203   1.178  0.4241  0.0904  1.2232
 5514SOL    HW217121   0.656   2.177   1.318  0.8172 -0.3088  1.0115
 5515SOL     OW17122   3.321   5.854   6.835 -0.0731  0.2487  0.4310
 5515SOL    HW117123   3.387   5.878   6.900 -0.3090  1.5477  0.2339
 5515SOL    HW217124   3.270   5.935   6.823 -2.5738 -1.0537  1.5819
 5516SOL     OW17125   1.196   5.517   1.351 -0.0354  0.0343  0.8941
 5516SOL    HW117126   1.185   5.596   1.403 -0.5128  0.4723  0.1499
 5516SOL    HW217127   1.219   5.549   1.263  1.7744 -0.6983  1.0462
 5517SOL     OW17128   8.553   4.506   6.480 -0.7034  1.1023 -0.3259
 5517SOL    HW117129   8.548   4.419   6.442 -0.4223  1.5267 -1.3581
 5517SOL    HW217130   8.529   4.493   6.572  2.5686 -0.5941  0.4196
 5518SOL     OW17131   6.428   6.276   3.226  0.1869 -0.0187  0.0887
 5518SOL    HW117132   6.348   6.322   3.201 -0.9867 -1.8649  0.2299
 5518SOL    HW217133   6.470   6.252   3.144  0.5157  0.7459  0.0163
 5519SOL     OW17134   2.570   0.033   6.160  0.4357 -0.2229  0.1272
 5519SOL    HW117135   2.512  -0.033   6.198  1.8637 -2.5425 -1.4826
 5519SOL    HW217136   2.621   0.065   6.234  1.5918 -2.9885  0.6563
 5520SOL     OW17137   6.444   8.294   4.728 -0.0434  0.4861  0.5275
 5520SOL    HW117138   6.460   8.201   4.718 -1.5113  0.3107 -0.4169
 5520SOL    HW217139   6.498   8.335   4.660  0.1004  0.2737  0.5137
 5521SOL     OW17140   0.919   8.785   5.087 -0.1937  0.3008  0.2568
 5521SOL    HW117141   0.858   8.838   5.035  0.1740  0.4382 -0.0387
 5521SOL    HW217142   0.998   8.838   5.093  1.1151 -1.1691 -2.1560
 5522SOL     OW17143   2.877   8.008   1.588 -0.2400  0.4709 -0.1487
 5522SOL    HW117144   2.791   7.976   1.615 -0.4495  0.4927 -0.7681
 5522SOL    HW217145   2.929   7.929   1.576 -0.2986  0.4359 -0.1747
 5523SOL     OW17146   8.158   0.743   0.175  0.5820  0.0211  0.2844
 5523SOL    HW117147   8.134   0.730   0.267 -1.4498  1.0185 -0.0260
 5523SOL    HW217148   8.096   0.688   0.126  1.6867 -0.5550 -0.4922
 5524SOL     OW17149   2.771   8.666   6.509 -0.0966 -0.0461  0.3116
 5524SOL    HW117150   2.759   8.736   6.573 -0.3066  0.8806 -0.7228
 5524SOL    HW217151   2.702   8.602   6.532  1.2448 -0.8616  2.4170
 5525SOL     OW17152   3.605   1.320   8.941  0.4855  0.4641 -0.2184
 5525SOL    HW117153   3.682   1.376   8.930 -0.1312  1.3373 -0.2626
 5525SOL    HW217154   3.601   1.269   8.860 -0.2196  2.0322 -1.2366
 5526SOL     OW17155   9.279   2.054   8.392  0.1557 -0.1379 -0.2627
 5526SOL    HW117156   9.273   1.996   8.468 -2.2679  0.0133 -0.2753
 5526SOL    HW217157   9.348   2.014   8.337 -0.9106 -2.6354  0.0537
 5527SOL     OW17158   4.808   1.470   4.813  0.0972 -0.1842  0.2059
 5527SOL    HW117159   4.718   1.438   4.826 -0.2529  0.7698  0.2845
 5527SOL    HW217160   4.850   1.457   4.898  0.3216 -1.4880 -0.0978
 5528SOL     OW17161   0.930   4.267   0.729  0.0820  0.1255 -0.4158
 5528SOL    HW117162   0.967   4.212   0.660 -0.3902  2.0630 -2.3062
 5528SOL    HW217163   0.989   4.342   0.735  0.5913 -0.3673  1.9583
 5529SOL     OW17164   7.087   7.379   5.583 -0.0426 -0.4767  0.3123
 5529SOL    HW117165   7.029   7.363   5.657 -1.3205  1.2437 -0.2612
 5529SOL    HW217166   7.036   7.433   5.523  1.1737 -1.2951 -1.5618
 5530SOL     OW17167   1.581   2.432   4.687 -0.7178  0.5892 -0.4042
 5530SOL    HW117168   1.612   2.356   4.636 -3.0100  0.5657 -1.9183
 5530SOL    HW217169   1.584   2.504   4.624 -0.5387  1.3053  0.4216
 5531SOL     OW17170   9.918   0.440   4.176 -0.2949  0.6375 -0.0800
 5531SOL    HW117171   9.878   0.477   4.254  0.5450  0.2310  0.5709
 5531SOL    HW217172   9.855   0.374   4.146 -0.6266  0.7971  0.2549
 5532SOL     OW17173   7.482   1.867   3.800 -0.0572  0.7936 -0.1448
 5532SOL    HW117174   7.465   1.838   3.890  1.6075  0.6579  0.1523
 5532SOL    HW217175   7.558   1.925   3.807 -0.2269  1.2063 -1.4092
 5533SOL     OW17176   0.194   6.347   2.987 -0.1705 -0.2171  0.4661
 5533SOL    HW117177   0.251   6.281   2.946  2.6227  3.5661 -2.4735
 5533SOL    HW217178   0.242   6.373   3.066 -0.2258 -0.3093  0.5298
 5534SOL     OW17179   9.137   7.648   6.034 -0.4765 -0.1066 -0.4109
 5534SOL    HW117180   9.217   7.597   6.048 -1.4982 -1.4536  0.8658
 5534SOL    HW217181   9.122   7.643   5.940  0.0898 -1.2194 -0.4667
 5535SOL     OW17182   0.846   3.651   9.344  0.2310  0.0407  0.3371
 5535SOL    HW117183   0.843   3.598   9.423  3.0825  0.2760  0.7177
 5535SOL    HW217184   0.855   3.741   9.375  0.7218  0.2016 -0.2392
 5536SOL     OW17185   3.285   3.540   0.569 -0.6772  0.5768 -0.7197
 5536SOL    HW117186   3.308   3.447   0.577  1.4845  0.9418 -1.7697
 5536SOL    HW217187   3.255   3.549   0.478 -3.1009  0.5313  0.0299
 5537SOL     OW17188   1.591   4.307   6.423  0.0524 -0.0617 -0.1175
 5537SOL    HW117189   1.539   4.246   6.475 -0.4259  0.1386 -0.3595
 5537SOL    HW217190   1.614   4.377   6.485  0.4762 -0.4036  0.1211
 5538SOL     OW17191   9.660   7.159   2.037 -0.5080  0.2091  0.3376
 5538SOL    HW117192   9.678   7.074   2.075 -0.4360  0.3045  0.5185
 5538SOL    HW217193   9.592   7.143   1.971 -0.5964  0.0374  0.4722
 5539SOL     OW17194   0.905   6.988   6.429  0.1869  0.3131 -0.4027
 5539SOL    HW117195   0.882   7.073   6.466 -1.3226 -0.1848 -0.1185
 5539SOL    HW217196   0.830   6.966   6.373  1.7134  0.3371 -2.5518
 5540SOL     OW17197   8.772   4.698   8.240  0.2981  0.1343 -0.7963
 5540SOL    HW117198   8.806   4.628   8.296  0.4999  0.3298 -0.6719
 5540SOL    HW217199   8.754   4.656   8.156  1.2316  0.1108 -0.9933
 5541SOL     OW17200   9.402   8.665   7.574 -0.6471  0.2265  0.0015
 5541SOL    HW117201   9.438   8.734   7.519 -2.9953  1.9103  0.4060
 5541SOL    HW217202   9.307   8.677   7.567 -1.1294 -2.5283  0.6855
 5542SOL     OW17203   8.396   7.765   7.762 -0.9032  0.5136 -0.0048
 5542SOL    HW117204   8.408   7.859   7.767 -0.4824  0.3982  1.3787
 5542SOL    HW217205   8.485   7.730   7.750 -1.0747  0.2938 -0.6978
 5543SOL     OW17206   1.552   0.143   6.407 -0.0777 -0.3300 -0.0175
 5543SOL    HW117207   1.457   0.135   6.415 -0.0092 -0.0994  1.1901
 5543SOL    HW217208   1.569   0.237   6.409  0.0075 -0.1928 -2.8692
 5544SOL     OW17209   6.521   7.467   3.897 -0.2926 -0.2792  0.0650
 5544SOL    HW117210   6.547   7.425   3.815  0.3196  0.1351  0.0335
 5544SOL    HW217211   6.599   7.463   3.952 -0.3679  0.3864  0.2317
 5545SOL     OW17212   2.405   8.645   1.512  0.0947  0.6721 -0.0225
 5545SOL    HW117213   2.435   8.676   1.426 -0.5817 -1.0655 -0.9367
 5545SOL    HW217214   2.310   8.653   1.509  0.0679  0.6173  0.5661
 5546SOL     OW17215   6.514   4.258   0.708  0.2068 -0.2071 -0.5039
 5546SOL    HW117216   6.525   4.203   0.630 -0.1216 -1.4379  0.2875
 5546SOL    HW217217   6.599   4.254   0.752 -0.5417 -2.2895  0.9085
 5547SOL     OW17218   2.986   7.173   1.764 -0.2400 -0.1955  0.4165
 5547SOL    HW117219   2.931   7.114   1.817 -1.5400  0.8539  0.2892
 5547SOL    HW217220   3.067   7.124   1.751 -1.2230 -1.9220  0.4075
 5548SOL     OW17221   8.011   0.674   6.690 -0.0610 -0.1967 -0.8885
 5548SOL    HW117222   8.029   0.588   6.653 -0.4119 -0.1659 -1.1403
 5548SOL    HW217223   8.085   0.728   6.662 -0.2181 -0.2257 -1.3794
 5549SOL     OW17224   8.146  -0.002   0.255  1.6368 -0.5060 -0.5294
 5549SOL    HW117225   8.225   0.032   0.215  0.7017  2.0371 -0.3897
 5549SOL    HW217226   8.127   0.058   0.327 -0.2559 -1.1866 -0.3818
 5550SOL     OW17227   2.565   8.743   5.902 -0.3926  0.4313  0.3821
 5550SOL    HW117228   2.560   8.792   5.820 -3.6286  0.9784  0.8017
 5550SOL    HW217229   2.573   8.810   5.970 -1.5745  0.2407  0.7337
 5551SOL     OW17230   7.646   2.287   7.188 -0.3311  0.2329 -0.0961
 5551SOL    HW117231   7.702   2.364   7.176 -0.2143  0.2381  0.4661
 5551SOL    HW217232   7.633   2.254   7.099 -1.5961  1.7534 -0.5194
 5552SOL     OW17233   3.839   7.330   1.623 -0.3719 -0.1746  0.1818
 5552SOL    HW117234   3.812   7.297   1.709 -1.5122  1.8522  0.6703
 5552SOL    HW217235   3.772   7.296   1.563 -1.4199  0.9908  0.6449
 5553SOL     OW17236   9.429   6.149   4.565 -0.0569  0.0509 -0.6010
 5553SOL    HW117237   9.383   6.066   4.574  1.2357 -0.5300  1.1533
 5553SOL    HW217238   9.498   6.146   4.632  0.2060  2.4084 -0.6746
 5554SOL     OW17239   4.147   1.239   5.206 -0.3360 -0.0432  0.3567
 5554SOL    HW117240   4.232   1.281   5.193 -0.9154  0.9020 -0.7144
 5554SOL    HW217241   4.141   1.176   5.135 -0.4366 -0.2610  0.5598
 5555SOL     OW17242   8.420   8.105   5.737 -0.2009 -0.5064  0.6278
 5555SOL    HW117243   8.444   8.039   5.672 -0.6187 -0.7768  0.7406
 5555SOL    HW217244   8.324   8.109   5.733 -0.1308  1.0715 -0.3308
 5556SOL     OW17245   4.873   7.111   4.988 -0.2305 -0.1121 -0.0922
 5556SOL    HW117246   4.954   7.162   4.995 -0.1656 -0.1931 -0.2680
 5556SOL    HW217247   4.883   7.061   4.907 -0.6286  0.1733 -0.3177
 5557SOL     OW17248   1.722   8.503   4.864  0.9726 -0.0936  0.5128
 5557SOL    HW117249   1.787   8.572   4.880  0.4025  0.2389  1.5480
 5557SOL    HW217250   1.718   8.494   4.769  2.1160  0.2788  0.4221
 5558SOL     OW17251   6.983   5.486   6.233  0.1998 -0.1367 -0.0541
 5558SOL    HW117252   7.000   5.491   6.139  2.0873 -3.9893 -0.1024
 5558SOL    HW217253   7.007   5.573   6.266 -0.2266  1.2326 -2.9953
 5559SOL     OW17254   1.181   2.998   2.897 -0.2847 -0.1224 -0.1116
 5559SOL    HW117255   1.152   3.030   2.982  0.8451  1.1400 -0.1641
 5559SOL    HW217256   1.195   2.904   2.910  0.5943  0.1762  1.3306
 5560SOL     OW17257   4.582   2.764   5.032 -0.1593 -0.2699 -0.1995
 5560SOL    HW117258   4.493   2.798   5.041 -0.5711 -1.1819 -0.7042
 5560SOL    HW217259   4.578   2.703   4.959  1.4686  1.5110 -1.8996
 5561SOL     OW17260   6.805   9.053   0.814  0.4496 -0.5531 -0.0989
 5561SOL    HW117261   6.767   9.080   0.730  1.8777 -1.5344 -1.1116
 5561SOL    HW217262   6.893   9.092   0.814 -0.2465  1.2318  1.9502
 5562SOL     OW17263   0.559   0.175   8.591  0.3117  0.4142 -0.2012
 5562SOL    HW117264   0.511   0.229   8.528 -1.1156 -0.3190  0.2112
 5562SOL    HW217265   0.635   0.228   8.615 -0.1872  1.5410 -1.0228
 5563SOL     OW17266   0.845   0.560   3.690 -0.2946  0.7484 -0.6460
 5563SOL    HW117267   0.805   0.629   3.637 -1.3709  0.4897 -0.1836
 5563SOL    HW217268   0.813   0.479   3.651 -1.8609  0.5571  0.9368
 5564SOL     OW17269   1.963   9.500   5.192  0.4180  0.7166  0.0247
 5564SOL    HW117270   1.899   9.495   5.121  1.3029  0.7235 -0.8057
 5564SOL    HW217271   1.990   9.592   5.193  0.8015  0.6079 -0.0036
 5565SOL     OW17272   2.567   7.240   8.412  0.3499 -0.1737  0.1120
 5565SOL    HW117273   2.577   7.247   8.507  1.3838  0.6396 -0.0400
 5565SOL    HW217274   2.648   7.199   8.382 -0.4385 -1.4653 -0.3268
 5566SOL     OW17275   2.898   9.201   1.130  0.4361 -0.3392  0.5368
 5566SOL    HW117276   2.830   9.162   1.185  0.2885 -0.5999  0.1680
 5566SOL    HW217277   2.965   9.231   1.193 -0.2800  0.4559  0.9507
 5567SOL     OW17278   9.622   9.087   5.715  0.2567  0.1623 -0.2859
 5567SOL    HW117279   9.625   9.171   5.760  0.7863 -0.8075  1.6061
 5567SOL    HW217280   9.692   9.092   5.650 -0.0162  1.3286 -0.5081
 5568SOL     OW17281   5.563   7.985   6.784 -0.2521 -0.0960  0.0387
 5568SOL    HW117282   5.604   7.920   6.727 -1.4132 -0.8521  0.0147
 5568SOL    HW217283   5.470   7.981   6.761 -0.2610  2.1973 -0.5489
 5569SOL     OW17284   6.583   5.267   3.556  0.5290  0.3704  0.0492
 5569SOL    HW117285   6.524   5.310   3.617 -0.1382  1.1524 -1.1189
 5569SOL    HW217286   6.614   5.189   3.604  0.8528  1.4861  1.7568
 5570SOL     OW17287   4.038   1.755   2.049 -0.1042  0.3302  0.0480
 5570SOL    HW117288   3.975   1.819   2.081  1.6676  1.8534  0.6404
 5570SOL    HW217289   4.123   1.800   2.051  1.0228 -1.5841 -0.8350
 5571SOL     OW17290   4.741   6.812   1.944 -0.0529  0.3574  0.3695
 5571SOL    HW117291   4.717   6.900   1.973  0.3274  1.1536 -1.5377
 5571SOL    HW217292   4.660   6.762   1.950 -0.6393  1.2444  0.1224
 5572SOL     OW17293   3.008   8.081   6.353  0.2830 -0.2800 -0.1012
 5572SOL    HW117294   2.922   8.082   6.393  0.2414  0.2681 -0.1998
 5572SOL    HW217295   2.991   8.075   6.259  0.3155  0.9734 -0.2031
 5573SOL     OW17296   5.415   8.146   5.988  0.1539  0.2857 -0.7774
 5573SOL    HW117297   5.385   8.072   6.040  0.8534  2.2955  2.8471
 5573SOL    HW217298   5.483   8.110   5.932 -0.5648 -2.0517 -0.2706
 5574SOL     OW17299   7.314   3.850   3.073 -0.3383 -0.4082 -0.4419
 5574SOL    HW117300   7.242   3.832   3.013 -0.4488 -0.3282 -0.3313
 5574SOL    HW217301   7.385   3.792   3.042 -0.3197 -0.2056 -0.7834
 5575SOL     OW17302   2.459   1.193   7.155 -0.3682 -0.4149 -0.4217
 5575SOL    HW117303   2.552   1.192   7.176 -0.5994  0.6333  0.7278
 5575SOL    HW217304   2.422   1.118   7.201 -0.2298 -0.3107 -0.1393
 5576SOL     OW17305   8.831   6.443   7.162 -0.1358 -0.0147  0.1546
 5576SOL    HW117306   8.859   6.362   7.120  1.0962  0.1906  0.5480
 5576SOL    HW217307   8.849   6.511   7.098  0.6443  0.1575  0.5354
 5577SOL     OW17308   9.749   1.326   4.945  0.2669 -0.3263 -0.1236
 5577SOL    HW117309   9.681   1.323   5.013  0.5132  0.8398  0.1922
 5577SOL    HW217310   9.713   1.381   4.876  0.9133  0.3742  0.0844
 5578SOL     OW17311   7.656   0.390   1.508  0.1151 -0.4705  0.9476
 5578SOL    HW117312   7.597   0.409   1.435  2.3818 -0.4379 -1.0059
 5578SOL    HW217313   7.667   0.473   1.553 -0.4879 -0.2513  0.6988
 5579SOL     OW17314   1.507   6.484   0.311 -0.2041  0.3254  0.1561
 5579SOL    HW117315   1.568   6.550   0.278 -1.5665  1.8406  0.5512
 5579SOL    HW217316   1.561   6.427   0.366  0.8413  1.7305  0.6365
 5580SOL     OW17317   0.057   0.791   8.895  0.1338 -0.0598  0.0956
 5580SOL    HW117318   0.152   0.784   8.888  0.1258  1.3843 -5.2009
 5580SOL    HW217319   0.024   0.704   8.871  0.1354  0.0717 -0.3910
 5581SOL     OW17320   6.981   3.612   5.332 -0.0936 -0.2397  0.3235
 5581SOL    HW117321   6.990   3.536   5.273  0.6773 -0.9497  1.3099
 5581SOL    HW217322   6.938   3.576   5.410 -1.4603  0.7738  0.0533
 5582SOL     OW17323   7.574   3.836   0.603 -0.3427  0.3208  0.0715
 5582SOL    HW117324   7.534   3.795   0.679 -0.8317  0.3932 -0.1446
 5582SOL    HW217325   7.595   3.763   0.545 -0.0762  0.2757  0.2215
 5583SOL     OW17326   5.221   6.522   7.684  0.0132 -0.6301 -0.1859
 5583SOL    HW117327   5.284   6.451   7.699  1.6268  0.9497  0.9580
 5583SOL    HW217328   5.162   6.518   7.759  0.9268  0.0361  0.5887
 5584SOL     OW17329   0.652   8.599   8.628  0.6866 -0.1730  0.8211
 5584SOL    HW117330   0.741   8.569   8.610  0.6615  0.0208  0.3892
 5584SOL    HW217331   0.633   8.563   8.715  0.3585 -2.1423 -0.0158
 5585SOL     OW17332   6.901   1.035   3.882  0.0546 -0.7601 -0.0712
 5585SOL    HW117333   6.897   1.084   3.800  0.7207 -0.3100  0.1587
 5585SOL    HW217334   6.816   0.990   3.888 -1.6461  2.3222  0.9518
 5586SOL     OW17335   7.640   1.283   3.625  0.3011 -0.5185 -0.4045
 5586SOL    HW117336   7.719   1.261   3.674 -0.3518  0.4018  1.1563
 5586SOL    HW217337   7.669   1.347   3.560  0.6045  1.2618  1.3716
 5587SOL     OW17338   4.602   1.314   2.984  0.2201  0.5954  0.5836
 5587SOL    HW117339   4.678   1.316   2.926  0.0203 -0.9163  0.2116
 5587SOL    HW217340   4.544   1.249   2.944 -1.1788  1.5485  0.9839
 5588SOL     OW17341   2.042   3.822   6.887 -0.3331  0.6025 -0.0593
 5588SOL    HW117342   2.065   3.760   6.956 -0.4966  2.2990  1.6361
 5588SOL    HW217343   2.052   3.908   6.929  0.4246  1.7585 -2.4541
 5589SOL     OW17344   6.176   1.335   4.893  0.1414 -0.4600  1.0193
 5589SOL    HW117345   6.088   1.364   4.918 -0.0269  0.1310 -0.1957
 5589SOL    HW217346   6.163   1.250   4.852  0.1873 -0.5333  1.1543
 5590SOL     OW17347   9.408   7.424   2.213  0.9674 -0.0348  0.4384
 5590SOL    HW117348   9.450   7.472   2.284  0.6016  0.1219  0.5553
 5590SOL    HW217349   9.473   7.422   2.143  1.5573 -0.7014  0.9775
 5591SOL     OW17350   7.077   7.797   2.798  0.4151  0.1564 -0.2889
 5591SOL    HW117351   7.150   7.769   2.854  0.7236 -1.1599 -1.3100
 5591SOL    HW217352   7.069   7.728   2.733  0.0288  1.6164 -1.8552
 5592SOL     OW17353   9.044   5.092   0.488  0.5397 -0.2933 -0.1286
 5592SOL    HW117354   9.033   4.997   0.496 -1.2328 -0.1124 -0.1269
 5592SOL    HW217355   9.021   5.126   0.575 -1.6287  0.3173 -0.8775
 5593SOL     OW17356   7.672   3.531   0.168  0.5303 -0.4863  0.0932
 5593SOL    HW117357   7.595   3.475   0.157  2.2417 -3.0843  0.4781
 5593SOL    HW217358   7.658   3.575   0.252 -0.6923 -0.6536 -0.0078
 5594SOL     OW17359   7.269   1.230   4.725 -0.7003  0.2034  0.1953
 5594SOL    HW117360   7.307   1.142   4.719 -0.9536  0.0434  0.7521
 5594SOL    HW217361   7.331   1.287   4.681 -0.3288 -0.2015  0.1872
 5595SOL     OW17362   0.333   2.276   4.680 -0.0273  0.6510 -0.4419
 5595SOL    HW117363   0.287   2.326   4.613 -1.6959 -1.5421 -1.0755
 5595SOL    HW217364   0.269   2.267   4.751  0.3454 -0.2368 -0.2027
 5596SOL     OW17365   3.977   1.020   0.167  0.4681  0.0603 -0.2948
 5596SOL    HW117366   3.987   1.070   0.086 -1.8647  1.5032  0.2314
 5596SOL    HW217367   4.059   1.035   0.215  0.6716  1.6620 -1.0929
 5597SOL     OW17368   9.606   5.219   7.790 -0.0477  0.0814  0.1389
 5597SOL    HW117369   9.567   5.271   7.860  0.1064  0.4763 -0.0644
 5597SOL    HW217370   9.679   5.273   7.759  0.1948 -0.3165  0.0155
 5598SOL     OW17371   2.834   5.392   4.800 -0.1251  0.4842  0.1344
 5598SOL    HW117372   2.808   5.409   4.890  1.5222  0.6023  0.6136
 5598SOL    HW217373   2.878   5.472   4.772  3.8342 -1.2098  0.9412
 5599SOL     OW17374   9.949   4.914   0.904  0.4459  0.0032 -0.2588
 5599SOL    HW117375   9.942   5.003   0.937  1.4201 -0.2856  0.7927
 5599SOL    HW217376  10.042   4.899   0.891  0.5864 -1.5973  1.8698
 5600SOL     OW17377   7.070   1.641   6.005 -0.4431  0.2196  0.4966
 5600SOL    HW117378   7.161   1.668   6.002 -0.4737  0.2147 -0.7908
 5600SOL    HW217379   7.025   1.712   6.050 -0.2537  1.5699 -1.3582
 5601SOL     OW17380   8.175   7.904   4.683  0.1060 -0.2269  0.1958
 5601SOL    HW117381   8.141   7.977   4.734  3.5322  1.8411 -0.1230
 5601SOL    HW217382   8.213   7.845   4.748  1.2669  0.5955  0.3019
 5602SOL     OW17383   1.356   8.073   0.364  0.4221  0.4745 -0.7212
 5602SOL    HW117384   1.363   8.017   0.442 -1.2346  0.5125 -0.5061
 5602SOL    HW217385   1.377   8.015   0.291  0.7821  0.1153 -0.3390
 5603SOL     OW17386   1.822   3.232   3.883 -0.0895 -0.3352  0.5333
 5603SOL    HW117387   1.808   3.277   3.800 -1.6771 -1.6867  0.0158
 5603SOL    HW217388   1.834   3.302   3.947  0.6175  0.7376 -0.7143
 5604SOL     OW17389   0.662   5.745   6.624 -0.4770 -0.2226 -0.0579
 5604SOL    HW117390   0.621   5.814   6.675 -0.1129 -1.2643  1.7280
 5604SOL    HW217391   0.739   5.720   6.675  0.3499 -0.7858 -1.5235
 5605SOL     OW17392   0.714   6.806   9.385  0.0081 -0.0330 -0.4170
 5605SOL    HW117393   0.673   6.853   9.312 -0.0309 -0.8081 -0.9114
 5605SOL    HW217394   0.700   6.863   9.461  0.8023  1.1929 -1.1591
 5606SOL     OW17395   6.081   8.145   7.252 -0.4960  0.0886 -0.0505
 5606SOL    HW117396   6.009   8.166   7.192  0.1394 -1.3296 -1.4051
 5606SOL    HW217397   6.069   8.052   7.271 -0.8686  0.5800  2.3611
 5607SOL     OW17398   7.708   9.891   7.468  0.0731  0.6096 -0.6643
 5607SOL    HW117399   7.710   9.806   7.424 -1.2141  0.6979 -0.9487
 5607SOL    HW217400   7.760   9.948   7.412  2.0441 -0.2537  0.1931
 5608SOL     OW17401   8.889   4.094   5.492 -0.1157  0.6750 -0.3952
 5608SOL    HW117402   8.943   4.065   5.419  1.9628 -0.4537  1.4879
 5608SOL    HW217403   8.949   4.100   5.566 -1.9248  2.7915  1.0407
 5609SOL     OW17404   6.681   3.600   3.026  0.3333  0.0225 -0.5088
 5609SOL    HW117405   6.744   3.574   2.959  1.2881 -0.4772  0.5610
 5609SOL    HW217406   6.720   3.677   3.067  0.7433 -0.8537  0.8059
 5610SOL     OW17407   0.485   2.872   3.217  0.0888  0.2002 -0.1676
 5610SOL    HW117408   0.434   2.854   3.296  0.7651 -1.9528 -0.1509
 5610SOL    HW217409   0.440   2.825   3.147 -0.5139  2.0888 -1.1401
 5611SOL     OW17410   0.314   7.251   8.369  0.1479 -0.0700 -0.0901
 5611SOL    HW117411   0.259   7.319   8.409  0.7676 -0.1561  0.9407
 5611SOL    HW217412   0.367   7.218   8.441  0.8028 -0.7257 -0.8597
 5612SOL     OW17413   0.402   8.123   8.565  0.0516  0.1601 -0.0976
 5612SOL    HW117414   0.445   8.208   8.562  2.9279 -1.0139  2.3004
 5612SOL    HW217415   0.346   8.127   8.643 -1.3429  0.4474 -1.0894
 5613SOL     OW17416   5.954   1.643   2.798 -0.2597 -0.0783 -0.3242
 5613SOL    HW117417   5.956   1.547   2.797  0.8852 -0.1029  1.2415
 5613SOL    HW217418   5.944   1.666   2.890 -2.1704  1.3327 -0.8182
 5614SOL     OW17419   7.583   3.717   6.773 -0.0173  0.4993 -0.2528
 5614SOL    HW117420   7.660   3.663   6.752 -1.1317 -1.7245  1.0458
 5614SOL    HW217421   7.531   3.715   6.693  0.4212  0.4896 -0.5445
 5615SOL     OW17422   4.237   6.032   1.615 -0.4174  0.5093  0.5133
 5615SOL    HW117423   4.181   5.969   1.660  0.6708 -0.3890  0.6298
 5615SOL    HW217424   4.296   6.064   1.683  0.7759 -0.3384 -0.0972
 5616SOL     OW17425   4.023   7.542   6.404  0.1321  0.3498 -0.5163
 5616SOL    HW117426   4.071   7.484   6.345  1.6305 -0.3549  1.2651
 5616SOL    HW217427   3.973   7.483   6.461 -0.1592  0.9112 -0.1812
 5617SOL     OW17428   6.756   5.329   6.316  0.3772 -0.1296  0.0100
 5617SOL    HW117429   6.815   5.259   6.341  0.7452 -0.8266 -2.5292
 5617SOL    HW217430   6.812   5.394   6.273 -0.6351 -1.3529 -3.5678
 5618SOL     OW17431   0.636   1.971   5.533 -0.0587 -0.3093 -0.3276
 5618SOL    HW117432   0.622   1.908   5.604 -1.1886 -1.2537 -1.3307
 5618SOL    HW217433   0.646   1.917   5.455 -0.7893  0.7440 -1.1833
 5619SOL     OW17434   7.673   6.434   5.677 -0.0695 -0.0414 -0.3776
 5619SOL    HW117435   7.744   6.496   5.659 -0.3439  0.6311  0.7630
 5619SOL    HW217436   7.714   6.364   5.728 -0.0804  0.0021 -0.3086
 5620SOL     OW17437   0.833   2.601   4.422 -0.0237  0.3682 -0.0667
 5620SOL    HW117438   0.761   2.610   4.360  1.1354  1.9460 -1.2694
 5620SOL    HW217439   0.874   2.688   4.424  2.6785 -0.7981 -0.5170
 5621SOL     OW17440   6.065   5.697   9.076 -0.5776 -0.3359 -0.2147
 5621SOL    HW117441   5.992   5.726   9.132 -1.3928 -1.2407 -0.7804
 5621SOL    HW217442   6.140   5.747   9.108 -0.9648 -0.9643  1.8430
 5622SOL     OW17443   7.775   8.190   9.555  0.1690  0.2288  0.3653
 5622SOL    HW117444   7.724   8.116   9.586  0.7441 -0.8026 -1.0641
 5622SOL    HW217445   7.719   8.266   9.570 -0.8490 -0.6043  0.8852
 5623SOL     OW17446   3.836   3.186   8.020  0.3888  0.5873 -0.3392
 5623SOL    HW117447   3.803   3.253   7.961  0.6153  1.2514  0.2729
 5623SOL    HW217448   3.796   3.105   7.989  1.2746  0.7350 -2.0163
 5624SOL     OW17449   2.680   4.685   3.627  0.0450 -1.2224  0.1227
 5624SOL    HW117450   2.708   4.697   3.536  0.2206  0.2177  0.3476
 5624SOL    HW217451   2.755   4.713   3.679 -1.2065  1.3448  0.7178
 5625SOL     OW17452   0.871   0.719   0.970 -0.5415 -0.3220 -0.0729
 5625SOL    HW117453   0.892   0.626   0.973  1.3306  0.0008 -1.1706
 5625SOL    HW217454   0.823   0.730   0.888  0.3402 -0.1758 -0.5938
 5626SOL     OW17455   3.886   6.413   2.841 -0.3232 -0.1545  0.0985
 5626SOL    HW117456   3.972   6.375   2.853 -0.7328 -1.3630 -0.7033
 5626SOL    HW217457   3.869   6.458   2.924  0.8361 -0.3604  0.4675
 5627SOL     OW17458   1.303   3.237   2.689  0.2511 -0.6425  0.0266
 5627SOL    HW117459   1.318   3.320   2.735  0.7599  0.6406 -2.2865
 5627SOL    HW217460   1.245   3.187   2.747 -0.3352  1.4616  1.3542
 5628SOL     OW17461   9.200   4.514   5.984  0.1841  0.1835  0.2871
 5628SOL    HW117462   9.219   4.448   5.917 -1.2337  0.6887 -0.6573
 5628SOL    HW217463   9.285   4.543   6.014  0.8471 -1.2001 -0.1505
 5629SOL     OW17464   4.192   7.193   6.704  0.5394  0.5417  0.2510
 5629SOL    HW117465   4.269   7.235   6.666  0.9727 -1.4041 -1.1931
 5629SOL    HW217466   4.164   7.252   6.774  2.3678  2.0902 -0.2473
 5630SOL     OW17467   3.241   5.155   1.866  0.0144 -0.4928 -0.0128
 5630SOL    HW117468   3.251   5.141   1.960  1.5149  0.1032 -0.0561
 5630SOL    HW217469   3.315   5.109   1.826 -1.4493 -2.0483 -1.0618
 5631SOL     OW17470   6.134   0.140   5.035  0.0800 -0.0263 -0.2635
 5631SOL    HW117471   6.086   0.221   5.052  0.1344 -0.0318 -0.0812
 5631SOL    HW217472   6.107   0.113   4.947 -1.0272 -0.5734  0.2285
 5632SOL     OW17473   8.290   8.511   3.309  0.3490  0.3046  0.3177
 5632SOL    HW117474   8.348   8.528   3.383  0.2713 -0.2832  0.5236
 5632SOL    HW217475   8.347   8.515   3.232  0.2999  1.6054  0.3372
 5633SOL     OW17476   5.411   8.253   1.502  0.1949  0.2872 -0.0583
 5633SOL    HW117477   5.448   8.183   1.448  0.9587 -0.7748  1.7275
 5633SOL    HW217478   5.382   8.209   1.582 -1.8287  1.6385  0.0183
 5634SOL     OW17479   3.563   9.819   3.090  0.0022 -0.6003  0.3823
 5634SOL    HW117480   3.516   9.764   3.027 -0.2054 -0.4090  0.3694
 5634SOL    HW217481   3.557   9.907   3.053  1.8186 -0.7987 -0.4991
 5635SOL     OW17482   5.295   1.066   1.661 -1.0959  0.0935 -0.7618
 5635SOL    HW117483   5.243   1.096   1.736 -0.0917 -1.7536  0.7526
 5635SOL    HW217484   5.379   1.111   1.670 -0.3869 -1.3417  0.2365
 5636SOL     OW17485   0.328   6.791   6.098 -0.1274 -0.1964 -0.4327
 5636SOL    HW117486   0.393   6.783   6.168 -0.3017 -1.1094 -0.3635
 5636SOL    HW217487   0.344   6.715   6.042 -0.4922  0.1107 -0.9633
 5637SOL     OW17488   7.226   4.791   1.220  0.9074  0.8813  0.4070
 5637SOL    HW117489   7.313   4.818   1.191  0.4869  0.5918 -1.2349
 5637SOL    HW217490   7.243   4.726   1.288  1.9907  0.4626 -0.2295
 5638SOL     OW17491   1.830   2.333   5.608 -0.3473 -0.0008 -0.2855
 5638SOL    HW117492   1.763   2.284   5.656  0.0395 -0.6975 -0.4493
 5638SOL    HW217493   1.786   2.365   5.530 -1.0957  1.4809  0.7002
 5639SOL     OW17494   2.370   8.509   7.210 -0.1820  0.1395 -0.4930
 5639SOL    HW117495   2.393   8.593   7.251 -0.5318  0.1239 -0.2579
 5639SOL    HW217496   2.443   8.490   7.151  0.9401 -0.4337  1.0055
 5640SOL     OW17497   9.795   2.601   7.499 -0.2378 -0.1274  0.2904
 5640SOL    HW117498   9.785   2.559   7.414 -1.6022 -2.5211  1.5082
 5640SOL    HW217499   9.717   2.656   7.508  0.5094  1.0874 -0.4581
 5641SOL     OW17500   5.609   0.929   8.722 -0.1699 -0.0901  0.7003
 5641SOL    HW117501   5.583   0.951   8.811  0.4191 -0.7790  1.0478
 5641SOL    HW217502   5.626   0.835   8.724  0.7414  0.0494  0.0928
 5642SOL     OW17503   2.210   1.505   6.020 -0.1300 -0.0672 -0.5114
 5642SOL    HW117504   2.215   1.563   6.096 -1.5351  1.3569 -1.4434
 5642SOL    HW217505   2.236   1.419   6.054 -0.7091  0.5155  1.5671
 5643SOL     OW17506   0.578   0.420   7.387  0.2582 -0.0013 -0.1524
 5643SOL    HW117507   0.647   0.374   7.435  0.1803 -1.2323 -1.1475
 5643SOL    HW217508   0.621   0.451   7.307  0.1209  1.0296  0.1546
 5644SOL     OW17509   6.470   1.942   8.048  0.5017 -0.6566 -0.0095
 5644SOL    HW117510   6.502   1.949   7.958 -2.0093  1.0968 -0.8799
 5644SOL    HW217511   6.522   2.005   8.098 -0.3963  0.9848 -1.0533
 5645SOL     OW17512   2.117   3.013   5.270 -0.2589 -0.3818  0.4099
 5645SOL    HW117513   2.051   2.945   5.286 -1.0471  0.4687  0.8831
 5645SOL    HW217514   2.093   3.049   5.184 -1.3511  0.9404  1.2402
 5646SOL     OW17515   0.574   9.588   7.772  0.3417 -0.3971  0.0672
 5646SOL    HW117516   0.545   9.675   7.745  0.2729 -0.4060  0.1125
 5646SOL    HW217517   0.585   9.540   7.689 -1.7036 -1.0146  0.0996
 5647SOL     OW17518   2.242   4.610   7.748  0.5145  0.7599 -0.2506
 5647SOL    HW117519   2.265   4.550   7.819  0.0783 -1.3838 -1.8225
 5647SOL    HW217520   2.170   4.662   7.783 -0.4034 -0.9703  0.5618
 5648SOL     OW17521   9.221   7.812   4.451 -0.3771 -0.2705  0.1092
 5648SOL    HW117522   9.244   7.853   4.367 -1.7704 -0.3462 -0.3370
 5648SOL    HW217523   9.165   7.877   4.494 -0.3867 -0.5955  0.5893
 5649SOL     OW17524   8.958   6.170   8.642  0.1318  0.2311  0.0318
 5649SOL    HW117525   9.020   6.099   8.627 -0.3553 -0.2776  0.4068
 5649SOL    HW217526   9.013   6.248   8.647  0.6837 -0.1251 -0.2626
 5650SOL     OW17527   7.425   6.586   0.610 -0.1933 -0.3563  0.4455
 5650SOL    HW117528   7.343   6.604   0.656 -0.3254 -0.8621  0.4190
 5650SOL    HW217529   7.421   6.492   0.590 -0.1603 -0.1270 -0.6668
 5651SOL     OW17530   0.843   3.352   3.643 -0.0360  0.4077 -0.2938
 5651SOL    HW117531   0.864   3.308   3.561 -0.4598 -1.2420  0.4424
 5651SOL    HW217532   0.761   3.397   3.625 -0.5134 -0.5516 -0.5779
 5652SOL     OW17533   2.127   0.370   4.210  0.1848 -0.0955 -0.3375
 5652SOL    HW117534   2.123   0.445   4.151 -1.1113 -0.5259 -0.8203
 5652SOL    HW217535   2.167   0.301   4.158  0.0618 -0.1566 -0.3507
 5653SOL     OW17536   2.726   2.762   7.779  0.1037  0.1149  0.4299
 5653SOL    HW117537   2.743   2.717   7.862  1.3716  3.2218  2.0293
 5653SOL    HW217538   2.646   2.813   7.795 -0.6592 -0.5911 -0.9296
 5654SOL     OW17539   6.045   6.267   3.322 -0.8061 -0.7440  0.0509
 5654SOL    HW117540   6.054   6.172   3.322 -2.0080 -0.8664 -0.4927
 5654SOL    HW217541   6.100   6.297   3.250  0.8413 -0.8667  1.1951
 5655SOL     OW17542   0.982   5.352   0.274 -0.2390  0.7518  0.4233
 5655SOL    HW117543   1.055   5.403   0.238 -0.6435  2.4559  1.8868
 5655SOL    HW217544   0.924   5.337   0.200 -0.0562  2.3524 -0.0719
 5656SOL     OW17545   2.699   9.678   2.644 -0.1386  0.0241  0.0804
 5656SOL    HW117546   2.674   9.591   2.675 -0.1156  0.2718  0.8070
 5656SOL    HW217547   2.793   9.670   2.626 -0.2700 -0.2830 -0.5071
 5657SOL     OW17548   0.793   9.702   6.848  0.2264 -0.1045 -0.3142
 5657SOL    HW117549   0.847   9.767   6.802  1.1912  0.7588  1.8708
 5657SOL    HW217550   0.835   9.618   6.829  2.0571  0.4893  0.8691
 5658SOL     OW17551   2.761   1.111   2.763  0.2504  0.2036 -0.3491
 5658SOL    HW117552   2.763   1.159   2.680 -0.9713  3.0421  1.1341
 5658SOL    HW217553   2.668   1.100   2.782  0.4317 -3.0350 -0.6170
 5659SOL     OW17554   0.591   2.769   8.950  0.1881  0.2824  0.1903
 5659SOL    HW117555   0.520   2.832   8.963 -0.9442 -1.0786  0.8629
 5659SOL    HW217556   0.578   2.737   8.861  1.3869  1.6840 -0.5394
 5660SOL     OW17557   4.465   3.015   4.206 -0.3876 -0.1129 -0.1219
 5660SOL    HW117558   4.420   3.035   4.287  0.2542 -0.3661  0.3038
 5660SOL    HW217559   4.558   3.033   4.224 -0.1934 -0.4899 -0.6899
 5661SOL     OW17560   0.549   7.870   4.653 -0.2429 -0.2630 -0.5045
 5661SOL    HW117561   0.617   7.904   4.711 -0.5865 -0.1585 -0.1600
 5661SOL    HW217562   0.552   7.775   4.666 -0.1728 -0.2576 -0.4802
 5662SOL     OW17563   0.144   7.351   0.406 -0.6764  0.0594 -0.1088
 5662SOL    HW117564   0.182   7.337   0.492 -0.7786  2.2034  0.3505
 5662SOL    HW217565   0.059   7.307   0.409 -0.0926 -1.0675  0.3689
 5663SOL     OW17566   6.552   6.614   6.016  0.2050 -0.0141  0.2999
 5663SOL    HW117567   6.471   6.579   5.979 -0.1876 -0.0580  1.1850
 5663SOL    HW217568   6.619   6.590   5.952 -0.2684 -1.1561  0.1976
 5664SOL     OW17569   0.027   1.703   8.547 -0.0829  0.3426  0.4194
 5664SOL    HW117570   0.107   1.650   8.548 -0.6425 -0.6108 -1.3525
 5664SOL    HW217571   0.033   1.754   8.467 -1.9600 -0.9411 -0.6175
 5665SOL     OW17572   7.566   7.980   2.923 -0.2638 -0.3278  0.1880
 5665SOL    HW117573   7.625   7.913   2.888 -1.0196 -0.6012 -0.6163
 5665SOL    HW217574   7.482   7.960   2.883 -0.2501  1.8370 -1.0926
 5666SOL     OW17575   0.588   9.836   2.069  0.0673  0.0580  0.4191
 5666SOL    HW117576   0.554   9.782   2.141 -1.3394  0.5241  0.1318
 5666SOL    HW217577   0.614   9.772   2.002 -1.1897 -0.3062  0.2489
 5667SOL     OW17578   1.876   6.614   6.206 -0.0997 -0.1786  0.3540
 5667SOL    HW117579   1.878   6.679   6.136  0.6225 -1.3754 -0.7757
 5667SOL    HW217580   1.795   6.564   6.191  0.7247 -1.3096 -0.4845
 5668SOL     OW17581   7.019   3.370   1.338  0.7736  0.2497 -0.2446
 5668SOL    HW117582   6.992   3.425   1.412  3.1009  0.9009  0.1801
 5668SOL    HW217583   6.967   3.402   1.264 -0.3359  0.7451  0.7264
 5669SOL     OW17584   5.370   4.893   7.572  0.3436  0.5147 -0.3436
 5669SOL    HW117585   5.336   4.980   7.554  0.6002  0.4680 -1.0581
 5669SOL    HW217586   5.465   4.903   7.571  0.3728  0.2795 -0.1534
 5670SOL     OW17587   1.159   6.103   2.812  0.2573  0.1326 -0.5828
 5670SOL    HW117588   1.153   6.048   2.890 -3.5419  0.1301 -0.7172
 5670SOL    HW217589   1.218   6.055   2.754 -2.4338 -3.7086 -0.5057
 5671SOL     OW17590   7.369   7.838   7.243 -0.2465 -0.3687  0.1759
 5671SOL    HW117591   7.383   7.919   7.192  0.0872 -0.3771  0.2545
 5671SOL    HW217592   7.316   7.866   7.318 -0.6087 -0.3267 -0.0916
 5672SOL     OW17593   2.368   0.799   8.670 -0.0238  0.1711  0.5602
 5672SOL    HW117594   2.321   0.795   8.754  0.0887  0.6257  0.6488
 5672SOL    HW217595   2.308   0.762   8.607 -1.4065  2.6775  0.2777
 5673SOL     OW17596   3.836   7.034   7.367 -0.0472  0.4211 -0.0158
 5673SOL    HW117597   3.881   7.107   7.409  1.2022  1.0343 -2.2598
 5673SOL    HW217598   3.905   6.985   7.323 -1.2407 -0.2904 -1.1796
 5674SOL     OW17599   7.093   0.132   0.090 -0.0761  0.4545 -0.4999
 5674SOL    HW117600   7.093   0.062   0.156 -0.5049  1.1415  0.2389
 5674SOL    HW217601   7.119   0.211   0.138 -1.3510  1.1562 -0.9335
 5675SOL     OW17602   2.808   6.700   3.634 -0.5847  0.9540 -0.0973
 5675SOL    HW117603   2.817   6.616   3.589 -2.5673  0.7585 -0.2563
 5675SOL    HW217604   2.882   6.704   3.694 -0.8650 -1.3062  0.4963
 5676SOL     OW17605   9.539   0.839   1.103  0.1894  0.1376 -0.5556
 5676SOL    HW117606   9.456   0.880   1.129  0.4674  0.8890 -0.8283
 5676SOL    HW217607   9.538   0.755   1.148 -0.1423  0.6729  0.4896
 5677SOL     OW17608   2.155   1.804   7.711 -0.0471 -0.2394  0.0207
 5677SOL    HW117609   2.080   1.854   7.676  0.7331  1.9517  1.2930
 5677SOL    HW217610   2.135   1.793   7.803  2.4612  3.2229  1.1963
 5678SOL     OW17611   4.509   1.148   6.856 -0.4995 -0.1861 -0.4964
 5678SOL    HW117612   4.547   1.223   6.811 -0.8873  0.9114  0.9273
 5678SOL    HW217613   4.579   1.114   6.911 -0.8085  0.2327  0.1717
 5679SOL     OW17614   9.439   5.779   0.358 -0.0713 -0.2712 -0.0783
 5679SOL    HW117615   9.413   5.793   0.449 -0.2305  0.5697 -0.2443
 5679SOL    HW217616   9.528   5.813   0.352 -0.8440  1.7757 -0.7400
 5680SOL     OW17617   7.724   6.919   9.224 -0.2120  0.1246  1.0700
 5680SOL    HW117618   7.651   6.911   9.162 -0.8212 -1.1106  1.9194
 5680SOL    HW217619   7.724   6.837   9.272  1.9199 -0.0106  0.9315
 5681SOL     OW17620   3.892   5.418   7.888  0.2341  0.5137  0.0555
 5681SOL    HW117621   3.984   5.411   7.915 -0.4084  0.4052  2.4446
 5681SOL    HW217622   3.894   5.405   7.794  2.5656 -0.4070  0.1583
 5682SOL     OW17623   9.118   6.923   0.176 -0.6098  0.0943  0.3031
 5682SOL    HW117624   9.143   6.912   0.267  1.4838 -0.0674 -0.2378
 5682SOL    HW217625   9.106   6.834   0.143 -1.7625  0.1639  0.4954
 5683SOL     OW17626   6.561   9.682   8.476  0.2816  0.0606 -0.3862
 5683SOL    HW117627   6.466   9.692   8.490  0.4110  1.8313 -0.5877
 5683SOL    HW217628   6.593   9.640   8.555 -0.3573  1.5400  0.6999
 5684SOL     OW17629   8.884   0.325   2.614  0.1368  0.5673  0.2702
 5684SOL    HW117630   8.927   0.350   2.532 -1.3768  0.6674 -0.5355
 5684SOL    HW217631   8.915   0.236   2.631  1.8195  1.1745  0.5604
 5685SOL     OW17632   9.985   2.385   9.430 -0.0925 -0.1090  0.2651
 5685SOL    HW117633   9.905   2.332   9.433  0.4642 -0.9799  0.1231
 5685SOL    HW217634   9.959   2.466   9.386 -1.1369  0.0620  1.1528
 5686SOL     OW17635   1.996   8.033   0.942 -0.2312 -0.4216 -0.5055
 5686SOL    HW117636   1.958   8.086   1.012  1.8792  0.8190 -0.2179
 5686SOL    HW217637   1.924   8.020   0.880 -1.4094  0.8303  0.5376
 5687SOL     OW17638   6.332   7.963   5.515 -0.3370 -0.4490  0.3645
 5687SOL    HW117639   6.410   7.940   5.464 -1.4612 -2.5127 -0.4974
 5687SOL    HW217640   6.269   7.993   5.450  0.0385  2.4215  1.1700
 5688SOL     OW17641   4.701   7.764   5.576  0.3168  0.1487  0.3101
 5688SOL    HW117642   4.778   7.740   5.628  0.7086 -0.7901 -0.6656
 5688SOL    HW217643   4.646   7.686   5.577  0.5053 -0.0176 -0.9714
 5689SOL     OW17644   2.722   2.521   3.093  0.0363  0.9739  0.6650
 5689SOL    HW117645   2.711   2.518   2.998  0.1858  0.0889  0.6744
 5689SOL    HW217646   2.732   2.615   3.112  1.0127  1.0894 -0.3096
 5690SOL     OW17647   0.151   3.343   8.697 -0.6702 -0.2146  0.4415
 5690SOL    HW117648   0.078   3.378   8.748  0.1005  0.6498  1.0096
 5690SOL    HW217649   0.179   3.265   8.745  0.0505  0.5927  1.4055
 5691SOL     OW17650   4.635   2.971   4.496  0.3743 -0.0524  0.0072
 5691SOL    HW117651   4.689   2.962   4.574  0.1699  0.0761  0.1648
 5691SOL    HW217652   4.592   3.056   4.507  0.3053 -0.0572 -0.2199
 5692SOL     OW17653   7.021   3.245   8.514  0.4142  0.1010  0.3369
 5692SOL    HW117654   7.100   3.210   8.554  0.2365 -0.1046  0.5105
 5692SOL    HW217655   6.968   3.275   8.587  0.5917  0.7933  0.1880
 5693SOL     OW17656   6.842   8.162   8.957 -0.3857  0.3370 -1.0511
 5693SOL    HW117657   6.752   8.177   8.925  0.0596  1.4931 -1.8492
 5693SOL    HW217658   6.845   8.069   8.977 -2.7862  0.7586  2.2122
 5694SOL     OW17659   6.384   9.431   2.690  0.3213 -0.2904 -0.3664
 5694SOL    HW117660   6.414   9.341   2.678 -1.2303 -0.7216 -1.2277
 5694SOL    HW217661   6.303   9.436   2.640 -0.3103  1.2149  0.7501
 5695SOL     OW17662   8.457   2.203   8.550  0.0456 -0.4280  0.6806
 5695SOL    HW117663   8.491   2.187   8.462 -0.7546 -0.6037  0.3984
 5695SOL    HW217664   8.369   2.165   8.549 -1.2532  2.3435  0.5270
 5696SOL     OW17665   4.995   9.943   4.679 -0.4032  0.1912  0.1680
 5696SOL    HW117666   4.949   9.979   4.754 -0.9641 -1.8867  0.8872
 5696SOL    HW217667   4.951   9.981   4.603 -0.3181  1.7332  0.8436
 5697SOL     OW17668   7.011   9.239   6.545  0.6120  0.1591 -0.4466
 5697SOL    HW117669   6.923   9.210   6.565  0.6583 -0.7277 -1.4266
 5697SOL    HW217670   7.001   9.331   6.520 -0.0838 -0.0305 -0.8890
 5698SOL     OW17671   3.338   5.653   5.563  0.0664 -0.6755  0.0082
 5698SOL    HW117672   3.243   5.666   5.554  0.2659 -0.0580 -1.3882
 5698SOL    HW217673   3.354   5.569   5.520  0.3872  0.0723 -1.3660
 5699SOL     OW17674   4.720   7.303   5.776  0.0640 -0.0825  0.2572
 5699SOL    HW117675   4.794   7.310   5.836  0.5788  1.7001 -0.5049
 5699SOL    HW217676   4.730   7.218   5.734  0.4764 -0.7535  1.6728
 5700SOL     OW17677   7.351   5.399   0.921  0.4492 -0.5534 -0.1415
 5700SOL    HW117678   7.284   5.461   0.948 -0.4191  0.1052 -3.4026
 5700SOL    HW217679   7.315   5.313   0.943  0.6805 -0.0773  2.3628
 5701SOL     OW17680   8.368   6.545   9.742  0.3842  0.0394 -0.0856
 5701SOL    HW117681   8.334   6.457   9.728  0.6221  0.3852 -3.6928
 5701SOL    HW217682   8.460   6.532   9.763 -0.0174 -0.5741  1.4555
 5702SOL     OW17683   5.373   9.438   7.458 -0.0008 -0.0211  0.2468
 5702SOL    HW117684   5.453   9.393   7.432 -0.6096 -1.0642  0.1000
 5702SOL    HW217685   5.347   9.488   7.380  0.3886  0.1508  0.2267
 5703SOL     OW17686   7.130   9.817   5.129  0.0919 -0.1955 -0.1197
 5703SOL    HW117687   7.105   9.756   5.199  0.8757 -1.0997 -0.6115
 5703SOL    HW217688   7.192   9.876   5.171 -0.8653  0.4565  0.4265
 5704SOL     OW17689   0.409   8.934   1.300  0.2712  0.3164 -0.0774
 5704SOL    HW117690   0.313   8.932   1.303  0.2843  0.2552  0.3669
 5704SOL    HW217691   0.431   9.023   1.273  0.0779  0.1678 -0.7400
 5705SOL     OW17692   4.572   1.510   2.256 -0.3643 -0.7392 -0.5704
 5705SOL    HW117693   4.513   1.434   2.250 -1.1564 -0.0925 -1.4144
 5705SOL    HW217694   4.548   1.564   2.180  0.9624 -0.1904 -0.6230
 5706SOL     OW17695   1.441   0.890   8.868 -0.4793 -0.0963 -0.4282
 5706SOL    HW117696   1.489   0.897   8.785  1.0981 -0.6777  0.3770
 5706SOL    HW217697   1.509   0.900   8.935 -1.1331 -2.8450  0.7821
 5707SOL     OW17698   2.703   0.962   6.733 -0.2168  0.7189  0.0876
 5707SOL    HW117699   2.717   0.935   6.824 -0.4664  2.6023  0.7399
 5707SOL    HW217700   2.651   0.891   6.694 -0.9173  0.3006  1.6879
 5708SOL     OW17701   5.340   3.552   8.049 -0.6365 -0.3751 -0.7122
 5708SOL    HW117702   5.273   3.613   8.017 -0.3681 -0.6923 -1.9413
 5708SOL    HW217703   5.337   3.479   7.987  0.1950 -0.8324 -0.2233
 5709SOL     OW17704   0.890   4.145   3.005  0.3567  0.1959 -0.6287
 5709SOL    HW117705   0.888   4.061   3.051  0.2150  0.3686 -0.3158
 5709SOL    HW217706   0.815   4.194   3.040  1.9867  1.5294  1.2905
 5710SOL     OW17707   4.963   2.173   3.884 -0.3730 -0.5249 -0.3405
 5710SOL    HW117708   4.936   2.263   3.868  0.3853 -0.3297 -0.5749
 5710SOL    HW217709   5.057   2.179   3.899 -0.2067 -1.3560 -0.9907
 5711SOL     OW17710   6.346   1.893   4.772 -0.2098 -0.5785  0.4988
 5711SOL    HW117711   6.375   1.984   4.771  0.2872 -0.7347  0.3792
 5711SOL    HW217712   6.277   1.889   4.705 -1.3404  0.0502  1.5780
 5712SOL     OW17713   5.662   9.785   6.706  0.2915 -0.2147 -0.1440
 5712SOL    HW117714   5.572   9.818   6.704 -0.5322 -2.3315 -0.5167
 5712SOL    HW217715   5.668   9.737   6.789  1.9538  2.0391  1.1362
 5713SOL     OW17716   2.993   6.080   1.958 -0.1337 -0.4590  0.3744
 5713SOL    HW117717   3.047   6.004   1.977 -1.1262 -1.4832 -0.7416
 5713SOL    HW217718   3.055   6.152   1.951  0.9511 -1.3673  0.3767
 5714SOL     OW17719   5.348   7.474   4.911 -0.8492 -0.0660 -0.0818
 5714SOL    HW117720   5.256   7.500   4.916 -1.1499 -1.2381  1.9210
 5714SOL    HW217721   5.389   7.516   4.987  0.3013  0.4790 -0.9738
 5715SOL     OW17722   5.018   0.159   8.422  0.1761 -0.0361  0.3654
 5715SOL    HW117723   5.021   0.099   8.348 -1.5386  1.4953 -1.0179
 5715SOL    HW217724   4.958   0.118   8.484  0.3433 -0.5324  0.2069
 5716SOL     OW17725   6.301   2.416   8.546 -0.2353  0.3210 -0.0298
 5716SOL    HW117726   6.364   2.373   8.488 -1.7630 -1.9104 -0.1571
 5716SOL    HW217727   6.217   2.375   8.524 -1.4172  1.8139  1.4716
 5717SOL     OW17728   6.466   3.506   1.646 -0.2483 -0.3669  0.0812
 5717SOL    HW117729   6.402   3.435   1.633 -0.4965 -0.2464  0.6361
 5717SOL    HW217730   6.416   3.575   1.689  0.0749  0.0253 -0.1700
 5718SOL     OW17731   1.514   8.723   1.618 -0.0449  0.3683  0.0032
 5718SOL    HW117732   1.583   8.685   1.563 -0.1816  1.1033 -0.6958
 5718SOL    HW217733   1.558   8.745   1.700 -0.1855 -2.3082  0.9041
 5719SOL     OW17734   5.859   9.421   2.332  0.1985 -0.2654  0.6883
 5719SOL    HW117735   5.913   9.360   2.280 -0.9118 -0.3796 -0.3654
 5719SOL    HW217736   5.770   9.389   2.321 -0.3918  1.4599  0.2645
 5720SOL     OW17737   9.017   9.751   1.361 -0.1197 -0.3264  0.4045
 5720SOL    HW117738   8.957   9.783   1.293  0.4155 -1.5141 -0.6652
 5720SOL    HW217739   9.084   9.819   1.367  0.7293 -0.9239 -1.4822
 5721SOL     OW17740   5.355   6.676   8.958  0.3946  0.0128  0.4612
 5721SOL    HW117741   5.260   6.664   8.969  0.8431 -3.5083  1.4306
 5721SOL    HW217742   5.382   6.604   8.902  3.0432 -1.5987  3.5104
 5722SOL     OW17743   1.134   7.607   5.228 -0.0472  0.1331  0.0940
 5722SOL    HW117744   1.198   7.678   5.234 -1.1197  0.9979  3.0418
 5722SOL    HW217745   1.073   7.624   5.300 -0.6118 -3.5652  0.6582
 5723SOL     OW17746   8.394   5.651   3.973 -0.3320  0.0807  0.2371
 5723SOL    HW117747   8.462   5.588   3.951 -0.5654 -0.3716  0.7616
 5723SOL    HW217748   8.364   5.623   4.060  0.0957  1.3783  0.8137
 5724SOL     OW17749   4.024   0.421   7.654  0.3430 -0.0357 -0.2437
 5724SOL    HW117750   4.021   0.333   7.617  0.6594 -0.0238 -0.2988
 5724SOL    HW217751   4.105   0.423   7.705 -1.1802 -0.8222  2.4013
 5725SOL     OW17752   4.210   0.556   3.133 -0.3353  0.1997  0.4382
 5725SOL    HW117753   4.118   0.537   3.113 -1.2012  2.6148  1.7278
 5725SOL    HW217754   4.254   0.552   3.048 -2.0713  1.1090 -0.5514
 5726SOL     OW17755   4.852   6.461   0.663 -0.5741  0.0021  0.3343
 5726SOL    HW117756   4.821   6.382   0.707 -1.5783 -0.1132 -0.5475
 5726SOL    HW217757   4.821   6.453   0.573  2.5376 -0.3865 -0.8337
 5727SOL     OW17758   9.016   8.300   0.310  0.5091  0.6529  0.3192
 5727SOL    HW117759   9.072   8.226   0.288  0.7533  0.5232  1.3144
 5727SOL    HW217760   8.979   8.328   0.227  0.1981 -0.7533 -0.0427
 5728SOL     OW17761   3.483   8.222   7.361  0.3554  0.0070  0.0498
 5728SOL    HW117762   3.421   8.207   7.290 -0.8654  0.7763  0.9114
 5728SOL    HW217763   3.469   8.149   7.421  1.0895 -0.4180 -0.2838
 5729SOL     OW17764   5.779   0.234   9.281 -0.0354  0.8517  0.2925
 5729SOL    HW117765   5.733   0.255   9.362  2.2942  1.3655  1.5571
 5729SOL    HW217766   5.865   0.275   9.291  1.3847 -1.5613 -1.1438
 5730SOL     OW17767   0.146   9.756   9.055 -0.5636  0.4353 -0.2900
 5730SOL    HW117768   0.215   9.816   9.025 -0.9301  0.7656 -0.4964
 5730SOL    HW217769   0.186   9.706   9.126 -0.5384  1.6018  0.5518
 5731SOL     OW17770   3.002   0.230   5.312 -0.7285 -0.2752 -0.2816
 5731SOL    HW117771   2.928   0.269   5.360 -0.6251 -0.7623  0.2868
 5731SOL    HW217772   3.025   0.152   5.363  1.5251  0.9727  0.7439
 5732SOL     OW17773   7.720   3.057   3.453 -0.1517 -0.3791  0.2762
 5732SOL    HW117774   7.726   2.963   3.435  0.3859 -0.4908  1.0024
 5732SOL    HW217775   7.650   3.088   3.395 -1.1194 -1.4399  0.8408
 5733SOL     OW17776   8.680   7.609   3.315  0.2991  0.3038  0.3378
 5733SOL    HW117777   8.682   7.704   3.313  0.4337  0.2886 -0.4202
 5733SOL    HW217778   8.604   7.586   3.261  1.7772 -0.0729 -1.7056
 5734SOL     OW17779   2.969   4.612   1.475 -0.1019 -0.3405  0.3920
 5734SOL    HW117780   2.941   4.688   1.526  2.4932  0.6335  0.4957
 5734SOL    HW217781   2.909   4.543   1.501 -1.6675  1.2799  1.3557
 5735SOL     OW17782   4.759   0.721   7.590 -0.0988  0.1968 -0.0886
 5735SOL    HW117783   4.721   0.641   7.554  1.0380 -0.4466  0.0813
 5735SOL    HW217784   4.821   0.750   7.523  0.4227  0.2206  0.3992
 5736SOL     OW17785   5.060   7.593   3.716  0.1106 -0.0453  0.0988
 5736SOL    HW117786   5.093   7.647   3.788 -0.7597  2.1588 -1.0802
 5736SOL    HW217787   5.139   7.567   3.668  0.5831 -0.2867  0.9901
 5737SOL     OW17788   1.469   3.636   9.474 -0.0192  0.2542  1.2078
 5737SOL    HW117789   1.374   3.643   9.484 -0.0653 -0.2603  1.1827
 5737SOL    HW217790   1.495   3.571   9.540  0.1790 -0.3380  0.5582
 5738SOL     OW17791   5.429   1.965   0.042  0.2449 -0.5336  0.1588
 5738SOL    HW117792   5.389   1.941  -0.042  2.3522 -1.3008 -0.6954
 5738SOL    HW217793   5.507   2.016   0.017 -0.7892  2.0105  1.7832
 5739SOL     OW17794   2.346   9.398   2.457 -0.4862  0.6761 -0.3783
 5739SOL    HW117795   2.420   9.438   2.411 -0.4766  0.8457 -0.2175
 5739SOL    HW217796   2.317   9.328   2.399 -0.4193  0.8319 -0.6032
 5740SOL     OW17797   8.660   9.398   9.742 -0.2045  0.4664  0.1700
 5740SOL    HW117798   8.593   9.405   9.810  0.0105 -0.3655  0.4859
 5740SOL    HW217799   8.657   9.482   9.696 -1.9445  0.2018 -0.2835
 5741SOL     OW17800   2.342   4.345   5.549  0.5021 -0.2988 -0.0520
 5741SOL    HW117801   2.319   4.271   5.494  0.9635  0.1989 -0.9444
 5741SOL    HW217802   2.270   4.407   5.539  0.3227 -0.4338  0.3550
 5742SOL     OW17803   5.247   7.240   5.340  0.0857  0.0485  0.1555
 5742SOL    HW117804   5.283   7.168   5.287 -2.3983 -0.4528 -1.0155
 5742SOL    HW217805   5.155   7.216   5.353 -0.1932  1.8223  1.8970
 5743SOL     OW17806   5.014   5.275   1.144  0.3807  0.0147 -0.1988
 5743SOL    HW117807   4.963   5.312   1.072  0.8519 -0.6260 -0.8765
 5743SOL    HW217808   5.046   5.191   1.110  2.9584  0.9395 -0.3061
 5744SOL     OW17809   4.648   3.541   6.479  0.3035  0.6026  0.5650
 5744SOL    HW117810   4.610   3.458   6.450  3.5435 -0.9516  0.3134
 5744SOL    HW217811   4.597   3.565   6.556 -1.7311 -0.7444 -0.2641
 5745SOL     OW17812   0.874   4.663   0.979  0.1157  0.3954  0.4141
 5745SOL    HW117813   0.862   4.631   1.069  0.7949  1.7344  1.0143
 5745SOL    HW217814   0.800   4.626   0.931  0.9093 -2.1138  0.9933
 5746SOL     OW17815   0.042   6.722   7.675  0.2021 -0.7022 -0.0894
 5746SOL    HW117816  -0.036   6.735   7.728  0.9794 -2.8555  1.7950
 5746SOL    HW217817   0.111   6.768   7.722  1.0118 -3.0888  1.2483
 5747SOL     OW17818   8.039   5.817   5.020 -0.6911  0.1363  0.4092
 5747SOL    HW117819   8.002   5.782   5.101  2.0549  1.4309  2.4031
 5747SOL    HW217820   8.022   5.911   5.025  1.3522  0.5421  0.6497
 5748SOL     OW17821   7.400   6.896   4.264  0.1925 -0.5215  0.2380
 5748SOL    HW117822   7.461   6.853   4.324 -0.6792 -0.6582  1.0401
 5748SOL    HW217823   7.433   6.986   4.257  2.3025 -1.3342 -1.8121
 5749SOL     OW17824   6.881   5.727   7.629  0.8461  0.1660  0.3932
 5749SOL    HW117825   6.823   5.679   7.688  0.8959 -1.5521 -0.8713
 5749SOL    HW217826   6.830   5.804   7.602 -0.8139 -1.1800 -0.5176
 5750SOL     OW17827   7.601   7.644   5.300  0.0175 -0.4746 -0.0074
 5750SOL    HW117828   7.666   7.708   5.270 -1.7316  0.9121 -0.9989
 5750SOL    HW217829   7.583   7.590   5.223 -0.7452 -0.1721 -0.0527
 5751SOL     OW17830   8.658   4.482   7.142 -0.1720  0.1094  0.8841
 5751SOL    HW117831   8.626   4.489   7.232 -0.7087 -0.9476  0.7957
 5751SOL    HW217832   8.586   4.516   7.089 -0.3201 -0.3202  0.8022
 5752SOL     OW17833   3.871   0.046   5.020  0.1308 -0.0880  0.6243
 5752SOL    HW117834   3.872   0.134   5.058  1.2157  0.6536 -1.0142
 5752SOL    HW217835   3.780   0.034   4.992  0.3528  1.3155 -0.8383
 5753SOL     OW17836   1.049   8.558   6.636 -0.0464 -0.4425  0.1853
 5753SOL    HW117837   1.117   8.607   6.590 -1.2376  0.3413 -0.8056
 5753SOL    HW217838   1.062   8.580   6.728  0.5469  0.3474 -0.0742
 5754SOL     OW17839   9.456   7.018   6.533  0.4784 -0.3094  0.0000
 5754SOL    HW117840   9.498   7.044   6.615 -0.4895 -1.0826  0.7842
 5754SOL    HW217841   9.523   6.969   6.486  1.6242  1.6822 -0.5291
 5755SOL     OW17842   2.533   4.835   2.083 -0.4605 -0.0801  0.2937
 5755SOL    HW117843   2.565   4.779   2.153  1.4244  0.8375  0.2467
 5755SOL    HW217844   2.438   4.839   2.096 -0.5301 -2.3652  0.9171
 5756SOL     OW17845   0.452   8.822   5.700 -0.0244 -0.2771 -0.5087
 5756SOL    HW117846   0.410   8.737   5.714 -1.0433  0.3264  0.2605
 5756SOL    HW217847   0.538   8.801   5.665 -0.4661 -1.6087 -0.8640
 5757SOL     OW17848   1.059   3.655   1.156  0.2741  0.2933 -0.5884
 5757SOL    HW117849   1.046   3.561   1.172  2.1267  0.2374  1.0341
 5757SOL    HW217850   1.030   3.669   1.066  0.2017 -1.8881 -0.9554
 5758SOL     OW17851   6.790   8.687   1.946  0.3954  0.0826  0.4921
 5758SOL    HW117852   6.845   8.729   1.880  0.2984  0.6484  0.7642
 5758SOL    HW217853   6.702   8.687   1.909  0.4620 -0.2432  0.3275
 5759SOL     OW17854   6.511   3.008   1.289  0.0310  0.2394 -0.2808
 5759SOL    HW117855   6.515   2.929   1.342 -1.0042  0.7163  0.5426
 5759SOL    HW217856   6.419   3.016   1.264  0.3275  0.5652 -1.3348
 5760SOL     OW17857   0.685   9.803   1.442  0.5231 -0.2800 -0.2674
 5760SOL    HW117858   0.652   9.791   1.531 -0.5123 -2.0466 -0.8635
 5760SOL    HW217859   0.781   9.802   1.452  0.4185 -0.4365  0.8170
 5761SOL     OW17860   3.026   5.134   0.383 -0.5767 -0.1132  0.0783
 5761SOL    HW117861   3.061   5.222   0.370 -0.8704  0.0591  0.4403
 5761SOL    HW217862   3.101   5.082   0.412 -0.1378 -0.2603 -1.2439
 5762SOL     OW17863   5.874   3.414   2.814 -0.2705  0.4019 -0.2883
 5762SOL    HW117864   5.932   3.472   2.862 -1.8400  1.7582  0.0677
 5762SOL    HW217865   5.874   3.447   2.724  1.6682 -1.3550 -1.0153
 5763SOL     OW17866   5.259   3.086   0.107 -0.6252 -0.2645  0.6268
 5763SOL    HW117867   5.194   3.095   0.037 -0.0399  1.3929  0.2635
 5763SOL    HW217868   5.333   3.043   0.065 -0.7545 -0.4133  0.5493
 5764SOL     OW17869   6.316   2.698   2.320  0.5935 -0.2233 -0.0006
 5764SOL    HW117870   6.310   2.602   2.322  0.4838 -0.2431  2.7641
 5764SOL    HW217871   6.229   2.727   2.350  0.9779  0.6953  0.2418
 5765SOL     OW17872   2.412   2.026   4.206  0.4954  0.1792  0.1463
 5765SOL    HW117873   2.472   2.013   4.280  0.4771  0.0474  0.1375
 5765SOL    HW217874   2.443   2.106   4.165 -0.0642  0.7691  0.8446
 5766SOL     OW17875   8.690   7.103   9.063 -0.1994  0.1822 -0.2522
 5766SOL    HW117876   8.629   7.037   9.095  0.0397 -0.1719 -0.5081
 5766SOL    HW217877   8.659   7.123   8.974  0.8345 -1.0162 -0.9189
 5767SOL     OW17878   7.179   3.237   0.837 -0.1470  0.8921 -0.8497
 5767SOL    HW117879   7.119   3.163   0.843  0.5386  0.4479  1.4103
 5767SOL    HW217880   7.134   3.308   0.883  0.9491  0.5846  0.7783
 5768SOL     OW17881   9.059   5.849   1.113  0.0630 -0.6124  0.2691
 5768SOL    HW117882   8.989   5.806   1.162 -0.2440  2.0753  2.4395
 5768SOL    HW217883   9.124   5.874   1.179  1.1942  0.4017 -1.1469
 5769SOL     OW17884   4.194   8.176   2.333 -0.1003 -0.4024 -0.0339
 5769SOL    HW117885   4.246   8.120   2.390  1.1155 -2.7120 -3.2099
 5769SOL    HW217886   4.103   8.161   2.361  0.4234 -1.7698  1.0027
 5770SOL     OW17887   1.916   8.745   1.358 -0.1149  0.1879 -0.3717
 5770SOL    HW117888   1.937   8.659   1.321  1.2882  0.7885 -1.0431
 5770SOL    HW217889   1.889   8.797   1.282  1.9976  1.2002 -0.4844
 5771SOL     OW17890   3.514   0.723   1.128 -0.2769 -0.2463  0.3759
 5771SOL    HW117891   3.432   0.676   1.115 -1.0729  0.6898  1.8237
 5771SOL    HW217892   3.492   0.814   1.111  0.7272 -0.0973 -0.2226
 5772SOL     OW17893   3.566   0.401   3.507  0.1410  0.2677 -0.2800
 5772SOL    HW117894   3.511   0.403   3.429  1.3968  1.8653 -1.1867
 5772SOL    HW217895   3.655   0.391   3.474  0.5885 -0.3666  1.0392
 5773SOL     OW17896   8.483   8.559   2.725  0.5772  0.2833  0.2724
 5773SOL    HW117897   8.404   8.605   2.698 -0.0134 -1.0626 -0.3871
 5773SOL    HW217898   8.529   8.621   2.782 -0.4635  1.4447 -0.1167
 5774SOL     OW17899   4.216   6.398   5.059  0.6990  0.5488  0.1780
 5774SOL    HW117900   4.235   6.413   5.151  1.8819  2.2172 -0.2856
 5774SOL    HW217901   4.191   6.484   5.025  0.7618  0.0661 -1.1552
 5775SOL     OW17902   9.280   0.532   2.573  0.2143 -0.4206  0.4530
 5775SOL    HW117903   9.233   0.457   2.537 -0.9328 -0.0604  1.1559
 5775SOL    HW217904   9.217   0.575   2.630  1.1840  0.4936  0.8723
 5776SOL     OW17905   0.148   0.918   6.666 -0.1652 -0.4992 -0.5401
 5776SOL    HW117906   0.238   0.947   6.683 -0.0396 -0.0638 -1.8207
 5776SOL    HW217907   0.126   0.863   6.741  0.4273  1.0303  0.8273
 5777SOL     OW17908   2.837   2.926   4.558  0.1103  0.0309  0.1697
 5777SOL    HW117909   2.870   2.987   4.493  1.0797  1.4712  1.9447
 5777SOL    HW217910   2.865   2.962   4.642 -1.1141 -1.7457  1.4125
 5778SOL     OW17911   2.455   4.237   0.931  0.5707 -0.0629  0.0039
 5778SOL    HW117912   2.538   4.243   0.980  0.2737  1.7789  0.3460
 5778SOL    HW217913   2.448   4.321   0.886 -1.2442 -0.0929  0.1850
 5779SOL     OW17914   6.925   9.376   5.374  0.6222 -0.0759 -0.0164
 5779SOL    HW117915   6.977   9.393   5.452  1.4278 -2.6537  0.0909
 5779SOL    HW217916   6.846   9.333   5.406  0.6992 -0.6398 -0.5741
 5780SOL     OW17917   2.892   4.454   7.896  0.4649  0.6001 -0.0839
 5780SOL    HW117918   2.916   4.535   7.850  1.0232 -0.4200 -1.6683
 5780SOL    HW217919   2.912   4.384   7.834  2.1246 -0.9541  2.0339
 5781SOL     OW17920   0.074   8.758   8.182  0.2100 -0.1321  0.7318
 5781SOL    HW117921   0.149   8.738   8.237 -0.4624  1.0679  2.1734
 5781SOL    HW217922  -0.001   8.725   8.231 -0.3097 -0.1325 -0.0490
 5782SOL     OW17923   0.456   7.022   6.796  0.0375  0.0824  0.3443
 5782SOL    HW117924   0.497   7.073   6.866  0.5923  0.1403 -0.0141
 5782SOL    HW217925   0.493   6.935   6.804  0.4407  0.2029 -0.1439
 5783SOL     OW17926   3.357   2.744   5.748  0.2730 -0.2403  0.3918
 5783SOL    HW117927   3.301   2.808   5.791  1.0691  0.2958  0.6541
 5783SOL    HW217928   3.302   2.705   5.680  0.2480  1.9611 -0.9385
 5784SOL     OW17929   1.749   4.353   0.846  0.3032  0.1749  0.4670
 5784SOL    HW117930   1.707   4.346   0.761  1.0345 -0.0712  0.1138
 5784SOL    HW217931   1.687   4.401   0.900 -0.4913 -0.3239  0.0134
 5785SOL     OW17932   3.425   1.079   6.020 -0.4109  0.5260  0.2398
 5785SOL    HW117933   3.387   1.028   6.092  0.0624  2.0922  1.6512
 5785SOL    HW217934   3.380   1.163   6.024  0.7063  1.1679 -0.3074
 5786SOL     OW17935   3.535   5.726   9.346 -0.7028  0.2241  0.2621
 5786SOL    HW117936   3.625   5.744   9.372 -1.0149  0.9413  0.8811
 5786SOL    HW217937   3.528   5.631   9.347  0.1912  0.1421 -0.3202
 5787SOL     OW17938   3.840   6.358   7.200 -0.0009  0.2364  0.4396
 5787SOL    HW117939   3.792   6.285   7.161  1.6297 -0.6466 -0.0358
 5787SOL    HW217940   3.781   6.433   7.193 -0.8055 -0.5042 -1.2576
 5788SOL     OW17941   2.681   2.329   1.309  0.1419 -0.2886 -0.6023
 5788SOL    HW117942   2.736   2.295   1.379  0.7838  0.3943 -0.7628
 5788SOL    HW217943   2.594   2.293   1.327  0.3998 -0.4930  0.2714
 5789SOL     OW17944   0.976   1.924   0.142 -0.2715 -0.4187  0.3994
 5789SOL    HW117945   1.044   1.938   0.077 -0.5362  1.3768  0.4459
 5789SOL    HW217946   0.894   1.946   0.098 -0.5904 -0.4670  0.9469
 5790SOL     OW17947   8.131   4.672   2.369  0.0151  0.2851 -0.0805
 5790SOL    HW117948   8.111   4.765   2.360  0.8023  0.4073 -0.6689
 5790SOL    HW217949   8.212   4.659   2.319  0.3075 -0.5746  0.5746
 5791SOL     OW17950   1.655   2.465   9.604  0.2454  0.9374  0.5687
 5791SOL    HW117951   1.615   2.515   9.675  1.4022  0.9828  1.2270
 5791SOL    HW217952   1.714   2.404   9.649  0.2001  0.2365 -0.3123
 5792SOL     OW17953   6.943   4.505   7.504 -0.4856  0.2654  0.0781
 5792SOL    HW117954   6.871   4.533   7.448 -1.0882 -0.0267  0.7023
 5792SOL    HW217955   6.928   4.548   7.587  0.3313  0.5837  0.0684
 5793SOL     OW17956   7.913   9.671   2.443 -0.3775 -0.1656  0.3750
 5793SOL    HW117957   7.956   9.756   2.432 -1.3589  0.2345 -0.5917
 5793SOL    HW217958   7.858   9.682   2.521 -1.8069  0.6773 -0.7165
 5794SOL     OW17959   9.683   4.314   2.979  0.4663 -0.4816 -0.5374
 5794SOL    HW117960   9.774   4.291   2.958  2.1927  2.6492  2.3938
 5794SOL    HW217961   9.641   4.325   2.894  2.9112 -1.7607 -2.0245
 5795SOL     OW17962   1.030   1.379   1.261  0.1159  0.6851  0.3525
 5795SOL    HW117963   0.969   1.305   1.253  1.5415 -0.6560  1.3254
 5795SOL    HW217964   0.979   1.445   1.309 -0.7371 -0.2333  0.7726
 5796SOL     OW17965   1.449   1.995   2.524 -0.0238 -0.1700 -0.0459
 5796SOL    HW117966   1.447   2.046   2.605  0.5980  1.2917 -0.9032
 5796SOL    HW217967   1.542   1.981   2.506  0.0004  1.7682 -1.7953
 5797SOL     OW17968   0.272   2.015   4.601 -1.1084  0.4188 -0.1017
 5797SOL    HW117969   0.321   2.090   4.635 -2.1702  1.6772 -1.2314
 5797SOL    HW217970   0.213   2.053   4.536 -0.1859 -1.7028 -2.3058
 5798SOL     OW17971   8.982   4.797   5.419 -0.3823 -0.5037  0.1567
 5798SOL    HW117972   9.073   4.823   5.405 -0.1168 -0.5230  1.6497
 5798SOL    HW217973   8.930   4.872   5.390  0.0649 -0.6924 -1.2007
 5799SOL     OW17974   7.627   0.646   1.601  0.0091  0.5283 -0.3415
 5799SOL    HW117975   7.561   0.659   1.669  0.6345  3.7970 -0.1962
 5799SOL    HW217976   7.711   0.656   1.647  0.5335 -0.2962 -1.0852
 5800SOL     OW17977   4.614   6.397   2.242 -0.5564 -0.1309  0.3171
 5800SOL    HW117978   4.589   6.487   2.260  3.1084  0.9842  0.7785
 5800SOL    HW217979   4.710   6.397   2.251 -0.1297 -3.4683 -2.2986
 5801SOL     OW17980   5.632   2.778   3.533  0.2688 -0.4702 -0.0794
 5801SOL    HW117981   5.673   2.837   3.596  0.1996 -0.8879  0.3640
 5801SOL    HW217982   5.595   2.836   3.466 -0.8208  0.0706  0.9520
 5802SOL     OW17983   2.488   7.955   0.763  0.2368  0.4443 -0.3235
 5802SOL    HW117984   2.559   7.960   0.827  0.6792  2.1247 -0.8949
 5802SOL    HW217985   2.419   8.010   0.801  0.0632  0.5187 -0.7437
 5803SOL     OW17986   8.993   5.832   5.242  0.2175  0.3172  0.1018
 5803SOL    HW117987   8.941   5.903   5.279 -2.5728  0.1552 -3.0339
 5803SOL    HW217988   8.995   5.849   5.148  3.5130 -1.3378 -0.2879
 5804SOL     OW17989   5.007   0.593   8.716 -0.2096  0.2710  0.2916
 5804SOL    HW117990   4.919   0.556   8.713 -0.1861  0.0762  1.5611
 5804SOL    HW217991   5.065   0.520   8.694 -0.3316  0.2971 -0.1280
 5805SOL     OW17992   2.064   5.822   2.729  0.0795  0.1158 -0.2025
 5805SOL    HW117993   2.152   5.800   2.696 -0.1238 -0.0921 -0.6071
 5805SOL    HW217994   2.058   5.778   2.813 -0.1219 -0.9372 -0.7557
 5806SOL     OW17995   5.367   8.300   5.240  0.4234 -0.3841 -0.4178
 5806SOL    HW117996   5.383   8.207   5.255  0.1665 -0.2912  0.4950
 5806SOL    HW217997   5.339   8.334   5.325 -0.1837  0.3794 -0.8997
 5807SOL     OW17998   6.999   1.060   9.588 -0.4878  0.6718 -0.1346
 5807SOL    HW117999   7.069   1.122   9.607 -0.5605  1.1644 -1.3703
 5807SOL    HW218000   6.921   1.115   9.578 -0.2627  0.6217 -2.8199
 5808SOL     OW18001   8.076   2.434   6.936 -0.7264 -0.4081  0.0141
 5808SOL    HW118002   8.101   2.467   7.023 -1.4324 -0.3244  0.1929
 5808SOL    HW218003   8.072   2.339   6.947  2.3306 -0.7257 -0.7650
 5809SOL     OW18004   0.573   1.873   6.507 -0.4050  0.7981  0.0977
 5809SOL    HW118005   0.600   1.874   6.599  0.6167  0.4255 -0.1865
 5809SOL    HW218006   0.649   1.839   6.460 -1.3101 -0.0681 -0.7725
 5810SOL     OW18007   3.661   2.225   8.105  0.1716 -0.2209  0.1014
 5810SOL    HW118008   3.696   2.156   8.048 -2.9958 -1.9881  0.0263
 5810SOL    HW218009   3.643   2.298   8.045  0.0143 -0.8028 -0.5858
 5811SOL     OW18010   1.291   3.228   0.198 -0.3821 -0.3092  0.4782
 5811SOL    HW118011   1.342   3.273   0.266 -1.0248 -1.0017  1.4405
 5811SOL    HW218012   1.314   3.274   0.117  1.2147 -0.1432  0.9890
 5812SOL     OW18013   1.549   5.743   1.782 -0.2023  0.3789 -0.5398
 5812SOL    HW118014   1.642   5.764   1.786 -0.1890  0.3607 -0.7457
 5812SOL    HW218015   1.522   5.736   1.874 -0.7564  3.6153 -0.3640
 5813SOL     OW18016   4.370   5.612   0.686 -0.6438  0.5833  0.2326
 5813SOL    HW118017   4.321   5.611   0.604 -0.6370 -0.9164  0.2196
 5813SOL    HW218018   4.304   5.599   0.754 -0.3389 -1.3488  0.2210
 5814SOL     OW18019   8.310   7.253   1.765 -0.2454 -0.1346 -0.1662
 5814SOL    HW118020   8.385   7.202   1.737 -0.5539  0.1587 -1.6213
 5814SOL    HW218021   8.322   7.265   1.859  0.6936 -1.4299 -0.0992
 5815SOL     OW18022   6.408   8.231   2.746  0.1980 -0.3844  0.0387
 5815SOL    HW118023   6.492   8.220   2.701  0.0476  0.5278 -0.4908
 5815SOL    HW218024   6.354   8.159   2.715  0.5667 -0.5916 -0.1245
 5816SOL     OW18025   7.022   6.695   0.049  0.4542  0.2762 -0.2057
 5816SOL    HW118026   7.002   6.715   0.140  0.3443 -1.8409  0.2708
 5816SOL    HW218027   7.092   6.756   0.026  0.8006  0.5400  1.4236
 5817SOL     OW18028   0.607   9.451   6.837  0.5566  0.0571 -0.4237
 5817SOL    HW118029   0.626   9.405   6.919  1.8852  0.8426 -0.2589
 5817SOL    HW218030   0.693   9.462   6.796 -0.1508 -0.9211 -2.2770
 5818SOL     OW18031   4.163   8.935   0.951 -0.3023  0.2646 -0.0655
 5818SOL    HW118032   4.112   8.968   1.024  0.8249  1.0511  0.4032
 5818SOL    HW218033   4.248   8.980   0.958  0.1841 -0.3919 -1.2635
 5819SOL     OW18034   6.983   6.313   0.846  0.1958 -0.5065  0.1098
 5819SOL    HW118035   7.006   6.399   0.883  1.2910 -0.7570  0.0374
 5819SOL    HW218036   7.033   6.308   0.765 -1.1388 -0.5384 -0.7469
 5820SOL     OW18037   4.799   7.395   8.275 -0.0507 -0.1964  0.4635
 5820SOL    HW118038   4.786   7.432   8.188 -3.4277 -0.0414  0.9078
 5820SOL    HW218039   4.832   7.307   8.259 -1.7268 -0.5952 -1.0916
 5821SOL     OW18040   6.211   6.390   3.487  0.1204 -0.1038 -0.0542
 5821SOL    HW118041   6.134   6.366   3.436  0.1234  0.6866 -0.4330
 5821SOL    HW218042   6.245   6.469   3.446  1.3277 -0.6138 -0.0882
 5822SOL     OW18043   7.801   6.335   8.801 -1.0410 -0.5348  0.5965
 5822SOL    HW118044   7.801   6.355   8.894 -2.4616 -1.9908  0.9595
 5822SOL    HW218045   7.805   6.239   8.797  0.2350 -0.4646 -0.8777
 5823SOL     OW18046   5.154   8.604   8.555 -0.2115 -0.2811 -0.4641
 5823SOL    HW118047   5.143   8.672   8.621 -1.2585  0.2254 -1.1345
 5823SOL    HW218048   5.089   8.625   8.488  0.4271 -1.1222 -1.3699
 5824SOL     OW18049   2.613   2.721   3.720  0.6117 -0.3149 -0.4205
 5824SOL    HW118050   2.656   2.650   3.767  0.6474  0.6305  1.0391
 5824SOL    HW218051   2.532   2.682   3.685  0.6819 -1.0876  0.2578
 5825SOL     OW18052   9.141   6.339   0.827 -0.2236  0.2206 -0.2322
 5825SOL    HW118053   9.102   6.255   0.851  0.4022  0.2817  1.0839
 5825SOL    HW218054   9.067   6.392   0.798 -0.7102 -0.5836 -0.5006
 5826SOL     OW18055   8.872   0.149   1.553  0.8075 -0.1399 -0.0302
 5826SOL    HW118056   8.797   0.136   1.496 -1.3484  3.1634  1.7389
 5826SOL    HW218057   8.847   0.106   1.635  1.6103 -0.4496  0.0620
 5827SOL     OW18058   3.799   2.923   8.320 -0.2862 -0.4469  0.0011
 5827SOL    HW118059   3.756   2.853   8.369  0.0420  0.1809  1.2599
 5827SOL    HW218060   3.850   2.879   8.253 -0.4563 -1.3863  0.4765
 5828SOL     OW18061   2.630   4.416   7.627 -0.1124 -0.4606 -0.5490
 5828SOL    HW118062   2.589   4.368   7.699 -0.4968  1.3535  0.5107
 5828SOL    HW218063   2.700   4.466   7.669 -0.5963  0.9506 -1.3376
 5829SOL     OW18064   0.716   0.867   7.480  0.2879  0.2523  0.0819
 5829SOL    HW118065   0.719   0.959   7.505  0.5510  0.3254 -0.2176
 5829SOL    HW218066   0.642   0.831   7.529 -0.4818  0.8682 -0.6034
 5830SOL     OW18067   6.153   3.330   2.680 -0.6987 -0.9121 -0.3412
 5830SOL    HW118068   6.228   3.387   2.660 -0.8295 -0.7069 -0.2534
 5830SOL    HW218069   6.098   3.335   2.603 -0.4104 -1.4108 -0.5833
 5831SOL     OW18070   5.415   1.788   1.727  0.2604 -0.0715 -0.5116
 5831SOL    HW118071   5.444   1.789   1.818 -2.6284  0.7297  0.4998
 5831SOL    HW218072   5.469   1.853   1.684  3.2211 -1.9897 -0.0124
 5832SOL     OW18073   4.741   2.375   9.592  0.8466 -0.5724  0.1311
 5832SOL    HW118074   4.671   2.314   9.616  0.7991 -0.0605  1.3260
 5832SOL    HW218075   4.821   2.323   9.601  0.7560 -0.6500  0.5006
 5833SOL     OW18076   9.577   7.081   0.476 -0.6177 -0.2558 -0.0617
 5833SOL    HW118077   9.486   7.102   0.500 -0.6301  0.6512 -0.8339
 5833SOL    HW218078   9.589   7.121   0.390  0.5818 -0.1896  0.1205
 5834SOL     OW18079   7.154   2.974   5.876 -0.2528  0.4141 -0.0266
 5834SOL    HW118080   7.144   2.948   5.785 -1.8886  0.6560  0.0417
 5834SOL    HW218081   7.122   3.065   5.879 -0.3112  0.3769  0.7887
 5835SOL     OW18082   5.226   6.695   4.621  0.3832 -0.0492 -0.1991
 5835SOL    HW118083   5.204   6.604   4.603  0.6849  0.0202 -0.9401
 5835SOL    HW218084   5.321   6.696   4.633  0.5572  0.3671 -1.4965
 5836SOL     OW18085   4.507   8.059   6.275  0.2299 -0.2024  0.4172
 5836SOL    HW118086   4.472   8.144   6.246  0.6855 -0.2194 -0.2058
 5836SOL    HW218087   4.590   8.082   6.317  0.8486 -0.4268 -0.6576
 5837SOL     OW18088   2.143   8.777   8.904 -0.1551 -0.8491 -0.5160
 5837SOL    HW118089   2.224   8.762   8.855 -0.9043  0.1327 -2.1037
 5837SOL    HW218090   2.097   8.693   8.901  1.5631 -2.0307  2.0294
 5838SOL     OW18091   6.826   7.891   4.829  0.5708  0.3896  0.0332
 5838SOL    HW118092   6.915   7.882   4.863  0.2929  0.1985  0.7493
 5838SOL    HW218093   6.827   7.844   4.746  0.9064 -0.4072  0.4726
 5839SOL     OW18094   5.924   3.253   3.890  0.1509 -0.0719  0.0138
 5839SOL    HW118095   5.878   3.170   3.893  0.6960 -0.3604  0.5685
 5839SOL    HW218096   5.927   3.283   3.981 -0.8944  1.0369 -0.2970
 5840SOL     OW18097   9.198   9.929   4.799  0.3709 -0.5403  0.3012
 5840SOL    HW118098   9.200  10.022   4.822  0.9804 -0.7304  1.0860
 5840SOL    HW218099   9.193   9.884   4.884 -0.4271 -1.2139 -0.0944
 5841SOL     OW18100   5.595   3.359   0.106 -0.1247  0.1044 -0.0736
 5841SOL    HW118101   5.554   3.298   0.167  0.9570  0.1903  0.7862
 5841SOL    HW218102   5.686   3.328   0.099  1.0214  2.6583  1.9161
 5842SOL     OW18103   9.341   1.817   0.653  0.0024 -0.0196  0.3138
 5842SOL    HW118104   9.434   1.837   0.642  0.6373 -2.8163 -0.2266
 5842SOL    HW218105   9.340   1.738   0.707 -2.2325  1.3443  2.4982
 5843SOL     OW18106   8.860   3.092   9.796 -0.3235 -0.0428 -0.5008
 5843SOL    HW118107   8.896   3.180   9.805  0.1730 -0.0843 -1.7834
 5843SOL    HW218108   8.767   3.105   9.783 -0.5038  0.1856  0.8864
 5844SOL     OW18109   9.403   2.993   7.830 -0.7536  0.0958  0.7514
 5844SOL    HW118110   9.393   2.936   7.906  1.4673 -0.4968  0.6703
 5844SOL    HW218111   9.467   2.948   7.775 -0.8274  1.4788 -0.5204
 5845SOL     OW18112   2.787   8.557   0.450 -0.2101 -0.0345  0.5928
 5845SOL    HW118113   2.692   8.557   0.461 -0.1274  0.4604  1.4088
 5845SOL    HW218114   2.819   8.499   0.519  0.1553  0.8321  1.1677
 5846SOL     OW18115   8.482   9.433   7.896  0.3133  0.4568  0.2849
 5846SOL    HW118116   8.527   9.424   7.812  0.6480  0.0891  0.5030
 5846SOL    HW218117   8.390   9.416   7.876  0.6503 -1.6269  0.3384
 5847SOL     OW18118   4.955   4.772   9.988  0.0344  0.3454  0.3579
 5847SOL    HW118119   4.911   4.759   9.904  0.6088 -0.1750  0.1300
 5847SOL    HW218120   4.886   4.801  10.047 -0.5392 -0.0903 -0.0865
 5848SOL     OW18121   2.852   3.553   0.310  0.6076 -0.6236  0.0518
 5848SOL    HW118122   2.806   3.594   0.237 -0.8310 -0.8082  0.8244
 5848SOL    HW218123   2.911   3.489   0.269 -1.7305 -2.2858 -0.9010
 5849SOL     OW18124   0.185   2.286   9.604  0.2022 -0.0410  0.2879
 5849SOL    HW118125   0.170   2.301   9.697  3.1481  1.6742  0.6099
 5849SOL    HW218126   0.106   2.318   9.561 -1.0834 -0.5746  2.1654
 5850SOL     OW18127   2.066   3.588   6.485 -0.7045 -0.2036 -0.0238
 5850SOL    HW118128   2.115   3.595   6.567 -1.2053  0.0654  0.2635
 5850SOL    HW218129   2.126   3.548   6.424 -0.6407 -1.3673  0.7649
 5851SOL     OW18130   2.081   3.846   4.488  0.1834 -0.1220  0.1533
 5851SOL    HW118131   2.075   3.879   4.577 -1.0225 -0.6416  0.2848
 5851SOL    HW218132   2.147   3.777   4.492  0.3764  0.0839  0.5654
 5852SOL     OW18133   3.815   8.516   2.274 -0.0919 -0.0005 -0.1075
 5852SOL    HW118134   3.749   8.473   2.220  0.6008  0.4703 -1.3651
 5852SOL    HW218135   3.777   8.600   2.299  0.4203  0.7483 -1.7464
 5853SOL     OW18136   7.898   6.459   1.236  0.0308 -0.0197  0.7726
 5853SOL    HW118137   7.903   6.385   1.296  1.7399 -0.7634 -0.2328
 5853SOL    HW218138   7.920   6.535   1.291  0.8145 -0.5926  1.2764
 5854SOL     OW18139   0.626   2.332   2.546  0.7476  0.8186  1.1051
 5854SOL    HW118140   0.708   2.361   2.505 -0.1212  1.5512 -0.2012
 5854SOL    HW218141   0.618   2.240   2.520  0.9345  0.8692  0.8606
 5855SOL     OW18142   8.816   0.117   3.470 -0.1514  0.1873  0.0268
 5855SOL    HW118143   8.748   0.067   3.516 -1.7943  1.9931 -0.3331
 5855SOL    HW218144   8.812   0.086   3.380  0.6362 -0.8220  0.3117
 5856SOL     OW18145   1.037   4.290   6.756 -0.2624 -0.3602  0.0589
 5856SOL    HW118146   0.942   4.282   6.771 -0.3072 -2.5655 -0.9338
 5856SOL    HW218147   1.076   4.230   6.819  0.5764  1.0293  0.9178
 5857SOL     OW18148   5.744   0.395   3.045  0.7128  0.5623  0.0207
 5857SOL    HW118149   5.703   0.379   3.130  1.8503  0.0146  0.4949
 5857SOL    HW218150   5.834   0.420   3.067  0.7131  1.5017 -0.9839
 5858SOL     OW18151   9.744   2.119   8.629 -0.2657 -0.3667 -0.1636
 5858SOL    HW118152   9.748   2.155   8.540  0.4090  0.8488  0.3356
 5858SOL    HW218153   9.812   2.052   8.631 -0.2137 -0.3281 -0.5301
 5859SOL     OW18154   0.847   9.368   7.384 -0.2355  0.5813  0.0851
 5859SOL    HW118155   0.908   9.322   7.325  0.4797  1.5422  0.0571
 5859SOL    HW218156   0.903   9.403   7.453 -0.5697  2.4706 -0.5476
 5860SOL     OW18157   5.184   2.873   3.936  0.4190  0.3964  0.3407
 5860SOL    HW118158   5.216   2.788   3.903  1.6550  0.7012  0.6806
 5860SOL    HW218159   5.128   2.906   3.866 -0.9099 -1.1464  0.6142
 5861SOL     OW18160   4.604   9.803   7.529 -0.9435  0.0904 -0.5743
 5861SOL    HW118161   4.606   9.829   7.621  0.0402  0.1710 -0.6095
 5861SOL    HW218162   4.688   9.760   7.514 -0.5881  1.1274 -1.7266
 5862SOL     OW18163   9.990   0.677   5.918 -0.6398 -0.4171 -0.1393
 5862SOL    HW118164   9.936   0.720   5.983 -0.1495  1.4828 -0.9198
 5862SOL    HW218165   9.944   0.691   5.835 -0.6866 -1.8269 -0.3858
 5863SOL     OW18166   6.394   3.810   1.787  0.0040  0.0026 -0.1823
 5863SOL    HW118167   6.392   3.780   1.878  1.3911  0.9310  0.1847
 5863SOL    HW218168   6.302   3.818   1.762 -0.4931  2.0659  1.9504
 5864SOL     OW18169   8.361   2.373   8.158  0.5530 -0.0939  0.0193
 5864SOL    HW118170   8.296   2.351   8.091  1.3636 -1.2695 -0.4173
 5864SOL    HW218171   8.310   2.413   8.229 -0.6574 -1.0271 -0.2923
 5865SOL     OW18172   7.077   5.543   3.734 -0.3975 -0.5594  0.4968
 5865SOL    HW118173   7.052   5.466   3.683 -0.9189  0.0086 -0.1286
 5865SOL    HW218174   7.172   5.550   3.722 -0.3610 -1.0338  0.4704
 5866SOL     OW18175   4.084   3.093   4.593 -0.1454  0.3042 -0.6134
 5866SOL    HW118176   4.074   2.999   4.574  1.0084  0.1204 -0.3585
 5866SOL    HW218177   4.075   3.100   4.688 -1.2301  0.6055 -0.7189
 5867SOL     OW18178   3.017   9.758   6.994 -0.4615  0.2043  0.4801
 5867SOL    HW118179   3.082   9.829   6.998 -1.1429  0.9568 -1.0651
 5867SOL    HW218180   2.979   9.765   6.907 -2.2104 -0.6063  1.1403
 5868SOL     OW18181   5.615   1.510   2.820  0.5554  0.1344  0.7443
 5868SOL    HW118182   5.665   1.492   2.900  0.4954  0.6837  0.9068
 5868SOL    HW218183   5.624   1.430   2.768  1.2982  0.0894  0.9337
 5869SOL     OW18184   4.307   8.029   5.065 -0.0492 -0.0369  0.7876
 5869SOL    HW118185   4.341   7.940   5.074 -0.2127 -0.1000  0.7902
 5869SOL    HW218186   4.385   8.084   5.057  0.0818 -0.4794 -2.3902
 5870SOL     OW18187   3.082   9.105   7.058  0.1913  0.2104  0.2206
 5870SOL    HW118188   3.032   9.034   7.019 -0.1191  0.3828  0.3017
 5870SOL    HW218189   3.163   9.108   7.008  0.9377 -1.2723  1.2427
 5871SOL     OW18190   4.122   6.106   0.135  0.1946  0.3038  0.6252
 5871SOL    HW118191   4.061   6.101   0.208 -0.6280  1.9179  0.0925
 5871SOL    HW218192   4.067   6.109   0.057  0.9964  0.2946  0.0395
 5872SOL     OW18193   5.309   3.005   6.632 -0.4955  0.0027 -0.2901
 5872SOL    HW118194   5.315   2.980   6.540  0.3726  0.8944 -0.4872
 5872SOL    HW218195   5.217   2.988   6.655 -0.6267 -0.5993 -1.1998
 5873SOL     OW18196   4.792   5.789   2.199  0.4481 -0.3854 -0.4512
 5873SOL    HW118197   4.783   5.879   2.168 -1.5815 -0.6917 -0.8701
 5873SOL    HW218198   4.712   5.745   2.169 -0.2278 -1.4819  2.6579
 5874SOL     OW18199   3.647   5.295   4.456 -0.1348 -0.2383 -0.2692
 5874SOL    HW118200   3.693   5.363   4.504 -0.3632  0.0020 -0.3934
 5874SOL    HW218201   3.709   5.267   4.388  0.5152 -1.1604  0.6752
 5875SOL     OW18202   2.490   7.891   6.200 -0.0348  0.0152 -0.0255
 5875SOL    HW118203   2.400   7.901   6.169  0.1686  0.8950 -0.3545
 5875SOL    HW218204   2.484   7.825   6.269 -0.6242 -1.4078 -1.3539
 5876SOL     OW18205   4.318   3.254   5.787  0.8775  0.2293  0.4844
 5876SOL    HW118206   4.318   3.311   5.864 -0.0597  1.4929 -0.4020
 5876SOL    HW218207   4.233   3.210   5.790  0.5203  0.8445 -0.1941
 5877SOL     OW18208   1.160   5.874   8.281 -0.1493  0.3071  0.7188
 5877SOL    HW118209   1.101   5.838   8.348  0.9211 -1.0425  0.9736
 5877SOL    HW218210   1.242   5.890   8.327  0.4140 -0.0709 -0.1387
 5878SOL     OW18211   7.515   5.624   4.536 -0.2588 -0.2368  0.4261
 5878SOL    HW118212   7.438   5.588   4.579 -2.2697  1.6470 -1.3251
 5878SOL    HW218213   7.498   5.718   4.530  1.6782  0.0987 -0.9808
 5879SOL     OW18214   9.583   8.741   9.363 -0.1102  0.3591 -0.2900
 5879SOL    HW118215   9.642   8.797   9.311 -1.1717  1.3783 -0.4384
 5879SOL    HW218216   9.580   8.784   9.449 -0.8955  0.5050 -0.3857
 5880SOL     OW18217   8.583   7.240   5.065 -0.2483 -0.2364 -0.5195
 5880SOL    HW118218   8.676   7.235   5.086  0.2613  1.5469 -2.0824
 5880SOL    HW218219   8.541   7.271   5.145  0.5699 -0.5902  0.0493
 5881SOL     OW18220   1.338   1.962   2.042 -0.0073  0.5097  0.1163
 5881SOL    HW118221   1.329   1.972   1.948 -1.2090  0.4406  0.2130
 5881SOL    HW218222   1.249   1.972   2.077 -0.1378 -2.5012  0.9528
 5882SOL     OW18223   4.871   9.029   7.811  0.3835  0.2341 -0.2630
 5882SOL    HW118224   4.912   9.096   7.755  0.3324  0.6003  0.1342
 5882SOL    HW218225   4.900   9.051   7.899  0.0818 -0.0638 -0.0904
 5883SOL     OW18226   4.796   2.501   7.815 -0.4717  0.0995  0.2053
 5883SOL    HW118227   4.823   2.440   7.746  1.5004 -0.6392  1.5423
 5883SOL    HW218228   4.838   2.584   7.792 -1.6694  0.5023 -0.6399
 5884SOL     OW18229   8.442   0.656   6.287  0.0715 -0.0316  0.3865
 5884SOL    HW118230   8.349   0.632   6.286 -0.8327  2.8498 -2.9314
 5884SOL    HW218231   8.481   0.602   6.218  0.4439  0.1346  0.4663
 5885SOL     OW18232   0.464   5.758   4.270  0.0791  0.0330  0.3241
 5885SOL    HW118233   0.458   5.840   4.221 -0.0177  0.1328  0.5002
 5885SOL    HW218234   0.558   5.741   4.277  0.0847 -0.8486 -1.3296
 5886SOL     OW18235   4.756   9.083   2.645 -0.5626 -0.3227 -0.2309
 5886SOL    HW118236   4.780   9.033   2.723 -0.0138 -0.7597 -0.6700
 5886SOL    HW218237   4.824   9.062   2.581 -0.8705  0.2210 -0.7500
 5887SOL     OW18238   6.073   3.707   7.214  0.6208 -0.1435 -0.0063
 5887SOL    HW118239   5.996   3.658   7.242 -0.5545 -0.3747 -3.2082
 5887SOL    HW218240   6.054   3.798   7.237 -0.7951 -0.1589 -0.9598
 5888SOL     OW18241   4.244   1.380   8.153 -0.1871 -0.2029 -0.6219
 5888SOL    HW118242   4.185   1.391   8.227  0.1920 -0.2420 -0.3130
 5888SOL    HW218243   4.318   1.438   8.172 -0.5304  0.5163 -1.4321
 5889SOL     OW18244   2.427   2.817   1.511  0.6867 -0.1614  0.3702
 5889SOL    HW118245   2.334   2.794   1.516  0.7503 -0.5011  0.0126
 5889SOL    HW218246   2.438   2.854   1.423  0.6505  0.9729  0.8235
 5890SOL     OW18247   9.049   8.561   6.945  0.0112  0.1457 -0.3886
 5890SOL    HW118248   8.997   8.594   6.872  0.9558  0.5609 -0.8903
 5890SOL    HW218249   9.127   8.524   6.904  0.0141 -0.6708  0.3370
 5891SOL     OW18250   2.571   4.997   5.215  0.2794 -0.8211 -0.2446
 5891SOL    HW118251   2.629   4.954   5.152 -1.0837 -0.5356 -1.7591
 5891SOL    HW218252   2.482   4.977   5.184 -0.4223  1.4581  0.1038
 5892SOL     OW18253   1.042   7.837   5.992  0.4654 -0.7976 -0.1665
 5892SOL    HW118254   1.079   7.923   6.013 -1.9253  0.2181  0.2485
 5892SOL    HW218255   0.977   7.821   6.061  0.2369 -2.5384 -0.7364
 5893SOL     OW18256   4.528   7.619   9.383 -0.3519 -0.1381  0.2278
 5893SOL    HW118257   4.495   7.539   9.341 -1.3657 -0.0628  0.8676
 5893SOL    HW218258   4.613   7.634   9.340 -0.8896 -0.6299 -1.0794
 5894SOL     OW18259   8.994   0.372   8.894 -0.2890  0.3424 -0.5471
 5894SOL    HW118260   9.069   0.312   8.892 -1.0602 -0.6521 -0.2767
 5894SOL    HW218261   8.941   0.342   8.968 -0.7726  1.2714 -0.5054
 5895SOL     OW18262   3.214   4.512   5.409  0.6628 -0.0002  0.6425
 5895SOL    HW118263   3.134   4.522   5.356  0.7871 -3.0772 -0.3219
 5895SOL    HW218264   3.278   4.569   5.366 -0.3895  0.7652  0.0400
 5896SOL     OW18265   6.128   0.732   5.963  0.4497 -0.4173 -0.0915
 5896SOL    HW118266   6.161   0.693   5.881 -1.2238 -0.5420 -0.7469
 5896SOL    HW218267   6.175   0.685   6.032 -0.3845 -2.6245 -0.9029
 5897SOL     OW18268   5.710   4.625   9.048 -0.2476  0.0330  0.4921
 5897SOL    HW118269   5.702   4.660   8.959 -0.6946 -1.7823 -0.2283
 5897SOL    HW218270   5.783   4.562   9.042  0.5137  0.7682  1.7238
 5898SOL     OW18271   8.581   9.188   3.881  0.5120 -0.1166 -0.2648
 5898SOL    HW118272   8.516   9.176   3.812  1.1489 -1.7881 -0.6290
 5898SOL    HW218273   8.595   9.283   3.884 -1.2984  0.2061 -0.7376
 5899SOL     OW18274   5.187   9.906   5.845 -0.2943 -0.1024 -0.1765
 5899SOL    HW118275   5.124   9.979   5.843 -0.7298 -0.3797  1.8141
 5899SOL    HW218276   5.260   9.939   5.896  0.3601 -0.4513 -0.8595
 5900SOL     OW18277   4.415   2.507   3.907 -0.0866 -0.2818  0.3292
 5900SOL    HW118278   4.413   2.463   3.992 -0.6263  0.1771  0.5589
 5900SOL    HW218279   4.503   2.542   3.900 -0.2315  0.2179  0.9797
 5901SOL     OW18280   9.850   7.635   6.470 -0.4313  0.3985  0.0477
 5901SOL    HW118281   9.917   7.566   6.477 -1.0036 -0.0982  0.8215
 5901SOL    HW218282   9.792   7.619   6.544 -1.8997  0.2915 -1.0880
 5902SOL     OW18283   0.232   9.940   8.661  0.3943 -0.1165 -0.0547
 5902SOL    HW118284   0.164   9.934   8.728  2.8935 -0.3185  2.6775
 5902SOL    HW218285   0.285  10.015   8.688  2.5209 -1.2983 -0.7794
 5903SOL     OW18286   1.796   8.748   6.432 -0.5109  0.3302 -0.2917
 5903SOL    HW118287   1.753   8.710   6.356 -1.9327  1.8725 -0.3146
 5903SOL    HW218288   1.862   8.807   6.396 -0.9786  0.8315 -0.3388
 5904SOL     OW18289   2.079   2.064   9.470 -0.1934  0.0005  0.3572
 5904SOL    HW118290   2.027   2.022   9.401 -0.0576 -1.3276  1.0331
 5904SOL    HW218291   2.170   2.040   9.450  0.0361  1.1136 -0.0042
 5905SOL     OW18292   4.639   1.914   7.502  0.3371 -0.0753  0.2060
 5905SOL    HW118293   4.599   1.897   7.588  2.8194 -0.6430  1.3515
 5905SOL    HW218294   4.621   2.006   7.486 -1.0322 -0.1981  0.8324
 5906SOL     OW18295   7.637   0.863   8.117 -0.4584  0.1958  0.1623
 5906SOL    HW118296   7.637   0.906   8.031 -0.8309 -0.7406 -0.3174
 5906SOL    HW218297   7.730   0.856   8.140 -0.2668 -0.8059 -0.8228
 5907SOL     OW18298   9.060   9.591   4.770  0.3569  0.3091  0.5948
 5907SOL    HW118299   9.096   9.642   4.697  0.1269 -1.3671 -0.7294
 5907SOL    HW218300   8.977   9.634   4.790 -0.3031 -0.0778 -1.1470
 5908SOL     OW18301   5.539   1.449   0.750  0.2506 -0.4605 -0.3023
 5908SOL    HW118302   5.490   1.531   0.746 -0.0173 -0.6047  0.0333
 5908SOL    HW218303   5.601   1.462   0.822  1.5834  0.1981 -1.4990
 5909SOL     OW18304   5.249   6.299   9.370 -0.1620  0.3917  0.1785
 5909SOL    HW118305   5.288   6.215   9.345 -0.7820 -0.2397  1.2239
 5909SOL    HW218306   5.234   6.345   9.287 -1.2635 -1.1951 -0.5654
 5910SOL     OW18307   0.061   2.117   3.241  0.2334  0.4053  0.1980
 5910SOL    HW118308   0.002   2.077   3.305 -0.5370 -0.4597 -0.9992
 5910SOL    HW218309   0.125   2.165   3.293 -1.7375  1.7035  1.5697
 5911SOL     OW18310   7.775   7.273   6.797 -0.2823  0.7006  0.5242
 5911SOL    HW118311   7.805   7.338   6.861 -0.3140  0.4636  0.7860
 5911SOL    HW218312   7.836   7.280   6.724 -0.9665  1.8257  0.0398
 5912SOL     OW18313   9.885   5.753   2.259  0.0813 -0.0381  0.0080
 5912SOL    HW118314   9.843   5.713   2.335 -0.6602  0.3229 -0.2044
 5912SOL    HW218315   9.828   5.826   2.235  0.0588 -0.4154 -1.1659
 5913SOL     OW18316   3.877   7.398   1.279 -0.3612 -0.2554  0.0207
 5913SOL    HW118317   3.853   7.489   1.262 -0.2825 -0.0516  0.9331
 5913SOL    HW218318   3.853   7.384   1.370  0.3799 -0.9021  0.1241
 5914SOL     OW18319   4.983   3.985   3.855 -0.5290  0.1644 -0.1528
 5914SOL    HW118320   5.022   4.071   3.871 -0.0183 -0.2126  0.7331
 5914SOL    HW218321   5.033   3.949   3.782 -0.7061  0.5935 -0.4866
 5915SOL     OW18322   2.140   6.010   3.118 -0.3349 -0.4982 -0.1045
 5915SOL    HW118323   2.231   6.018   3.148 -1.0260  1.7615  1.6490
 5915SOL    HW218324   2.130   6.081   3.054 -0.8851 -0.6956 -0.2378
 5916SOL     OW18325   9.047   1.565   4.666 -0.1525 -0.0808  0.3376
 5916SOL    HW118326   8.998   1.646   4.652 -0.2737 -0.1396  0.4287
 5916SOL    HW218327   9.027   1.512   4.588  0.9498  0.4911 -0.3580
 5917SOL     OW18328   2.516   1.011   9.914 -0.7173  0.0404 -0.2487
 5917SOL    HW118329   2.530   0.916   9.917  1.9674  0.3665  0.0959
 5917SOL    HW218330   2.551   1.037   9.829  0.4724  0.9180  0.4750
 5918SOL     OW18331   6.391   6.068   4.375  0.3354 -0.6101  0.2294
 5918SOL    HW118332   6.429   6.093   4.291 -1.0553 -0.7491 -0.4610
 5918SOL    HW218333   6.431   5.984   4.396  1.1856 -0.2592  0.0366
 5919SOL     OW18334   9.469   1.813   2.364  0.5910  0.6607 -0.8150
 5919SOL    HW118335   9.437   1.784   2.279  0.3140 -0.0436 -0.4751
 5919SOL    HW218336   9.444   1.744   2.425 -0.1526  1.6425  0.0319
 5920SOL     OW18337   5.874   9.753   1.844 -1.0758  0.6628  0.0798
 5920SOL    HW118338   5.884   9.661   1.821 -1.0796  0.9701 -1.1884
 5920SOL    HW218339   5.842   9.795   1.765 -0.2512  1.9168  0.3824
 5921SOL     OW18340   1.610   5.453   4.906 -0.6529  0.0508  0.4739
 5921SOL    HW118341   1.697   5.476   4.937 -1.2044  0.9064  1.4723
 5921SOL    HW218342   1.550   5.502   4.963 -1.7529  1.7145 -1.9147
 5922SOL     OW18343   7.706   1.679   4.924 -0.0936 -0.3499 -0.1907
 5922SOL    HW118344   7.768   1.649   4.990 -0.6978 -0.7671  0.2002
 5922SOL    HW218345   7.678   1.765   4.954 -0.0827 -0.3768 -0.1045
 5923SOL     OW18346   5.827   7.343   7.091  0.1352  0.0968  0.4632
 5923SOL    HW118347   5.771   7.303   7.157 -0.9209  0.1512 -0.3638
 5923SOL    HW218348   5.768   7.401   7.042  0.4985 -1.0657 -1.4603
 5924SOL     OW18349   1.753   2.069   3.309  0.3496 -0.0085  0.6667
 5924SOL    HW118350   1.669   2.024   3.310  0.3687 -0.0790 -0.0140
 5924SOL    HW218351   1.809   2.017   3.367  0.4412 -1.0337 -0.2854
 5925SOL     OW18352   1.801   8.805   6.804  0.1084 -0.6384 -0.1434
 5925SOL    HW118353   1.728   8.800   6.865 -2.0991  0.3747 -2.5352
 5925SOL    HW218354   1.815   8.715   6.775 -2.3919 -0.5251 -1.9797
 5926SOL     OW18355   6.636   9.410   1.753  0.3715 -0.7756  0.2667
 5926SOL    HW118356   6.562   9.469   1.742  1.2236  0.2391 -0.2900
 5926SOL    HW218357   6.649   9.404   1.848  0.7485  0.5946  0.3306
 5927SOL     OW18358   0.039  -0.009   5.900 -0.0682  0.0654  0.5557
 5927SOL    HW118359   0.055   0.082   5.874  0.4841 -0.2215 -0.1557
 5927SOL    HW218360   0.019  -0.004   5.993 -0.6377  0.9804  0.3974
 5928SOL     OW18361   5.855   2.032   7.944  0.0135 -0.3295  0.2306
 5928SOL    HW118362   5.789   1.988   7.890 -1.2988  2.3058 -0.5150
 5928SOL    HW218363   5.928   2.047   7.885 -1.6628  3.1122 -1.2560
 5929SOL     OW18364   2.650   6.054   9.104  0.0396 -0.0658 -0.1379
 5929SOL    HW118365   2.712   6.115   9.064  1.3870 -1.3381 -0.0808
 5929SOL    HW218366   2.634   6.090   9.191  1.4710 -0.2000  0.2038
 5930SOL     OW18367   1.487   3.840   7.750  0.0827  0.7647  0.0261
 5930SOL    HW118368   1.506   3.821   7.658  0.0691  0.2165  0.1358
 5930SOL    HW218369   1.398   3.873   7.750  0.2765  1.3060 -0.2245
 5931SOL     OW18370   7.235   1.305   6.388 -0.4818 -0.0796 -0.0598
 5931SOL    HW118371   7.173   1.365   6.345 -0.9023  1.7714  2.8251
 5931SOL    HW218372   7.309   1.360   6.413 -0.5446 -0.8281  2.0393
 5932SOL     OW18373   6.565   1.317   4.806 -0.2374 -0.2944 -0.3097
 5932SOL    HW118374   6.651   1.300   4.844 -0.8362 -1.8633  0.4465
 5932SOL    HW218375   6.571   1.281   4.717  0.5265  1.5517 -1.0549
 5933SOL     OW18376   1.121   9.488   5.262 -0.5868 -0.1229  0.1758
 5933SOL    HW118377   1.110   9.544   5.339  1.6796  0.4421  0.1773
 5933SOL    HW218378   1.211   9.506   5.233 -0.8065 -1.6122 -1.5753
 5934SOL     OW18379   4.704   2.690   6.700 -0.0540 -0.5516  0.3039
 5934SOL    HW118380   4.661   2.767   6.736  1.0187  1.5456 -2.4871
 5934SOL    HW218381   4.797   2.702   6.720  0.4036  0.0596 -1.9574
 5935SOL     OW18382   5.883   1.167   5.905 -0.4060 -0.4930  0.1890
 5935SOL    HW118383   5.942   1.093   5.914 -0.4375 -0.7871 -1.6040
 5935SOL    HW218384   5.797   1.133   5.931 -0.1982 -0.7289  0.5705
 5936SOL     OW18385   2.938   7.194   2.269 -0.4523 -0.1632  0.1922
 5936SOL    HW118386   2.950   7.101   2.288 -0.5534 -0.3448 -0.5984
 5936SOL    HW218387   3.020   7.222   2.229 -1.3086 -0.5506 -1.9470
 5937SOL     OW18388   4.659   1.710   4.950  0.5645 -0.0621 -0.1521
 5937SOL    HW118389   4.685   1.746   4.865  0.5353  0.9748  0.2625
 5937SOL    HW218390   4.642   1.787   5.005 -0.6760 -0.7211  0.4182
 5938SOL     OW18391   7.160   3.779   6.123 -0.6657  0.0791  0.1419
 5938SOL    HW118392   7.098   3.727   6.175 -0.1172 -0.6866  0.0468
 5938SOL    HW218393   7.115   3.791   6.039  0.1939 -2.4719 -0.7779
 5939SOL     OW18394   6.156   6.689   4.150 -0.4044 -0.2802 -0.4984
 5939SOL    HW118395   6.207   6.758   4.107  0.4379 -0.1266  0.7041
 5939SOL    HW218396   6.071   6.730   4.167 -0.0271  0.3616 -0.1075
 5940SOL     OW18397   3.894   4.908   6.520 -0.4045  0.0974  0.3184
 5940SOL    HW118398   3.804   4.877   6.532  0.1144 -1.6596  0.0860
 5940SOL    HW218399   3.908   4.903   6.425  0.5728 -1.7642  0.5002
 5941SOL     OW18400   1.207   9.285   5.492  0.3488  0.2125  0.0946
 5941SOL    HW118401   1.277   9.341   5.526 -0.9569  1.6669  0.5232
 5941SOL    HW218402   1.170   9.335   5.419 -1.2631  0.2538  0.8882
 5942SOL     OW18403   5.444   7.536   8.758  0.4315  0.1381  0.2102
 5942SOL    HW118404   5.349   7.539   8.767  0.4218 -0.6670  0.4750
 5942SOL    HW218405   5.477   7.570   8.842  0.3834  0.4195  0.1175
 5943SOL     OW18406   0.484   7.408   8.604 -0.2989  0.0827  0.2415
 5943SOL    HW118407   0.412   7.435   8.547 -0.5098  0.1328  0.5297
 5943SOL    HW218408   0.558   7.462   8.576 -0.2486 -0.2894 -0.3617
 5944SOL     OW18409   3.061   4.832   7.441  0.3298 -0.2135  0.3309
 5944SOL    HW118410   3.066   4.911   7.495  1.4220 -1.0249  1.4646
 5944SOL    HW218411   3.009   4.859   7.365  0.1337  1.4114  0.9890
 5945SOL     OW18412   8.457   6.476   9.061  0.4493  0.1085 -0.0460
 5945SOL    HW118413   8.525   6.542   9.073  0.5137  0.0833 -0.2632
 5945SOL    HW218414   8.375   6.525   9.069  0.4953  0.3608 -0.9251
 5946SOL     OW18415   8.575   3.633   5.611 -0.1770 -0.1798  0.3050
 5946SOL    HW118416   8.517   3.630   5.535 -1.2865 -1.6673  1.1498
 5946SOL    HW218417   8.663   3.643   5.574 -0.8417  1.0571 -1.0616
 5947SOL     OW18418   2.088   7.962   8.402  0.6093  0.3098 -0.5939
 5947SOL    HW118419   2.152   7.908   8.448  1.3167  0.9094 -0.8557
 5947SOL    HW218420   2.089   8.046   8.449  0.8317  0.6935 -1.2656
 5948SOL     OW18421   0.583   2.999   4.523 -0.5256 -0.5054  0.3481
 5948SOL    HW118422   0.596   2.904   4.523  1.0419 -0.3253  1.4025
 5948SOL    HW218423   0.518   3.014   4.592 -0.3211 -0.7758  0.6049
 5949SOL     OW18424   2.723   7.489   4.051 -0.0084  0.9169 -0.4233
 5949SOL    HW118425   2.712   7.551   4.124  0.8623  1.0481 -0.4002
 5949SOL    HW218426   2.816   7.493   4.029  0.0149 -0.1993 -0.5921
 5950SOL     OW18427   7.590   2.542   1.706  0.7218  0.2198 -0.1210
 5950SOL    HW118428   7.671   2.535   1.757  0.9918 -0.3270 -0.6123
 5950SOL    HW218429   7.525   2.495   1.758  0.1869  2.4080  1.2988
 5951SOL     OW18430   5.598   5.281   4.330  0.9348  0.2047 -0.3431
 5951SOL    HW118431   5.528   5.286   4.394  0.8698 -0.2339 -0.3755
 5951SOL    HW218432   5.664   5.344   4.360  1.0190 -0.1866  0.2922
 5952SOL     OW18433   9.213   2.277   6.379 -0.2662 -0.0794  0.1610
 5952SOL    HW118434   9.245   2.361   6.413  0.3752 -0.0930 -0.3907
 5952SOL    HW218435   9.121   2.273   6.408 -2.1672  3.3550 -4.2797
 5953SOL     OW18436   1.631   0.189   2.903 -0.1273 -0.5248 -0.1172
 5953SOL    HW118437   1.691   0.248   2.859 -0.4280  1.1937  1.6196
 5953SOL    HW218438   1.544   0.215   2.872 -0.3290  0.5974  1.2657
 5954SOL     OW18439   5.944   6.549   9.802  0.2207  0.0147  0.3154
 5954SOL    HW118440   5.965   6.596   9.721 -0.4447 -0.1205  0.0513
 5954SOL    HW218441   6.016   6.570   9.862  0.3542  0.7082 -0.0725
 5955SOL     OW18442   0.482   7.615   4.038 -0.2268  0.4341  0.4512
 5955SOL    HW118443   0.455   7.601   3.947 -0.6265  0.5307  0.5530
 5955SOL    HW218444   0.574   7.640   4.032  0.0073 -0.4496  0.1329
 5956SOL     OW18445   5.266   7.112   1.661 -0.7023  0.4153  0.0487
 5956SOL    HW118446   5.297   7.035   1.613 -0.4490 -0.0524  0.9481
 5956SOL    HW218447   5.219   7.164   1.595 -0.9805 -0.5653 -0.5422
 5957SOL     OW18448   1.070   8.495   1.418 -0.1703 -0.6554  0.6249
 5957SOL    HW118449   0.976   8.511   1.416 -0.1378 -0.4496  0.7493
 5957SOL    HW218450   1.089   8.478   1.510  0.3742  2.0960  1.1092
 5958SOL     OW18451   7.448   4.697   4.365 -0.3689  0.3104  0.4473
 5958SOL    HW118452   7.390   4.621   4.360  2.0505 -1.7991  1.5305
 5958SOL    HW218453   7.517   4.679   4.302  2.1368 -0.3021  3.1139
 5959SOL     OW18454   4.256   9.743   6.173  0.7615  0.1306  0.1001
 5959SOL    HW118455   4.209   9.709   6.249 -0.2614 -2.3832 -1.5118
 5959SOL    HW218456   4.209   9.822   6.148  0.2788  0.2267  1.2529
 5960SOL     OW18457   7.367   1.425   8.649  0.1408 -0.6387 -0.4810
 5960SOL    HW118458   7.384   1.393   8.560  0.4737 -0.0116 -0.6482
 5960SOL    HW218459   7.451   1.462   8.676  0.3683 -1.8083  0.5182
 5961SOL     OW18460   1.447   4.259   6.771 -0.5606  0.1364 -0.2753
 5961SOL    HW118461   1.525   4.267   6.826 -0.6566 -1.1367  0.0640
 5961SOL    HW218462   1.408   4.347   6.774  1.2094  1.0113 -1.0390
 5962SOL     OW18463   8.141   1.312   6.597  0.0024  0.1574 -0.0069
 5962SOL    HW118464   8.066   1.302   6.655 -2.2742  0.9495 -2.5995
 5962SOL    HW218465   8.178   1.224   6.591  0.0465 -0.0389  2.1673
 5963SOL     OW18466   7.341   2.958   3.993  1.0840  0.0075  0.4310
 5963SOL    HW118467   7.374   3.045   3.972  1.2608 -0.1868 -0.1119
 5963SOL    HW218468   7.247   2.971   4.007  1.0596  0.2372  0.0548
 5964SOL     OW18469   9.660   4.231   2.246 -0.3326  0.1756  0.4788
 5964SOL    HW118470   9.631   4.157   2.300  0.3600 -0.9834 -0.6687
 5964SOL    HW218471   9.739   4.198   2.202  0.0856  1.6701  0.0540
 5965SOL     OW18472   9.766   6.873   0.472  0.0827 -0.4867 -0.0746
 5965SOL    HW118473   9.796   6.885   0.562  0.2900  0.1471 -0.2244
 5965SOL    HW218474   9.680   6.915   0.469  0.1186 -0.4197 -0.1955
 5966SOL     OW18475   2.134   1.004   8.410  0.2218  0.1891 -0.4800
 5966SOL    HW118476   2.222   1.035   8.428 -0.6231  1.4204  1.8760
 5966SOL    HW218477   2.076   1.070   8.447 -1.7277 -0.6644 -1.8011
 5967SOL     OW18478   1.821   2.683   9.750 -0.7700  0.5199  0.0035
 5967SOL    HW118479   1.763   2.623   9.796 -1.5918  0.7333 -0.7309
 5967SOL    HW218480   1.877   2.719   9.819 -1.8597  0.7091  0.8311
 5968SOL     OW18481   4.188   8.432   3.116 -0.4534 -0.1217  0.4517
 5968SOL    HW118482   4.126   8.362   3.135  0.5275 -0.4564  2.8864
 5968SOL    HW218483   4.268   8.386   3.091 -0.9527  0.2931 -2.1430
 5969SOL     OW18484   1.638   4.963   6.895 -0.5059 -0.5186 -0.2045
 5969SOL    HW118485   1.726   4.990   6.920 -1.5486  2.2260  0.9431
 5969SOL    HW218486   1.615   5.020   6.822 -0.3924 -3.1447 -2.4173
 5970SOL     OW18487   4.840   1.203   6.368 -0.2648  0.4621  0.5274
 5970SOL    HW118488   4.823   1.135   6.433  2.1604 -0.9585 -0.1847
 5970SOL    HW218489   4.871   1.155   6.291 -0.0482  2.2894 -0.5738
 5971SOL     OW18490   6.671   6.860   6.334 -0.0504 -0.4917  0.1565
 5971SOL    HW118491   6.617   6.908   6.271  1.9149 -0.2886 -1.4627
 5971SOL    HW218492   6.671   6.770   6.301  0.3082 -0.5603  0.3400
 5972SOL     OW18493   1.961   7.276   9.409 -0.1566  0.2173 -0.1374
 5972SOL    HW118494   1.917   7.195   9.381  0.8163 -0.1417 -0.6878
 5972SOL    HW218495   2.029   7.290   9.343 -0.8467  1.9710 -0.5304
 5973SOL     OW18496   6.709   6.473   8.610 -0.1037 -0.3643 -0.6007
 5973SOL    HW118497   6.740   6.383   8.617  1.4792  0.0523 -1.6219
 5973SOL    HW218498   6.775   6.517   8.555 -0.9900  1.3397 -0.3789
 5974SOL     OW18499   4.980   7.823   3.471  0.2269  0.3315 -0.4264
 5974SOL    HW118500   5.036   7.863   3.538 -1.2304  0.4752  0.7590
 5974SOL    HW218501   5.037   7.762   3.426  2.0667  2.4042 -1.1117
 5975SOL     OW18502   8.073   0.954   7.131 -0.3450  0.2010  0.0401
 5975SOL    HW118503   8.166   0.977   7.143 -0.5052  1.3089 -0.6569
 5975SOL    HW218504   8.074   0.879   7.071  0.0647  1.5015 -1.6650
 5976SOL     OW18505   2.530   2.087   5.783  0.1341  0.3203 -0.4946
 5976SOL    HW118506   2.437   2.071   5.798  0.1173  0.8144 -0.0469
 5976SOL    HW218507   2.567   2.001   5.763 -0.7846  0.3570 -2.6906
 5977SOL     OW18508   7.074   1.904   3.796 -0.0722  0.0984 -0.5759
 5977SOL    HW118509   7.125   1.916   3.716  0.9298  0.2911  0.0747
 5977SOL    HW218510   7.078   1.988   3.841  0.0583 -0.2363  0.0586
 5978SOL     OW18511   6.439   5.161   2.058 -0.3308  0.1736 -0.6384
 5978SOL    HW118512   6.388   5.103   2.002  0.0004 -1.5829  0.7850
 5978SOL    HW218513   6.496   5.102   2.107  0.6980  1.8070  0.2010
 5979SOL     OW18514   2.697   9.906   1.515  0.3189  0.3356 -0.6529
 5979SOL    HW118515   2.667   9.822   1.550 -0.5962  1.9350  2.9133
 5979SOL    HW218516   2.625   9.935   1.459  0.1885 -0.7577 -1.0854
 5980SOL     OW18517   8.093   3.204   4.262 -0.0746  0.0620  0.1563
 5980SOL    HW118518   8.123   3.174   4.348  0.7633  1.6484  0.4587
 5980SOL    HW218519   8.116   3.132   4.203  0.6473 -0.4641  1.0327
 5981SOL     OW18520   1.440   6.792   7.072 -0.4738  0.7340 -0.3489
 5981SOL    HW118521   1.452   6.771   7.164  1.1808 -0.9314 -0.8723
 5981SOL    HW218522   1.346   6.806   7.062 -1.3767 -3.1756  0.8395
 5982SOL     OW18523   8.497   0.401   1.903 -0.1987  0.7012  0.4332
 5982SOL    HW118524   8.545   0.470   1.856  0.0365  0.5859  0.5027
 5982SOL    HW218525   8.536   0.400   1.990  0.5114 -0.2193  0.1204
 5983SOL     OW18526   3.884   6.076   9.231  0.2665 -0.1238 -0.0028
 5983SOL    HW118527   3.962   6.021   9.240  1.3211  1.5186  1.5393
 5983SOL    HW218528   3.881   6.100   9.139  1.4551 -0.3961 -0.1167
 5984SOL     OW18529   1.367   7.965   5.819 -0.1715 -0.1202  0.2150
 5984SOL    HW118530   1.448   7.913   5.820 -0.4558 -0.5591  0.9444
 5984SOL    HW218531   1.345   7.972   5.726  1.1709  0.7488 -0.0648
 5985SOL     OW18532   7.845   9.942   5.405 -0.2357 -0.4015  0.3529
 5985SOL    HW118533   7.872   9.864   5.357 -1.1141 -1.2329  1.1528
 5985SOL    HW218534   7.804   9.908   5.485 -1.2560  0.8581  0.4077
 5986SOL     OW18535   0.287   0.976   7.808 -0.0196 -0.5616  0.1022
 5986SOL    HW118536   0.245   0.934   7.733 -0.8035  0.8048 -0.2483
 5986SOL    HW218537   0.221   0.972   7.878 -0.7861  1.5447 -0.4357
 5987SOL     OW18538   0.229   2.287   1.696 -0.1474 -0.0541 -0.4115
 5987SOL    HW118539   0.192   2.374   1.710  1.5696  0.6666 -0.1197
 5987SOL    HW218540   0.284   2.272   1.773 -0.0162 -1.1721 -0.7146
 5988SOL     OW18541   7.828   0.333   4.042  0.0692  0.2294 -0.7067
 5988SOL    HW118542   7.903   0.369   4.089 -0.3507  0.3867 -0.1414
 5988SOL    HW218543   7.774   0.409   4.021 -0.2660  0.0513 -0.5050
 5989SOL     OW18544   8.626   1.506   2.714  0.2043  0.1344 -0.2890
 5989SOL    HW118545   8.544   1.550   2.694 -0.2643 -0.7380 -0.3631
 5989SOL    HW218546   8.626   1.498   2.810 -1.4457 -2.8011 -0.4146
 5990SOL     OW18547   7.230   5.255   5.102 -0.3560  0.0449 -0.4228
 5990SOL    HW118548   7.188   5.237   5.187  0.3679 -0.4468 -0.1577
 5990SOL    HW218549   7.157   5.257   5.040 -0.7385 -1.4911 -0.0798
 5991SOL     OW18550   2.632   0.946   3.938  0.2730  0.1463  0.2175
 5991SOL    HW118551   2.662   1.037   3.938  3.4477 -0.7743  1.6083
 5991SOL    HW218552   2.669   0.909   3.858  2.0472 -0.7225  1.3779
 5992SOL     OW18553   2.663   2.344   5.181 -0.1093  0.1657  0.3053
 5992SOL    HW118554   2.602   2.397   5.232  0.2889 -1.3936  2.5262
 5992SOL    HW218555   2.612   2.315   5.105 -1.1168  1.5055  0.4362
 5993SOL     OW18556   9.034   4.401   7.373  0.2199  0.8452 -0.2570
 5993SOL    HW118557   9.113   4.441   7.410  0.2004 -0.0553  0.7918
 5993SOL    HW218558   9.063   4.315   7.343 -0.1934  0.8271 -0.6056
 5994SOL     OW18559   7.916   1.449   9.801 -0.4009 -0.3411  0.5011
 5994SOL    HW118560   7.945   1.368   9.842  0.5550 -0.1582  0.2091
 5994SOL    HW218561   7.821   1.443   9.800 -0.3428 -1.4060  0.5850
 5995SOL     OW18562   3.974   3.545   5.511 -0.0002 -0.0935  0.2936
 5995SOL    HW118563   4.051   3.601   5.524 -0.6382  1.0818 -0.7412
 5995SOL    HW218564   3.997   3.462   5.553  1.1212  0.8162  1.5919
 5996SOL     OW18565   7.484   8.210   4.468 -0.3355 -0.4108 -0.2521
 5996SOL    HW118566   7.450   8.145   4.407 -1.2294 -0.9978  0.8240
 5996SOL    HW218567   7.554   8.165   4.515 -1.0376 -0.6933  0.5814
 5997SOL     OW18568   6.614   7.391   8.440  0.0491  0.6896  0.0549
 5997SOL    HW118569   6.669   7.410   8.364 -0.1591  0.8893 -0.0499
 5997SOL    HW218570   6.660   7.323   8.488 -0.9036 -1.1220 -1.4741
 5998SOL     OW18571   3.997   3.757   8.858 -0.1833 -0.1392  0.0586
 5998SOL    HW118572   4.080   3.803   8.858  0.3493 -1.0604 -0.5127
 5998SOL    HW218573   3.990   3.719   8.945 -0.0932  0.0850  0.1649
 5999SOL     OW18574   0.500   5.454   1.958 -0.0566  0.6622 -0.0014
 5999SOL    HW118575   0.547   5.474   2.039 -3.2694 -0.8034  2.4570
 5999SOL    HW218576   0.506   5.359   1.949 -1.9125  0.4979  0.0602
 6000SOL     OW18577   4.902   1.142   4.902  0.5941 -0.3078  0.2872
 6000SOL    HW118578   4.916   1.163   4.810  0.0892 -1.0819  0.0201
 6000SOL    HW218579   4.957   1.065   4.918 -0.1071 -0.8121  0.3390
 6001SOL     OW18580   5.914   4.499   8.642  0.0574 -0.9362  0.1125
 6001SOL    HW118581   5.961   4.468   8.564  1.3180  0.0089  0.4663
 6001SOL    HW218582   5.976   4.556   8.686 -1.3869  0.2721  0.6769
 6002SOL     OW18583   0.873   6.107   5.911  0.0384  0.1203  0.7558
 6002SOL    HW118584   0.862   6.057   5.992  1.3569  0.7113  1.3425
 6002SOL    HW218585   0.821   6.060   5.846 -0.4919 -0.7631  1.7872
 6003SOL     OW18586   4.370   0.130   6.498 -0.3451  0.0071 -0.0051
 6003SOL    HW118587   4.373   0.208   6.554 -0.7939 -0.1296  0.2133
 6003SOL    HW218588   4.461   0.103   6.491 -0.3455 -0.3978  1.2648
 6004SOL     OW18589   2.473   5.805   5.067  0.1894  0.0306 -0.1676
 6004SOL    HW118590   2.559   5.788   5.029 -0.3018  0.4652 -1.5620
 6004SOL    HW218591   2.462   5.900   5.058 -1.1004 -0.2238 -1.5377
 6005SOL     OW18592   4.656   1.885   9.080 -0.5888  0.0407 -0.1246
 6005SOL    HW118593   4.599   1.813   9.055  0.2107 -1.1834  1.3492
 6005SOL    HW218594   4.738   1.842   9.107  0.8578  1.6913 -1.6645
 6006SOL     OW18595   4.588   3.094   7.574 -0.2611 -0.0453  0.4489
 6006SOL    HW118596   4.592   3.015   7.628  2.2867 -0.2759  0.0586
 6006SOL    HW218597   4.548   3.160   7.631 -0.6968 -1.1289  1.4354
 6007SOL     OW18598   2.175   6.063   7.974 -0.0797  0.0583 -0.0759
 6007SOL    HW118599   2.184   6.077   8.069  1.1165  0.0154 -0.1789
 6007SOL    HW218600   2.090   6.103   7.953 -1.6509 -2.2147  1.4463
 6008SOL     OW18601   0.737   6.936   2.079  0.4026 -0.2501 -0.1514
 6008SOL    HW118602   0.757   6.999   2.148 -0.7986  1.1573 -1.0338
 6008SOL    HW218603   0.817   6.930   2.027  1.9279 -2.5877  2.2018
 6009SOL     OW18604   9.116   6.740   0.917  0.1332 -0.2964 -0.2142
 6009SOL    HW118605   9.038   6.758   0.969  0.4379 -0.6758  0.3956
 6009SOL    HW218606   9.140   6.650   0.940 -1.3703 -1.5710 -3.1848
 6010SOL     OW18607   9.541   9.865   3.793  0.3252  0.1163  0.1648
 6010SOL    HW118608   9.452   9.895   3.775  0.6773  0.7851 -0.5557
 6010SOL    HW218609   9.562   9.901   3.879  0.3319  1.0145 -0.2006
 6011SOL     OW18610   9.167   9.049   5.263 -0.1232  0.3110 -0.2548
 6011SOL    HW118611   9.117   9.018   5.188  0.6642  1.4333 -1.2881
 6011SOL    HW218612   9.206   9.132   5.233 -0.3082  1.1144  1.6101
 6012SOL     OW18613   2.855   7.134   6.167  0.8878 -0.3698 -0.3734
 6012SOL    HW118614   2.839   7.072   6.096  0.6359 -0.2386 -0.4331
 6012SOL    HW218615   2.814   7.095   6.244 -2.8828  1.4817 -1.1795
 6013SOL     OW18616   4.237   4.581   5.483  0.4612 -0.3181 -0.7071
 6013SOL    HW118617   4.214   4.525   5.557 -1.2615  1.8922  0.5825
 6013SOL    HW218618   4.267   4.662   5.524 -2.3031  1.6652 -2.2731
 6014SOL     OW18619   3.229   1.376   1.240  0.0467 -0.4206 -0.6505
 6014SOL    HW118620   3.300   1.411   1.294 -0.3527  0.6442 -0.7892
 6014SOL    HW218621   3.157   1.363   1.301  0.2951 -1.3591 -0.5379
 6015SOL     OW18622   0.804   5.900   8.194 -0.4776  0.1602 -0.5898
 6015SOL    HW118623   0.895   5.878   8.213 -0.8340 -2.1231 -1.2554
 6015SOL    HW218624   0.793   5.988   8.229  1.6149 -0.0252  0.6878
 6016SOL     OW18625   5.121   6.225   0.685 -0.1419 -0.1583 -0.7346
 6016SOL    HW118626   5.057   6.168   0.729 -0.4108  0.7748  0.0988
 6016SOL    HW218627   5.202   6.175   0.687 -1.0150 -1.8261 -2.7364
 6017SOL     OW18628   5.021   8.005   4.954  0.4843 -0.0290 -0.0784
 6017SOL    HW118629   5.107   7.983   4.919  0.0778 -0.1100 -1.0447
 6017SOL    HW218630   5.033   8.091   4.996  1.8287 -1.4989  2.8185
 6018SOL     OW18631   0.378   4.076   9.426  0.1839  0.1198  0.5187
 6018SOL    HW118632   0.316   4.094   9.497  0.2110  1.1144  0.3131
 6018SOL    HW218633   0.322   4.057   9.351  0.1318 -3.4139  1.3139
 6019SOL     OW18634   2.805   0.775   9.802 -0.4551  0.2647 -1.0375
 6019SOL    HW118635   2.733   0.759   9.863 -0.2641  0.2210 -0.8207
 6019SOL    HW218636   2.763   0.804   9.721 -0.6500  1.5036 -0.5063
 6020SOL     OW18637   8.430   2.908   0.544 -0.0781 -0.2572  0.1765
 6020SOL    HW118638   8.366   2.875   0.480 -0.8196 -0.1280  0.8267
 6020SOL    HW218639   8.508   2.928   0.492  0.0790 -2.1156 -0.3844
 6021SOL     OW18640   9.554   8.630   3.786 -0.1085 -0.0334  0.4187
 6021SOL    HW118641   9.584   8.652   3.698  1.1574 -1.3273  0.4903
 6021SOL    HW218642   9.584   8.703   3.841  0.3300  0.0935  0.0121
 6022SOL     OW18643   7.483   5.768   6.444 -0.3658 -0.1693 -0.7346
 6022SOL    HW118644   7.438   5.720   6.375  1.2797 -5.1144  1.1678
 6022SOL    HW218645   7.564   5.799   6.403  0.2682 -2.4224 -1.2843
 6023SOL     OW18646   3.530   1.172   1.157 -0.2551 -0.1290 -0.2257
 6023SOL    HW118647   3.444   1.131   1.166  0.5123 -1.5931  0.7432
 6023SOL    HW218648   3.525   1.249   1.214  0.1384 -2.0786  2.6510
 6024SOL     OW18649   8.046   3.584   6.241  0.1291 -0.2098 -0.1767
 6024SOL    HW118650   8.076   3.500   6.206  1.7096  1.0216 -1.9573
 6024SOL    HW218651   7.969   3.606   6.187  0.6472  0.1867 -0.7685
 6025SOL     OW18652   6.691   3.698   5.624 -0.4336 -0.1464  0.4218
 6025SOL    HW118653   6.623   3.667   5.564  0.5994 -0.7630 -0.4699
 6025SOL    HW218654   6.751   3.747   5.568  0.4237 -0.5141  0.9944
 6026SOL     OW18655   1.877   8.035   2.382  0.3554 -0.5722  0.0754
 6026SOL    HW118656   1.784   8.043   2.402  0.2571 -0.8148 -0.2831
 6026SOL    HW218657   1.881   7.979   2.304  0.8785 -2.0047  1.0729
 6027SOL     OW18658   7.565   3.608   5.513  0.0907 -0.2124  0.2658
 6027SOL    HW118659   7.542   3.593   5.605  1.8293 -0.3040  0.7081
 6027SOL    HW218660   7.608   3.527   5.485  2.3242  0.8784  0.3074
 6028SOL     OW18661   9.693   8.278   4.520 -0.6031  0.8680 -0.5915
 6028SOL    HW118662   9.774   8.278   4.569 -0.3745 -0.6241 -0.9173
 6028SOL    HW218663   9.655   8.365   4.536  1.2724  1.7924 -0.8406
 6029SOL     OW18664   8.113   1.344   1.776 -0.0116  0.3536 -0.1443
 6029SOL    HW118665   8.101   1.285   1.850  0.3962  0.7565  0.2464
 6029SOL    HW218666   8.207   1.363   1.775 -0.2502  1.6161  0.2182
 6030SOL     OW18667   4.077   1.796   7.858  0.2948 -0.3132  0.1543
 6030SOL    HW118668   4.118   1.880   7.876  0.3967 -0.5659  1.1929
 6030SOL    HW218669   4.019   1.782   7.933  0.8291 -1.4955  0.3669
 6031SOL     OW18670   0.119   1.988   8.383  0.2785  0.1505  0.0700
 6031SOL    HW118671   0.184   1.919   8.367 -0.9617 -1.0521 -0.0134
 6031SOL    HW218672   0.132   2.013   8.474  0.3883 -0.6061  0.2708
 6032SOL     OW18673   3.822   4.366   9.267 -0.3545  0.4279  0.2809
 6032SOL    HW118674   3.784   4.444   9.226 -0.9636  0.0141  0.0565
 6032SOL    HW218675   3.907   4.357   9.223 -0.5886  0.5494 -0.2112
 6033SOL     OW18676   8.258   7.374   3.874 -0.0301 -0.3840  0.4372
 6033SOL    HW118677   8.187   7.433   3.897 -0.3545 -0.4627 -0.3236
 6033SOL    HW218678   8.216   7.302   3.826  0.5034 -0.6430  0.3404
 6034SOL     OW18679   5.171   8.625   3.584  0.1041  0.1930  0.5729
 6034SOL    HW118680   5.136   8.572   3.656 -2.1971  0.4094 -0.2753
 6034SOL    HW218681   5.130   8.711   3.597  1.7164  1.0067  0.4484
 6035SOL     OW18682   8.918   7.096   4.896  0.2395 -0.2345  0.0175
 6035SOL    HW118683   8.930   7.010   4.935 -1.0296 -0.7567 -0.6688
 6035SOL    HW218684   8.909   7.156   4.970 -1.6604 -1.1290  0.5573
 6036SOL     OW18685   9.807   7.963   5.679 -0.7404 -0.0377  0.4450
 6036SOL    HW118686   9.796   7.952   5.773 -0.1078 -0.6191  0.4634
 6036SOL    HW218687   9.741   7.907   5.639  0.8891 -2.1734  0.5529
 6037SOL     OW18688   5.628   9.827   4.394  0.2681 -0.0948  0.1632
 6037SOL    HW118689   5.609   9.914   4.430  0.7259 -0.6036  1.7228
 6037SOL    HW218690   5.616   9.768   4.468  1.8065 -1.1307 -0.3764
 6038SOL     OW18691   7.407   3.145   5.967  0.2663 -0.0804 -0.3812
 6038SOL    HW118692   7.320   3.112   5.946 -0.1662  0.4657  0.4979
 6038SOL    HW218693   7.458   3.068   5.990 -0.2501 -0.3149 -0.0070
 6039SOL     OW18694   4.623   2.335   2.786  0.2482  0.5663  0.0425
 6039SOL    HW118695   4.714   2.328   2.757  0.1730 -1.5732  0.1459
 6039SOL    HW218696   4.626   2.312   2.878 -0.6121 -1.6562 -0.4314
 6040SOL     OW18697   0.920   8.329   7.415 -0.2521 -0.2674 -0.1550
 6040SOL    HW118698   0.923   8.386   7.338  0.1550 -0.8526 -0.5772
 6040SOL    HW218699   0.912   8.389   7.489 -1.2659  0.2771 -0.6898
 6041SOL     OW18700   4.815   5.307   0.246  0.5380 -0.0471 -0.1590
 6041SOL    HW118701   4.811   5.262   0.330  0.2787 -0.1741 -0.2381
 6041SOL    HW218702   4.760   5.254   0.188  1.3217 -0.3783 -0.6033
 6042SOL     OW18703   7.135   1.305   4.955  0.2568 -0.0919  0.1329
 6042SOL    HW118704   7.197   1.292   5.027 -0.1937  0.4485  0.6298
 6042SOL    HW218705   7.182   1.274   4.877  1.1718  0.3629  0.4892
 6043SOL     OW18706   1.525   3.921   8.574 -0.0591 -0.4496 -0.0664
 6043SOL    HW118707   1.606   3.887   8.536  0.7658 -1.3266  2.2867
 6043SOL    HW218708   1.481   3.844   8.609 -2.1216 -0.0253 -1.5524
 6044SOL     OW18709   3.987   9.857   1.199 -0.8675  0.0358  0.1995
 6044SOL    HW118710   3.982   9.806   1.118  2.1378  1.1762 -0.8439
 6044SOL    HW218711   3.896   9.883   1.216 -1.7361 -1.0454 -2.2635
 6045SOL     OW18712   4.725   4.720   7.175  0.1686  0.2077 -0.1183
 6045SOL    HW118713   4.689   4.780   7.110 -1.8307 -0.5338  0.2287
 6045SOL    HW218714   4.708   4.763   7.259  0.9731  0.2594  0.0319
 6046SOL     OW18715   6.421   1.985   4.102 -0.2214  0.2863  0.0937
 6046SOL    HW118716   6.398   2.044   4.030 -0.2433  2.9587  2.1439
 6046SOL    HW218717   6.349   1.995   4.164 -0.1030 -1.8013  0.6365
 6047SOL     OW18718   0.169   4.275   3.512  0.3479 -0.1407 -0.4637
 6047SOL    HW118719   0.257   4.284   3.475  0.1681  1.5330 -0.5564
 6047SOL    HW218720   0.172   4.324   3.594  0.7199 -3.7283  1.9147
 6048SOL     OW18721   3.145   5.526   2.702  0.0465  0.1925 -0.2463
 6048SOL    HW118722   3.144   5.595   2.635 -0.4465  0.4370  0.0089
 6048SOL    HW218723   3.053   5.513   2.725  0.3076  1.6886  1.9642
 6049SOL     OW18724   2.206   4.481   8.979  0.2597 -0.3395  0.5482
 6049SOL    HW118725   2.132   4.526   9.020  0.9744  0.1528  1.3251
 6049SOL    HW218726   2.242   4.426   9.048 -0.0642 -1.4603 -0.1508
 6050SOL     OW18727   5.051   9.138   0.374 -0.5583  0.2394  0.3640
 6050SOL    HW118728   5.126   9.148   0.433 -1.2363  0.4278  1.2158
 6050SOL    HW218729   4.976   9.123   0.433 -1.5129  1.9100 -0.3520
 6051SOL     OW18730   5.426   0.273   0.088  0.3834 -0.0749 -0.6400
 6051SOL    HW118731   5.436   0.179   0.071  1.6561  0.0164 -0.4563
 6051SOL    HW218732   5.346   0.279   0.141 -0.5417 -0.8964 -1.9051
 6052SOL     OW18733   4.860   2.285   0.189 -0.0849  0.0909  0.4426
 6052SOL    HW118734   4.766   2.273   0.201 -0.2868 -0.0117 -1.0808
 6052SOL    HW218735   4.883   2.357   0.247 -0.9534 -0.3727  1.3919
 6053SOL     OW18736   7.199   0.881   1.802  0.0028 -0.2907 -0.2643
 6053SOL    HW118737   7.182   0.972   1.780  0.5535 -0.3118 -0.8012
 6053SOL    HW218738   7.161   0.869   1.889  0.7768  0.7032  0.2237
 6054SOL     OW18739   9.692   6.634   5.907 -0.3782  0.1275  0.6090
 6054SOL    HW118740   9.658   6.723   5.897 -1.1941 -0.3596 -1.8165
 6054SOL    HW218741   9.784   6.642   5.881 -0.7422  0.1181 -0.7990
 6055SOL     OW18742   8.163   9.436   9.720  0.8737  0.3243 -0.3955
 6055SOL    HW118743   8.214   9.516   9.727  1.3577 -0.0258  0.1694
 6055SOL    HW218744   8.171   9.411   9.628 -0.4537  1.6690 -0.9096
 6056SOL     OW18745   5.368   4.724   7.365  0.8093 -0.6471  0.3320
 6056SOL    HW118746   5.444   4.760   7.318 -1.5227 -0.0649 -3.4342
 6056SOL    HW218747   5.354   4.784   7.438  0.7074  2.6805 -2.1674
 6057SOL     OW18748   7.510   2.614   6.552  0.3826 -0.8689 -0.7825
 6057SOL    HW118749   7.556   2.640   6.632 -0.7259 -0.3641 -0.2890
 6057SOL    HW218750   7.520   2.688   6.493  1.3321 -1.3039 -1.1778
 6058SOL     OW18751   2.490   0.935   2.540 -0.2168  0.0470 -0.0853
 6058SOL    HW118752   2.524   0.851   2.571 -0.9835 -0.4980 -0.6936
 6058SOL    HW218753   2.568   0.982   2.509  0.1046 -0.8299 -0.6454
 6059SOL     OW18754   0.095   5.466   5.740  0.2988 -0.2781 -0.4311
 6059SOL    HW118755   0.078   5.410   5.815 -0.7376 -0.5128 -0.8261
 6059SOL    HW218756   0.034   5.539   5.750  3.3137  2.2395  1.4521
 6060SOL     OW18757   6.533   8.470   7.076 -0.0427 -0.0529  0.3027
 6060SOL    HW118758   6.478   8.507   7.145 -0.0630 -0.3792  0.4614
 6060SOL    HW218759   6.551   8.381   7.105  0.0741 -0.1412 -0.0401
 6061SOL     OW18760   3.631   9.441   9.783 -0.7692  0.8719 -0.2563
 6061SOL    HW118761   3.573   9.365   9.778 -0.9976  1.0609 -0.6091
 6061SOL    HW218762   3.616   9.478   9.870  0.1923 -0.1415  0.3607
 6062SOL     OW18763   4.820   2.384   3.815  0.1957 -0.6085 -0.1043
 6062SOL    HW118764   4.813   2.383   3.720  1.3913  0.2835 -0.2260
 6062SOL    HW218765   4.777   2.466   3.841  0.6502 -0.4098  0.0359
 6063SOL     OW18766   2.104   6.933   2.075  0.2881  0.3608 -0.6223
 6063SOL    HW118767   2.130   6.845   2.102 -0.8331  0.0067 -0.6558
 6063SOL    HW218768   2.094   6.981   2.157  0.6832  0.4061 -0.5957
 6064SOL     OW18769   6.849   3.135   0.789  0.4196  0.0299  0.1037
 6064SOL    HW118770   6.766   3.090   0.774  0.5553 -0.2348  0.1441
 6064SOL    HW218771   6.881   3.156   0.701  0.5234 -0.2622  0.0697
 6065SOL     OW18772   7.126   2.915   1.368  0.0486 -0.3796  0.4871
 6065SOL    HW118773   7.095   2.972   1.298  0.7285 -0.3539  0.2002
 6065SOL    HW218774   7.050   2.902   1.423 -0.8737 -1.4997 -0.9874
 6066SOL     OW18775   4.267   1.184   0.786 -0.2828  0.4276  0.0177
 6066SOL    HW118776   4.327   1.184   0.711 -0.2636 -0.5774  0.0081
 6066SOL    HW218777   4.309   1.125   0.849  0.3289  2.2419  1.3650
 6067SOL     OW18778   9.890   4.599   2.741  0.3106  0.1787 -0.7317
 6067SOL    HW118779   9.807   4.640   2.715  0.5517 -0.3850 -2.5708
 6067SOL    HW218780   9.879   4.506   2.719  0.2245 -0.6016  2.2040
 6068SOL     OW18781   2.357   8.248   8.239 -0.2593  0.5219 -0.2251
 6068SOL    HW118782   2.394   8.223   8.324  1.7208 -0.5862 -1.3425
 6068SOL    HW218783   2.264   8.230   8.248  0.2438 -2.0132  0.9440
 6069SOL     OW18784   0.033   0.045   0.013 -0.1068  0.1565  0.2361
 6069SOL    HW118785   0.067   0.013   0.097  1.0554  0.0055 -0.2740
 6069SOL    HW218786   0.036  -0.031  -0.045 -0.7798  0.2935  0.0094
 6070SOL     OW18787   6.898   5.803   4.281 -0.3084  0.0826  0.4867
 6070SOL    HW118788   6.985   5.787   4.318 -0.3415  0.7901  0.8787
 6070SOL    HW218789   6.849   5.723   4.300  0.7573 -1.0533 -1.2748
 6071SOL     OW18790   2.101   7.832   3.123  0.2963  0.5068 -0.4369
 6071SOL    HW118791   2.106   7.745   3.162  1.6934  0.9496  0.4827
 6071SOL    HW218792   2.124   7.818   3.031  0.9687 -0.0559 -0.1988
 6072SOL     OW18793   7.257   2.019   1.025  0.1859 -0.3535  0.3005
 6072SOL    HW118794   7.218   1.970   1.097  1.3375 -2.2633 -0.2930
 6072SOL    HW218795   7.185   2.035   0.964  0.0578 -2.9601 -0.3276
 6073SOL     OW18796   3.233   3.232   2.188 -0.6354 -0.1563 -0.3970
 6073SOL    HW118797   3.311   3.265   2.143 -0.0840 -0.1928  0.4998
 6073SOL    HW218798   3.208   3.303   2.247 -1.0580 -0.2882 -0.4163
 6074SOL     OW18799   1.370   4.875   6.806 -0.4980  0.4253  0.5946
 6074SOL    HW118800   1.379   4.780   6.810  0.4482  0.2886 -2.6172
 6074SOL    HW218801   1.456   4.909   6.831 -0.0229  0.2899 -0.7804
 6075SOL     OW18802   3.690   5.069   1.730  0.5401 -0.4522  0.1986
 6075SOL    HW118803   3.733   4.993   1.692  0.9961 -0.0384 -0.1145
 6075SOL    HW218804   3.759   5.114   1.778  0.7824  0.9305 -1.3852
 6076SOL     OW18805   9.158   9.452   4.379  0.0542 -0.2405  0.4411
 6076SOL    HW118806   9.243   9.463   4.422  0.5548 -0.6573 -0.4009
 6076SOL    HW218807   9.142   9.535   4.335 -0.1898 -0.0100  0.9585
 6077SOL     OW18808   0.455   1.218   8.823 -0.4313 -0.1730 -0.2768
 6077SOL    HW118809   0.547   1.208   8.848 -0.1928  1.2027 -0.5418
 6077SOL    HW218810   0.414   1.136   8.852  1.3415 -1.9734 -2.4655
 6078SOL     OW18811   2.086   4.251   6.465 -0.1856 -0.3319  0.1629
 6078SOL    HW118812   2.161   4.192   6.455 -1.0720 -1.3705 -0.6549
 6078SOL    HW218813   2.033   4.236   6.387 -1.2549  0.3850  0.7158
 6079SOL     OW18814   2.890   2.563   8.712  0.4598  0.1347  0.1384
 6079SOL    HW118815   2.954   2.580   8.782  0.2806  0.2236  0.2815
 6079SOL    HW218816   2.819   2.515   8.756  0.0918  0.6733  0.1384
 6080SOL     OW18817   6.249   7.800   1.658 -0.0975  0.5425  0.5790
 6080SOL    HW118818   6.291   7.715   1.643 -0.0687  0.8495 -1.2504
 6080SOL    HW218819   6.167   7.779   1.701  0.5465 -0.2910  1.4463
 6081SOL     OW18820   9.343   0.450   0.198  0.7498 -0.2484  0.6983
 6081SOL    HW118821   9.432   0.414   0.201  0.7982 -0.1554  0.4864
 6081SOL    HW218822   9.344   0.521   0.262  0.3552 -1.2533  1.8507
 6082SOL     OW18823   5.708   8.501   6.583  0.6350 -0.3083 -0.2694
 6082SOL    HW118824   5.733   8.491   6.675  1.2884  0.1835 -0.3837
 6082SOL    HW218825   5.668   8.417   6.560  0.5031 -0.4498  0.4494
 6083SOL     OW18826   4.955   6.034   6.278 -0.3705 -0.1099  0.0558
 6083SOL    HW118827   4.932   5.949   6.239 -1.4854  0.9577 -1.7608
 6083SOL    HW218828   4.918   6.030   6.367 -1.2820 -1.1766 -0.3430
 6084SOL     OW18829   8.111   8.642   6.361 -1.1834 -0.6398  0.8277
 6084SOL    HW118830   8.034   8.653   6.306 -1.6482  2.6553  1.9505
 6084SOL    HW218831   8.177   8.605   6.302 -3.0881 -2.1240 -0.5311
 6085SOL     OW18832   3.809   6.953   3.741 -0.1667 -0.2087 -0.5194
 6085SOL    HW118833   3.851   7.006   3.674  0.2744 -1.6700 -1.4225
 6085SOL    HW218834   3.848   6.866   3.732 -1.1777 -0.8161  0.6509
 6086SOL     OW18835   0.665   3.353   8.413  0.3108 -0.0002  0.0030
 6086SOL    HW118836   0.706   3.303   8.484 -0.3330  0.2083  0.5266
 6086SOL    HW218837   0.572   3.353   8.434  0.3421  1.9558  0.3958
 6087SOL     OW18838   9.286   5.501   5.546 -0.7743  0.3657  0.1665
 6087SOL    HW118839   9.319   5.438   5.483  0.3759  1.8977 -0.8411
 6087SOL    HW218840   9.313   5.466   5.631 -0.5669 -0.7183 -0.3296
 6088SOL     OW18841   7.162   5.329   2.932  0.6960 -0.4057  0.1670
 6088SOL    HW118842   7.189   5.381   2.856  0.2878 -1.8686 -1.0336
 6088SOL    HW218843   7.070   5.353   2.947  1.3962  1.5752  1.6997
 6089SOL     OW18844   4.563   9.068   3.198  0.2394  0.1841 -0.3038
 6089SOL    HW118845   4.647   9.022   3.187 -0.1205 -0.4940 -0.2536
 6089SOL    HW218846   4.553   9.078   3.293  0.4673  0.6556 -0.3266
 6090SOL     OW18847   2.266   0.969   9.098  1.0108  0.1142  0.3689
 6090SOL    HW118848   2.333   1.034   9.119 -0.4242  1.5353  0.7766
 6090SOL    HW218849   2.206   1.014   9.039  0.7376 -1.3394 -0.5227
 6091SOL     OW18850   9.226   3.220   5.778 -0.5649 -0.2754 -0.0254
 6091SOL    HW118851   9.319   3.237   5.765 -0.7884  0.4493 -0.7700
 6091SOL    HW218852   9.191   3.302   5.812 -1.2592  0.1069 -1.5551
 6092SOL     OW18853   0.646   4.622   8.345  0.1158  0.0439 -0.2866
 6092SOL    HW118854   0.662   4.707   8.304  1.4510  0.2526  0.5925
 6092SOL    HW218855   0.700   4.561   8.295 -0.5482 -0.2411 -0.6752
 6093SOL     OW18856   9.663   8.681   8.906  0.8780  0.4702 -0.2808
 6093SOL    HW118857   9.594   8.731   8.951  1.9053  2.1617 -0.5208
 6093SOL    HW218858   9.621   8.650   8.826 -0.3761 -0.8554  0.8339
 6094SOL     OW18859   6.544   8.562   9.750  0.0142  0.8335 -0.7399
 6094SOL    HW118860   6.544   8.490   9.687  0.9299  0.3106 -0.1537
 6094SOL    HW218861   6.458   8.604   9.738 -0.2141  0.1355 -1.6309
 6095SOL     OW18862   8.719   7.291   4.007 -0.0905 -0.2167  0.1585
 6095SOL    HW118863   8.735   7.249   3.923 -0.8364  0.2739 -0.2379
 6095SOL    HW218864   8.697   7.220   4.066  1.9368 -0.7521  0.3536
 6096SOL     OW18865   4.743   5.363   1.544 -0.8243 -0.1551 -0.1656
 6096SOL    HW118866   4.664   5.384   1.592 -1.3538 -0.5450 -0.8462
 6096SOL    HW218867   4.814   5.373   1.608 -1.5704 -1.4628  0.9089
 6097SOL     OW18868   6.775   6.672   8.819  0.8113  0.4243 -0.4724
 6097SOL    HW118869   6.810   6.634   8.900 -0.9533  1.7517  0.9846
 6097SOL    HW218870   6.738   6.597   8.772 -0.1604 -0.0932  1.0443
 6098SOL     OW18871   2.273   6.625   3.355  0.4859 -0.3267 -0.0304
 6098SOL    HW118872   2.245   6.716   3.342 -1.1275 -0.7199  0.5061
 6098SOL    HW218873   2.318   6.625   3.439 -1.2739 -0.3710  0.9449
 6099SOL     OW18874   0.255   5.235   5.582  0.2226  0.6589 -0.6799
 6099SOL    HW118875   0.212   5.152   5.601  3.0251 -0.6933  0.2956
 6099SOL    HW218876   0.216   5.297   5.643  0.3088 -0.7076  0.8307
 6100SOL     OW18877   8.853   0.780   1.366 -0.5334 -0.4718  0.1166
 6100SOL    HW118878   8.829   0.820   1.283 -2.4921 -0.4445  0.6568
 6100SOL    HW218879   8.834   0.847   1.432 -0.4537 -1.0387  0.7255
 6101SOL     OW18880   7.750   9.409   0.137 -0.2989 -0.0714  0.0081
 6101SOL    HW118881   7.730   9.359   0.216  0.5668  1.8651  1.5478
 6101SOL    HW218882   7.843   9.391   0.120 -0.2464  0.2286 -0.0243
 6102SOL     OW18883   2.196   6.298   4.580  0.5372 -0.9758  0.1074
 6102SOL    HW118884   2.254   6.282   4.654  1.7179 -1.2100 -0.8399
 6102SOL    HW218885   2.236   6.252   4.507 -1.0718 -1.4883 -0.5033
 6103SOL     OW18886   4.534   4.901   1.113  0.4159 -0.1414  0.1807
 6103SOL    HW118887   4.467   4.906   1.044  1.2713  0.2754 -0.6536
 6103SOL    HW218888   4.555   4.992   1.132 -0.9214 -0.1874  2.1576
 6104SOL     OW18889   2.325   5.696   0.099  0.1311  0.7469 -0.1574
 6104SOL    HW118890   2.317   5.789   0.119 -1.4425  0.5124  0.4566
 6104SOL    HW218891   2.352   5.656   0.182  2.2576  0.7957 -0.7728
 6105SOL     OW18892   6.476   2.430   4.672 -0.6588  0.4880 -1.0783
 6105SOL    HW118893   6.397   2.413   4.621 -0.2483  2.0127 -2.2801
 6105SOL    HW218894   6.547   2.429   4.608  0.4404 -1.5329  0.0686
 6106SOL     OW18895   6.149   7.489   3.941  0.4557 -0.0639 -0.4281
 6106SOL    HW118896   6.199   7.408   3.956  1.4121  0.5722 -0.1150
 6106SOL    HW218897   6.172   7.545   4.015 -1.5634 -0.1271  0.3247
 6107SOL     OW18898   6.199   3.607   8.305  0.2287  0.4821 -0.4081
 6107SOL    HW118899   6.226   3.516   8.293  2.4777  0.6488  2.3810
 6107SOL    HW218900   6.162   3.610   8.393  0.1137  2.2507 -0.4795
 6108SOL     OW18901   3.034   2.724   5.662  0.3560  0.5439  0.0709
 6108SOL    HW118902   2.980   2.751   5.587  0.9878 -0.2798 -0.6866
 6108SOL    HW218903   2.999   2.775   5.735 -0.2486  1.3898 -0.7821
 6109SOL     OW18904   1.361   1.151   1.052 -0.3244  0.2746  0.0458
 6109SOL    HW118905   1.339   1.237   1.088 -1.1757 -0.0216  0.2642
 6109SOL    HW218906   1.429   1.168   0.988  1.0398  0.8513  1.5872
 6110SOL     OW18907   9.746   8.131   9.503 -0.5016 -0.3849  0.3756
 6110SOL    HW118908   9.817   8.108   9.444  0.0030 -0.7205  1.0962
 6110SOL    HW218909   9.756   8.225   9.517 -0.7394 -0.2693 -0.2149
 6111SOL     OW18910   4.730   2.134   1.830  0.5611  0.3886  0.3372
 6111SOL    HW118911   4.687   2.147   1.915 -1.6003 -1.0268 -0.4475
 6111SOL    HW218912   4.742   2.223   1.796 -0.2570  0.9028  1.3186
 6112SOL     OW18913   1.767   2.593   0.485 -0.2458  0.2047 -0.5735
 6112SOL    HW118914   1.695   2.656   0.492 -0.1664  0.1967  0.5824
 6112SOL    HW218915   1.845   2.647   0.475 -0.3914  0.2191 -1.6514
 6113SOL     OW18916   7.888   9.657   4.677  0.3124  0.1636  0.5721
 6113SOL    HW118917   7.877   9.596   4.750 -0.4109 -0.1039  0.2557
 6113SOL    HW218918   7.819   9.632   4.615  1.8624 -0.6215 -0.9112
 6114SOL     OW18919   2.445   9.206   1.349  0.2250  0.3269  0.3055
 6114SOL    HW118920   2.472   9.119   1.378 -0.9141  0.3350  1.4528
 6114SOL    HW218921   2.480   9.214   1.261 -0.9915 -1.9274 -0.4427
 6115SOL     OW18922   7.602   2.721   3.686  0.2064  0.7513  0.7790
 6115SOL    HW118923   7.527   2.750   3.738  0.6185 -0.1242  1.9059
 6115SOL    HW218924   7.660   2.679   3.749  1.4942  1.0878 -0.1307
 6116SOL     OW18925   3.451   5.416   8.555 -0.1394  0.2970 -0.1659
 6116SOL    HW118926   3.532   5.375   8.524 -0.8084 -1.0257 -0.2220
 6116SOL    HW218927   3.474   5.508   8.568  1.1865  0.0799 -0.8390
 6117SOL     OW18928   8.011   4.739   3.884 -0.1734 -0.7444 -0.2229
 6117SOL    HW118929   7.971   4.669   3.936  0.8448 -0.7054  0.6508
 6117SOL    HW218930   8.093   4.700   3.851  1.8551  0.8010  2.5760
 6118SOL     OW18931   9.366   7.829   4.026  0.4943  0.1099  0.7188
 6118SOL    HW118932   9.431   7.895   4.001  0.9813 -0.1188  1.3655
 6118SOL    HW218933   9.303   7.829   3.954  0.3627  1.4449  0.8228
 6119SOL     OW18934   7.739   3.832   5.447  0.2077  0.2999 -0.2816
 6119SOL    HW118935   7.780   3.852   5.532  0.0276 -0.1370 -0.0913
 6119SOL    HW218936   7.681   3.759   5.465  0.1579  0.2134 -0.7858
 6120SOL     OW18937   8.007   2.895   4.440  0.0068  0.1450 -0.2163
 6120SOL    HW118938   8.070   2.829   4.411 -2.0286 -2.4163  0.7492
 6120SOL    HW218939   8.058   2.974   4.452  3.0787 -1.8019  0.6328
 6121SOL     OW18940   6.547   6.989   9.303  0.4822  0.5715  0.0090
 6121SOL    HW118941   6.637   7.015   9.287  0.6224  0.2588  0.2823
 6121SOL    HW218942   6.532   7.006   9.396 -0.0919  1.6555 -0.2562
 6122SOL     OW18943   6.601   7.370   5.080  0.1410  0.2863 -0.2671
 6122SOL    HW118944   6.597   7.402   5.170  0.1746 -1.8972  0.5575
 6122SOL    HW218945   6.636   7.444   5.030 -0.7233  1.8507  1.3275
 6123SOL     OW18946   9.355   0.986   9.409 -0.2079 -0.1110 -0.5022
 6123SOL    HW118947   9.313   1.073   9.411 -1.0168 -0.4721 -1.0684
 6123SOL    HW218948   9.367   0.968   9.316  1.0225 -0.1297 -0.3598
 6124SOL     OW18949   7.743   3.493   2.505 -0.2708 -0.0750  0.0362
 6124SOL    HW118950   7.776   3.545   2.432 -3.1179  0.1693 -1.1721
 6124SOL    HW218951   7.745   3.552   2.580 -1.7484  1.2646 -0.9217
 6125SOL     OW18952   0.542   3.841   2.748 -0.1322 -0.0591 -0.0234
 6125SOL    HW118953   0.502   3.914   2.700 -0.5204  0.3571  0.9059
 6125SOL    HW218954   0.629   3.872   2.771  0.0737 -0.2790 -0.4903
 6126SOL     OW18955   1.922   6.978   6.205  0.1876 -0.3747  0.4719
 6126SOL    HW118956   1.983   6.916   6.165 -1.3164 -0.9251 -1.0998
 6126SOL    HW218957   1.902   7.040   6.135 -1.0186 -0.1949  0.9599
 6127SOL     OW18958   6.925   5.854   0.308  0.0485  0.1427 -0.4531
 6127SOL    HW118959   6.967   5.928   0.352 -1.8090  0.7670  0.4080
 6127SOL    HW218960   6.978   5.838   0.231  2.2153  0.4223  0.8866
 6128SOL     OW18961   4.001   4.844   5.653 -0.5453  0.0173  0.1452
 6128SOL    HW118962   4.012   4.929   5.610  0.7894  0.3234  1.0170
 6128SOL    HW218963   4.010   4.779   5.584 -0.0389  0.5497 -0.2964
 6129SOL     OW18964   4.006   1.324   2.670  0.0835 -0.2911  0.5351
 6129SOL    HW118965   3.948   1.334   2.595 -1.0180 -0.7836  1.2940
 6129SOL    HW218966   3.977   1.244   2.713  0.5354  0.0987  1.6135
 6130SOL     OW18967   2.212   4.087   7.414  0.3987  0.3911 -0.1500
 6130SOL    HW118968   2.214   4.081   7.319  2.1292  0.9211 -0.1937
 6130SOL    HW218969   2.305   4.088   7.440 -0.0351 -0.0169  1.5541
 6131SOL     OW18970   8.749   2.451   3.102  1.4772 -0.8665  0.1457
 6131SOL    HW118971   8.792   2.459   3.188  0.5460  0.1010  0.5397
 6131SOL    HW218972   8.762   2.536   3.060 -0.7496 -0.2018  0.6427
 6132SOL     OW18973   9.534   1.378   0.877 -0.6265  0.3319 -0.3220
 6132SOL    HW118974   9.532   1.345   0.787  0.8080  2.6588 -1.3104
 6132SOL    HW218975   9.606   1.332   0.918 -0.6908 -0.0724 -0.6528
 6133SOL     OW18976   1.811   9.592   5.515  0.0497  0.3455 -0.2212
 6133SOL    HW118977   1.778   9.638   5.437 -1.8936  0.5200  0.6593
 6133SOL    HW218978   1.906   9.585   5.500 -0.1382  1.2588 -2.1274
 6134SOL     OW18979   5.990   2.334   7.775 -0.5441 -0.3469  0.9035
 6134SOL    HW118980   5.987   2.408   7.715  1.0669 -0.5123  0.5762
 6134SOL    HW218981   5.922   2.353   7.839 -1.7818  0.2152 -0.5122
 6135SOL     OW18982   6.901   2.836   1.522  0.0354 -0.2973  0.5201
 6135SOL    HW118983   6.963   2.802   1.586  1.0445 -0.1945 -0.3545
 6135SOL    HW218984   6.861   2.912   1.564  1.3909  0.3480  0.6903
 6136SOL     OW18985   0.709   8.084   9.513  0.3523 -0.1463  0.0825
 6136SOL    HW118986   0.791   8.107   9.469  0.4038  0.7695  0.6476
 6136SOL    HW218987   0.723   8.105   9.605 -0.7186  0.5883  0.0990
 6137SOL     OW18988   2.547   1.047   4.445  0.1619  0.0586  0.3909
 6137SOL    HW118989   2.581   0.959   4.428 -0.5224  0.0031 -0.7851
 6137SOL    HW218990   2.452   1.036   4.446  0.0152  0.9473 -0.8960
 6138SOL     OW18991   0.990   2.771   7.472 -0.9122  0.2408  0.6714
 6138SOL    HW118992   0.940   2.845   7.507 -2.1480  0.4244 -1.2822
 6138SOL    HW218993   1.042   2.808   7.401  1.2455 -0.1661  1.9737
 6139SOL     OW18994   6.319   0.717   8.386 -0.4399  0.0026  0.5395
 6139SOL    HW118995   6.271   0.636   8.404  1.7383 -1.2087  1.2420
 6139SOL    HW218996   6.347   0.709   8.295  1.3864 -1.0045  1.1332
 6140SOL     OW18997   4.866   2.128   3.621  0.1652 -1.0031 -0.3272
 6140SOL    HW118998   4.897   2.139   3.710  0.0064  0.6420 -0.4565
 6140SOL    HW218999   4.945   2.130   3.567  0.2956 -2.3360 -0.2322
 6141SOL     OW19000   0.442   2.678   7.442 -0.1362 -0.1460  0.5348
 6141SOL    HW119001   0.429   2.640   7.529  0.4255 -0.5143  0.4579
 6141SOL    HW219002   0.364   2.652   7.393  0.6262 -1.9418  0.2209
 6142SOL     OW19003   4.958   6.695   6.538  0.0042  0.3242  0.0887
 6142SOL    HW119004   5.021   6.669   6.606 -0.1018  3.4624  1.5513
 6142SOL    HW219005   4.883   6.728   6.587 -1.4750 -0.3413 -1.6403
 6143SOL     OW19006   5.748   8.983   0.048 -0.0211  0.0031 -0.0591
 6143SOL    HW119007   5.842   9.001   0.045 -0.0903  0.3108 -0.4197
 6143SOL    HW219008   5.742   8.899   0.094  0.4990 -0.5588 -0.9850
 6144SOL     OW19009   3.425   3.261   5.087  0.4252  0.1121 -0.4327
 6144SOL    HW119010   3.364   3.229   5.154 -0.5419 -0.0951 -1.3854
 6144SOL    HW219011   3.512   3.236   5.120 -0.1166 -1.0814  0.1514
 6145SOL     OW19012   8.077   7.756   7.535  0.2548 -0.0652  0.0193
 6145SOL    HW119013   8.151   7.808   7.569  0.1683  0.4705 -0.5915
 6145SOL    HW219014   8.071   7.781   7.443 -0.6969 -0.1109  0.0660
 6146SOL     OW19015   8.805   1.842   7.234 -0.1981  0.1818 -0.4896
 6146SOL    HW119016   8.744   1.810   7.168  0.9003 -0.6512 -1.1341
 6146SOL    HW219017   8.873   1.775   7.239  1.3361  1.6456 -0.7182
 6147SOL     OW19018   7.091   9.434   5.585  0.2122  0.1135 -0.6168
 6147SOL    HW119019   7.135   9.519   5.582  0.6220 -0.0224  0.8185
 6147SOL    HW219020   7.160   9.370   5.568  0.0658  0.0220 -0.8743
 6148SOL     OW19021   6.733   5.654   8.348 -0.1693  0.4115  0.1275
 6148SOL    HW119022   6.826   5.633   8.347 -0.1457  0.2797  2.1958
 6148SOL    HW219023   6.689   5.569   8.351 -0.4368  0.4358 -1.7089
 6149SOL     OW19024   4.502   3.036   8.157  0.3117  0.2871 -0.3685
 6149SOL    HW119025   4.557   3.089   8.215  0.4970 -0.1296 -0.1518
 6149SOL    HW219026   4.436   3.096   8.124 -1.0124  0.1322  1.8187
 6150SOL     OW19027   5.134   9.887   4.416 -0.1733  0.1951 -0.4112
 6150SOL    HW119028   5.114   9.881   4.509  0.7407  0.8404 -0.1619
 6150SOL    HW219029   5.216   9.935   4.412 -0.8125  1.2403 -1.6132
 6151SOL     OW19030   2.890   5.100   8.323  0.0036 -0.0087  0.3231
 6151SOL    HW119031   2.948   5.078   8.396 -0.3266 -1.7926  0.0801
 6151SOL    HW219032   2.923   5.049   8.250 -1.2872 -0.2958 -0.0820
 6152SOL     OW19033   8.960   9.453   8.084  0.0574 -0.4410 -0.0528
 6152SOL    HW119034   8.942   9.544   8.106  0.7469 -0.3046 -0.0335
 6152SOL    HW219035   9.000   9.457   7.997 -0.5485 -0.7882 -0.3582
 6153SOL     OW19036   8.968   8.199   1.368  0.1313 -0.6700 -0.5280
 6153SOL    HW119037   8.879   8.189   1.334 -0.0995  0.2899 -0.2410
 6153SOL    HW219038   8.971   8.144   1.446 -0.7715  0.5922  0.4419
 6154SOL     OW19039   8.475   9.112   8.500 -0.6624 -0.1854  0.0344
 6154SOL    HW119040   8.407   9.113   8.432 -0.0935 -1.1894 -0.5697
 6154SOL    HW219041   8.537   9.180   8.472  0.2776 -1.5092 -1.2287
 6155SOL     OW19042   9.425   6.749   7.542 -0.2596  0.6864  0.0551
 6155SOL    HW119043   9.451   6.678   7.482  0.6778  1.6450 -0.7156
 6155SOL    HW219044   9.492   6.816   7.530  0.5682  0.4863  3.0137
 6156SOL     OW19045   6.213   7.856   8.094 -0.3625 -0.0587  0.0147
 6156SOL    HW119046   6.220   7.832   8.001 -1.0514  1.2930 -0.4024
 6156SOL    HW219047   6.286   7.916   8.109 -1.1208  0.8961 -0.0478
 6157SOL     OW19048   7.289   9.184   1.869  0.2575 -0.0421  0.0294
 6157SOL    HW119049   7.300   9.228   1.953 -1.0663 -0.9593  0.7129
 6157SOL    HW219050   7.229   9.241   1.820 -1.1094 -0.7968  0.7518
 6158SOL     OW19051   6.330   3.733   8.553 -0.4073 -0.5422 -0.7849
 6158SOL    HW119052   6.261   3.749   8.489 -0.1499 -1.9923 -1.4756
 6158SOL    HW219053   6.310   3.792   8.626 -0.7008  1.1555 -2.1847
 6159SOL     OW19054   4.973   8.748   4.394 -0.4806  0.1652 -0.4745
 6159SOL    HW119055   4.943   8.815   4.332 -0.3937  1.6561  1.0254
 6159SOL    HW219056   5.068   8.758   4.396 -0.4685 -0.0075 -0.2310
 6160SOL     OW19057   8.526   3.011   8.423 -0.3680 -0.5699  0.1253
 6160SOL    HW119058   8.456   3.047   8.478  0.9716 -0.5625  1.9105
 6160SOL    HW219059   8.607   3.036   8.468  0.7849 -0.9385 -1.6575
 6161SOL     OW19060   6.697   8.142   3.668 -0.0936  0.0791 -0.0438
 6161SOL    HW119061   6.775   8.194   3.647 -1.5829  1.6698 -2.0601
 6161SOL    HW219062   6.656   8.189   3.741  0.2535 -0.1342  0.2908
 6162SOL     OW19063   0.819   9.980   8.017 -0.2847 -0.5671 -0.6008
 6162SOL    HW119064   0.730   9.948   8.036  0.2523 -1.1345  1.1198
 6162SOL    HW219065   0.874   9.902   8.024  0.5408  0.0361 -0.2867
 6163SOL     OW19066   9.700   6.510   1.706 -0.2006  0.3922  0.3170
 6163SOL    HW119067   9.632   6.459   1.750 -2.4068  2.6509 -0.2830
 6163SOL    HW219068   9.747   6.553   1.777 -0.0218 -0.3713  0.6823
 6164SOL     OW19069   4.480   0.558   2.023  0.2959 -0.1456  0.2104
 6164SOL    HW119070   4.551   0.556   2.087  0.4829 -1.2279 -0.0062
 6164SOL    HW219071   4.441   0.645   2.033  0.9644  0.0711  1.0804
 6165SOL     OW19072   1.517   1.224   0.789 -0.6178 -0.0850 -0.0257
 6165SOL    HW119073   1.472   1.146   0.758 -2.5573 -0.1371  2.6095
 6165SOL    HW219074   1.603   1.192   0.818 -1.4699 -1.3557  1.2405
 6166SOL     OW19075   5.132   2.516   6.205 -0.2682  0.1160 -0.4082
 6166SOL    HW119076   5.147   2.582   6.273 -0.3150 -0.2525 -0.0395
 6166SOL    HW219077   5.042   2.533   6.174  0.1140  0.9403 -1.1074
 6167SOL     OW19078   3.244   8.132   3.906 -0.2073 -0.1295  0.3778
 6167SOL    HW119079   3.314   8.113   3.843 -0.3069  0.3863  0.1032
 6167SOL    HW219080   3.287   8.129   3.991  0.0268 -0.3862  0.2539
 6168SOL     OW19081   1.659   1.123   2.772 -0.4655  0.1458 -0.0385
 6168SOL    HW119082   1.640   1.088   2.859  0.9609 -0.4346  0.0595
 6168SOL    HW219083   1.719   1.196   2.787  0.4011 -0.4441 -0.5820
 6169SOL     OW19084   0.188   8.265   4.274  0.1281  0.2022  0.0791
 6169SOL    HW119085   0.233   8.280   4.191  0.0469  2.6287  0.3868
 6169SOL    HW219086   0.104   8.310   4.264  0.1677  0.6502  1.4977
 6170SOL     OW19087   4.632   1.969   8.445  0.1788 -0.4480 -0.0398
 6170SOL    HW119088   4.574   2.043   8.460  1.1078  0.0124  1.5005
 6170SOL    HW219089   4.632   1.957   8.350 -2.3338 -0.4232 -0.1073
 6171SOL     OW19090   5.152   3.749   0.809  0.6321  0.1661 -0.1131
 6171SOL    HW119091   5.122   3.839   0.794 -0.3269  0.0631  1.0470
 6171SOL    HW219092   5.074   3.696   0.795  1.2070 -0.5033 -0.8326
 6172SOL     OW19093   7.303   0.005   5.659 -0.4593  0.6921  0.1719
 6172SOL    HW119094   7.235   0.017   5.593 -0.5129  2.2820  0.4738
 6172SOL    HW219095   7.279   0.065   5.729  0.2799 -0.0612  1.0992
 6173SOL     OW19096   7.139   9.737   5.726 -0.0788 -0.5010 -0.3031
 6173SOL    HW119097   7.178   9.824   5.737 -0.3268 -0.4583  0.3195
 6173SOL    HW219098   7.125   9.728   5.632  0.7690 -0.2321 -0.4577
 6174SOL     OW19099   8.222   5.865   6.419  0.4046  0.7685  0.3267
 6174SOL    HW119100   8.315   5.886   6.431  0.4665 -0.0242  1.4233
 6174SOL    HW219101   8.220   5.813   6.339  0.8800  0.9484  0.1919
 6175SOL     OW19102   0.029   3.619   5.506  0.3101 -0.3928  0.6818
 6175SOL    HW119103   0.040   3.713   5.523 -0.9710 -0.2159  0.6215
 6175SOL    HW219104  -0.004   3.615   5.416  1.8033 -1.0157  0.1232
 6176SOL     OW19105   6.572   5.026   4.517 -0.0185  0.2934 -0.0149
 6176SOL    HW119106   6.517   4.948   4.509 -0.8490  0.7615  0.8492
 6176SOL    HW219107   6.579   5.041   4.611  0.1102  1.2729 -0.1663
 6177SOL     OW19108   0.501   2.549   7.961 -0.3854 -0.0143 -0.2708
 6177SOL    HW119109   0.564   2.483   7.992 -4.1062 -3.0364  1.7624
 6177SOL    HW219110   0.522   2.627   8.012  2.5869 -0.2870 -0.8534
 6178SOL     OW19111   4.182   1.064   7.266  0.3832 -0.0398 -0.0022
 6178SOL    HW119112   4.262   1.039   7.312  0.5775  0.9574  0.2281
 6178SOL    HW219113   4.200   1.151   7.231 -1.0592  0.8257  1.2489
 6179SOL     OW19114   0.447   6.334   8.036 -0.4256  0.3960  0.3951
 6179SOL    HW119115   0.389   6.269   7.998 -1.9974  1.5617  0.6890
 6179SOL    HW219116   0.535   6.301   8.019 -1.0863 -2.9831  2.5178
 6180SOL     OW19117   9.882   7.337   1.284 -0.6115  0.3348 -0.3375
 6180SOL    HW119118   9.948   7.319   1.351  0.6877  2.1632 -1.0212
 6180SOL    HW219119   9.820   7.397   1.326  0.5489  1.9885 -0.8597
 6181SOL     OW19120   1.671   9.259   0.318  0.1763  0.7718  0.2182
 6181SOL    HW119121   1.600   9.203   0.286  0.9597 -1.5719  2.3083
 6181SOL    HW219122   1.751   9.215   0.291  0.8178  0.9716  1.6919
 6182SOL     OW19123   4.115   1.122   3.003 -0.7550  0.2590  0.2075
 6182SOL    HW119124   4.042   1.144   2.945 -0.4074  0.6133 -0.0986
 6182SOL    HW219125   4.109   1.185   3.074  1.2872  2.6345 -1.5431
 6183SOL     OW19126   8.065   4.476   3.552  0.5323 -0.3510 -0.2378
 6183SOL    HW119127   8.138   4.534   3.532 -1.6744  3.0922  0.7497
 6183SOL    HW219128   8.043   4.495   3.643  0.4760 -3.8824  0.6310
 6184SOL     OW19129   0.388   4.772   3.690  0.2326  0.0958  0.3720
 6184SOL    HW119130   0.434   4.724   3.759 -1.7941 -2.4741  0.1089
 6184SOL    HW219131   0.424   4.736   3.609  0.9542  1.4361  0.0590
 6185SOL     OW19132   2.521   8.281   9.432  0.4236  0.1356  0.2131
 6185SOL    HW119133   2.454   8.349   9.436  0.2115 -0.0826  0.5021
 6185SOL    HW219134   2.504   8.236   9.349  0.3119  0.1862  0.2074
 6186SOL     OW19135   9.424   2.718   3.833  0.3915  0.0494  0.8206
 6186SOL    HW119136   9.487   2.759   3.773  0.3531  0.0759  0.7983
 6186SOL    HW219137   9.349   2.696   3.777  1.1211 -1.6734  0.4577
 6187SOL     OW19138   8.776   0.909   5.862 -0.2592 -0.4413 -0.1176
 6187SOL    HW119139   8.748   0.952   5.943 -1.7415 -2.0885  0.3100
 6187SOL    HW219140   8.866   0.882   5.879 -0.5401 -0.7325  0.9877
 6188SOL     OW19141   3.010   4.985   8.087 -0.3578  0.0347  0.4173
 6188SOL    HW119142   3.059   4.952   8.012 -0.9708  2.2565 -1.0641
 6188SOL    HW219143   2.949   4.915   8.109  0.8757 -1.2538 -0.1534
 6189SOL     OW19144   6.013   3.173   5.802 -0.0663  0.3832 -0.1659
 6189SOL    HW119145   6.084   3.230   5.831  0.0294  0.0977  0.1671
 6189SOL    HW219146   6.031   3.157   5.709  2.6380 -2.9889  0.7392
 6190SOL     OW19147   3.088   9.634   9.557  0.1064  0.8307 -0.0688
 6190SOL    HW119148   3.149   9.671   9.621  0.9548 -0.4383 -0.1133
 6190SOL    HW219149   3.064   9.708   9.502  1.5207  1.3893  0.0286
 6191SOL     OW19150   0.807   7.021   3.317  0.0976  0.5665  0.0786
 6191SOL    HW119151   0.716   7.040   3.339  0.3553  0.6730  1.1335
 6191SOL    HW219152   0.839   6.970   3.392  0.6482 -0.2411 -0.6985
 6192SOL     OW19153   0.758   7.627   6.843 -0.5384 -0.5282 -0.3548
 6192SOL    HW119154   0.707   7.611   6.763  0.8231  1.4869 -1.7293
 6192SOL    HW219155   0.740   7.718   6.865  0.4819 -0.5427  0.6166
 6193SOL     OW19156   9.920   6.988   3.895 -0.1056  0.1983 -0.2833
 6193SOL    HW119157   9.919   7.033   3.810 -1.1404 -1.5849 -1.2538
 6193SOL    HW219158   9.849   7.030   3.945 -0.5571  0.1621 -0.8887
 6194SOL     OW19159   4.947   1.443   5.038  0.4451 -0.5364 -0.0003
 6194SOL    HW119160   4.951   1.357   5.080 -1.1509 -0.5602  0.1527
 6194SOL    HW219161   4.879   1.490   5.086  0.8331  0.5887 -0.5150
 6195SOL     OW19162   7.002   7.957   9.648 -0.7083 -0.6124  0.1778
 6195SOL    HW119163   7.050   7.889   9.695  0.6339 -1.2556 -1.9601
 6195SOL    HW219164   7.061   8.033   9.651 -0.2704 -0.8811 -1.0042
 6196SOL     OW19165   0.220   8.604   3.343 -0.2101 -0.2567 -0.5150
 6196SOL    HW119166   0.140   8.563   3.376 -0.1406 -0.5316 -0.6869
 6196SOL    HW219167   0.190   8.676   3.288 -0.3248  0.7135  0.7719
 6197SOL     OW19168   4.282   8.276   0.807  0.1848  0.2663 -0.0679
 6197SOL    HW119169   4.360   8.241   0.850 -1.1053 -1.2207  1.1881
 6197SOL    HW219170   4.242   8.332   0.873  0.5479  1.6367 -0.9697
 6198SOL     OW19171   7.186   8.979   6.066  0.7848 -0.0007  0.0057
 6198SOL    HW119172   7.134   8.960   6.145  1.6573  1.4273  0.9609
 6198SOL    HW219173   7.132   8.947   5.994  0.9292 -3.4564  1.2509
 6199SOL     OW19174   9.320   4.966   7.802 -0.4763  0.0457 -0.0651
 6199SOL    HW119175   9.283   5.055   7.796  0.7652  0.7076  1.5162
 6199SOL    HW219176   9.270   4.916   7.737 -1.8310  1.6705 -0.3658
 6200SOL     OW19177   0.452   7.781   6.090 -0.3403  0.0817 -0.7825
 6200SOL    HW119178   0.430   7.854   6.032  0.1095 -1.4603 -3.0026
 6200SOL    HW219179   0.453   7.704   6.033  3.4798 -1.0865  0.5368
 6201SOL     OW19180   2.030   8.996   7.593 -0.0163 -0.1924 -0.3777
 6201SOL    HW119181   2.056   8.919   7.642 -0.9132  0.5451  1.3813
 6201SOL    HW219182   1.975   8.963   7.523  0.6835 -1.2410 -0.4443
 6202SOL     OW19183   3.744   5.159   7.660  0.0841  0.0146 -0.2182
 6202SOL    HW119184   3.770   5.102   7.588 -0.6336  0.5439 -0.9120
 6202SOL    HW219185   3.799   5.237   7.651 -0.2171  0.2093 -0.3716
 6203SOL     OW19186   8.682   2.840   5.066  0.3262 -0.0416 -0.3230
 6203SOL    HW119187   8.659   2.921   5.111 -0.9916  0.5661 -2.0128
 6203SOL    HW219188   8.761   2.861   5.016  0.2101  0.0806 -0.4534
 6204SOL     OW19189   6.105   3.392   3.053 -0.3717  0.1975  0.3999
 6204SOL    HW119190   6.139   3.461   2.997 -2.0474  0.9715  0.2756
 6204SOL    HW219191   6.154   3.314   3.029 -1.7446  0.2314 -2.9834
 6205SOL     OW19192   6.715   4.926   6.317 -0.2158 -0.0516  0.3088
 6205SOL    HW119193   6.631   4.934   6.361 -0.1291 -2.4829  1.1083
 6205SOL    HW219194   6.696   4.874   6.238  0.4554 -0.2860  0.2936
 6206SOL     OW19195   6.153   2.041   9.070 -0.0574  0.0258  0.9112
 6206SOL    HW119196   6.100   1.971   9.031 -0.2250  0.8384 -0.3933
 6206SOL    HW219197   6.238   2.000   9.086 -1.3616 -1.7338  4.4358
 6207SOL     OW19198   4.379   1.417   8.705  0.6442  0.2055 -0.1875
 6207SOL    HW119199   4.295   1.460   8.723 -0.9196 -1.8025 -2.0561
 6207SOL    HW219200   4.403   1.448   8.618  1.6441  0.4336  0.1649
 6208SOL     OW19201   7.005   9.210   6.855  0.4673  0.2239 -0.2901
 6208SOL    HW119202   7.090   9.212   6.811  0.3336  0.5159 -0.5392
 6208SOL    HW219203   6.971   9.123   6.836  0.6075  0.1895 -0.3892
 6209SOL     OW19204   7.464   9.174   7.529 -0.4579 -0.3205  0.5305
 6209SOL    HW119205   7.506   9.258   7.512  0.4119 -0.7840  0.3291
 6209SOL    HW219206   7.389   9.171   7.469  1.0389 -0.8144 -1.3965
 6210SOL     OW19207   7.952   4.607   4.172 -0.2432  0.5001 -0.1311
 6210SOL    HW119208   7.992   4.575   4.253  1.8118  1.8655 -0.5555
 6210SOL    HW219209   7.958   4.532   4.112 -1.9637 -0.5897  0.9701
 6211SOL     OW19210   3.930   2.592   4.271  0.1787  0.2754 -0.3510
 6211SOL    HW119211   4.000   2.641   4.228  1.2246 -0.9591 -0.1262
 6211SOL    HW219212   3.878   2.659   4.316  1.4175  1.2004 -0.2421
 6212SOL     OW19213   7.744   9.850   8.297 -0.1228  0.0306 -0.1357
 6212SOL    HW119214   7.650   9.864   8.284 -0.3386 -1.5159 -0.3516
 6212SOL    HW219215   7.785   9.916   8.241 -1.0792  0.3804 -0.4543
 6213SOL     OW19216   8.874   7.931   4.108 -0.3821  0.2369 -0.3313
 6213SOL    HW119217   8.905   7.960   4.022 -1.9544  0.8231 -0.7210
 6213SOL    HW219218   8.808   7.864   4.088 -0.5216  0.1405  0.4366
 6214SOL     OW19219   7.380   7.555   9.424  0.2497 -0.2764  0.3585
 6214SOL    HW119220   7.321   7.489   9.387  0.4925  0.3483 -1.1831
 6214SOL    HW219221   7.450   7.564   9.360  2.0840 -1.0097  2.1487
 6215SOL     OW19222   7.509   9.463   3.165 -0.3739  0.3759 -0.1667
 6215SOL    HW119223   7.442   9.398   3.144 -0.1928  0.2922 -0.4963
 6215SOL    HW219224   7.569   9.417   3.224 -0.5671  0.4267  0.0664
 6216SOL     OW19225   0.362   5.838   1.058 -0.2644  0.9712 -0.3809
 6216SOL    HW119226   0.326   5.796   0.980  1.8511 -2.0492  0.0988
 6216SOL    HW219227   0.392   5.923   1.028 -3.0582  1.5496 -1.8743
 6217SOL     OW19228   1.757   8.787   2.257 -0.1407 -0.6403  0.0279
 6217SOL    HW119229   1.693   8.741   2.203 -0.4588  2.2853 -2.4174
 6217SOL    HW219230   1.839   8.779   2.208  0.2270 -0.3072  0.5741
 6218SOL     OW19231   5.694   1.348   3.348  0.4684 -0.2711  0.0353
 6218SOL    HW119232   5.642   1.378   3.423 -0.4222 -1.2691 -0.1496
 6218SOL    HW219233   5.633   1.296   3.296  0.8709  1.0449 -1.8207
 6219SOL     OW19234   3.940   4.414   9.962  0.3097 -0.3938  0.6664
 6219SOL    HW119235   3.962   4.478   9.894 -0.1164 -1.6601 -0.7072
 6219SOL    HW219236   4.024   4.380   9.991  0.4736 -0.2384  0.3794
 6220SOL     OW19237   5.849   9.736   1.370 -0.3101 -0.3551  0.0795
 6220SOL    HW119238   5.854   9.790   1.291  0.3311 -0.5575 -0.0236
 6220SOL    HW219239   5.921   9.673   1.361 -0.6599 -0.8260  0.4964
 6221SOL     OW19240   6.244   2.702   4.860  0.0802 -0.5143  0.0915
 6221SOL    HW119241   6.162   2.691   4.813 -0.5044 -0.7823  1.1283
 6221SOL    HW219242   6.235   2.645   4.937  1.3569 -0.7710  0.0720
 6222SOL     OW19243   8.817   4.801   6.527  0.0890 -0.7499  0.5537
 6222SOL    HW119244   8.844   4.725   6.476 -0.1570 -1.4379  1.4378
 6222SOL    HW219245   8.818   4.873   6.464  2.1478 -1.1012  0.1061
 6223SOL     OW19246   6.601   8.147   8.837  0.9902 -0.0423  0.3919
 6223SOL    HW119247   6.573   8.068   8.883  2.3037 -0.1466  1.0593
 6223SOL    HW219248   6.534   8.161   8.770 -0.0520 -0.8632  1.2305
 6224SOL     OW19249   9.524   5.112   2.087 -0.0911  0.3276 -0.0314
 6224SOL    HW119250   9.448   5.157   2.049 -0.1916 -0.0458 -0.2724
 6224SOL    HW219251   9.580   5.093   2.012  0.1460  0.4182  0.1216
 6225SOL     OW19252   9.888   7.014   3.613  0.3245 -0.1621 -0.4960
 6225SOL    HW119253   9.866   7.092   3.562 -0.8958 -1.0466 -1.3723
 6225SOL    HW219254   9.804   6.972   3.631  0.7343 -0.0331  2.0482
 6226SOL     OW19255   1.025   3.396   1.188  0.0586 -0.8109  0.1953
 6226SOL    HW119256   1.011   3.305   1.164 -0.4119 -0.7391  0.1910
 6226SOL    HW219257   0.973   3.409   1.267  0.5267 -0.6805  0.4882
 6227SOL     OW19258   1.061   3.424   5.390 -0.0638 -0.2692 -0.3224
 6227SOL    HW119259   1.148   3.419   5.350  0.5383 -0.2433  0.9308
 6227SOL    HW219260   1.030   3.512   5.369 -0.0973 -0.5188 -1.3660
 6228SOL     OW19261   8.210   2.240   5.457 -0.0110 -0.2887 -0.2855
 6228SOL    HW119262   8.221   2.271   5.367 -0.5553 -1.5243 -0.8107
 6228SOL    HW219263   8.131   2.284   5.488 -0.1593 -0.3091 -0.6290
 6229SOL     OW19264   5.588   1.101   5.912  0.3145  0.2564  0.3093
 6229SOL    HW119265   5.532   1.055   5.850 -1.0605  0.9229  1.0063
 6229SOL    HW219266   5.563   1.193   5.905  2.0376  0.7429 -0.0563
 6230SOL     OW19267   8.741   4.741   4.074  0.1349  0.0305 -0.3722
 6230SOL    HW119268   8.765   4.832   4.096 -0.4742  0.2236 -0.4858
 6230SOL    HW219269   8.791   4.688   4.136  1.7176  0.3518 -1.3133
 6231SOL     OW19270   4.611   6.410   9.188 -0.0248 -0.1291 -0.0415
 6231SOL    HW119271   4.636   6.483   9.246 -0.4137 -0.1952  0.2126
 6231SOL    HW219272   4.641   6.332   9.235 -2.6848 -0.4006  1.3968
 6232SOL     OW19273   1.448   0.981   0.454 -0.3803 -0.0854 -0.6611
 6232SOL    HW119274   1.425   0.974   0.361 -1.1403 -1.2287 -0.4113
 6232SOL    HW219275   1.413   1.066   0.481 -0.2374  0.2148 -1.3969
 6233SOL     OW19276   5.095   9.412   1.042  0.0962  0.2602 -0.4212
 6233SOL    HW119277   5.132   9.354   1.109 -2.0740  0.8907  1.4604
 6233SOL    HW219278   5.097   9.360   0.962  1.7918 -0.9371  0.3482
 6234SOL     OW19279   1.357   0.435   3.913 -0.4680  0.3385  0.0587
 6234SOL    HW119280   1.430   0.497   3.913 -2.5735  3.1767 -3.0300
 6234SOL    HW219281   1.297   0.468   3.980 -0.6045  0.2975 -0.0427
 6235SOL     OW19282   1.715   2.486   8.699 -0.3818  0.4137  0.2869
 6235SOL    HW119283   1.670   2.567   8.673  2.3838  1.4222 -1.8465
 6235SOL    HW219284   1.767   2.511   8.775  0.7599  0.8062 -0.5958
 6236SOL     OW19285   8.125   9.426   6.755  0.3024 -0.0103  0.0450
 6236SOL    HW119286   8.138   9.381   6.839  0.2081 -0.4467 -0.1726
 6236SOL    HW219287   8.209   9.417   6.710  1.1426  2.2349  1.0252
 6237SOL     OW19288   7.734   4.864   6.771 -1.0102  0.2716  0.8920
 6237SOL    HW119289   7.659   4.804   6.767 -0.4592 -0.4166  0.4889
 6237SOL    HW219290   7.765   4.858   6.862 -0.3679 -0.8285  0.6218
 6238SOL     OW19291   0.574   0.255   9.806 -0.1386  0.0634  0.1732
 6238SOL    HW119292   0.618   0.257   9.721 -0.8312 -0.0965 -0.1976
 6238SOL    HW219293   0.644   0.238   9.869  0.1695 -1.4742 -0.5329
 6239SOL     OW19294   4.333   3.321   9.278 -0.0893 -0.0053 -0.5838
 6239SOL    HW119295   4.287   3.295   9.357  2.7308 -0.3443  1.0646
 6239SOL    HW219296   4.328   3.416   9.276  1.5073  0.1564  1.1727
 6240SOL     OW19297   9.489   1.303   7.344  0.2588  0.0351  0.9929
 6240SOL    HW119298   9.427   1.371   7.319 -0.8570 -0.8190  1.3317
 6240SOL    HW219299   9.437   1.222   7.345  1.5495 -0.8333  0.5673
 6241SOL     OW19300   2.987   0.393   7.165 -0.2818 -0.2245 -0.0603
 6241SOL    HW119301   3.000   0.299   7.152 -0.5539 -0.2798  0.0521
 6241SOL    HW219302   3.030   0.434   7.090 -0.4512 -0.4543 -0.2864
 6242SOL     OW19303   9.281   0.766   6.125  0.1328  0.8726  0.3497
 6242SOL    HW119304   9.362   0.719   6.103  0.5573  0.6953  2.1051
 6242SOL    HW219305   9.269   0.750   6.219 -1.5672  1.4917  0.2759
 6243SOL     OW19306   9.275   3.055   3.782 -0.9739 -0.2120  0.4826
 6243SOL    HW119307   9.225   3.127   3.821 -0.0324 -0.7878  2.9611
 6243SOL    HW219308   9.352   3.097   3.744 -1.2688  0.2521  0.3931
 6244SOL     OW19309   1.909   1.371   3.682 -0.3439 -0.4112 -0.0826
 6244SOL    HW119310   1.972   1.303   3.659 -1.7352 -1.6369 -0.3893
 6244SOL    HW219311   1.844   1.326   3.736 -0.5802  0.9946  0.8634
 6245SOL     OW19312   2.646   2.026   3.950  0.3724  0.0885 -0.0104
 6245SOL    HW119313   2.715   2.073   3.903  0.4386 -0.9249 -0.9729
 6245SOL    HW219314   2.632   2.077   4.030  0.9758  1.2901 -0.6498
 6246SOL     OW19315   5.472   6.459   8.754 -0.3729  0.2214  0.1495
 6246SOL    HW119316   5.406   6.398   8.719 -0.7590  0.3839  0.5877
 6246SOL    HW219317   5.549   6.404   8.771  0.0522  0.2370 -1.5445
 6247SOL     OW19318   6.842   1.525   0.164  0.4140  0.1552  0.0041
 6247SOL    HW119319   6.756   1.497   0.133  0.8456 -1.3570  0.1187
 6247SOL    HW219320   6.865   1.599   0.107 -0.2193 -0.5047 -1.1338
 6248SOL     OW19321   6.774   5.355   8.985  0.3335 -0.3342  0.3458
 6248SOL    HW119322   6.746   5.265   9.002 -0.1042 -0.0446  1.2219
 6248SOL    HW219323   6.692   5.402   8.969  0.5107  0.0491  0.5653
 6249SOL     OW19324   8.048   6.126   9.470  0.1197 -0.0345  0.9386
 6249SOL    HW119325   8.131   6.086   9.443 -0.5616 -1.1384  0.4289
 6249SOL    HW219326   8.061   6.147   9.562  1.4925  1.2064  0.4925
 6250SOL     OW19327   6.260   1.448   5.503 -0.5306  0.1307  0.0533
 6250SOL    HW119328   6.204   1.377   5.471  0.1237 -0.2288 -0.3088
 6250SOL    HW219329   6.323   1.463   5.433  0.6410 -0.3674  0.9586
 6251SOL     OW19330   6.294   5.664   3.117  0.4881  0.2797 -0.3617
 6251SOL    HW119331   6.302   5.648   3.023  1.5379  0.2841 -0.2887
 6251SOL    HW219332   6.385   5.667   3.148  0.1593  0.7007  0.5812
 6252SOL     OW19333   6.238   8.719   8.352  0.1957 -0.1138 -0.1439
 6252SOL    HW119334   6.257   8.793   8.295 -0.1556  0.0313 -0.0799
 6252SOL    HW219335   6.144   8.704   8.341  0.4219 -1.1151 -0.8182
 6253SOL     OW19336   8.089   0.240  -0.002  0.1274  0.1923 -0.4599
 6253SOL    HW119337   8.043   0.157  -0.015  1.2562 -0.0734 -3.6144
 6253SOL    HW219338   8.090   0.252   0.093 -3.0689 -1.6309 -0.0478
 6254SOL     OW19339   0.456   3.070   0.520  0.5516  0.5978 -0.0112
 6254SOL    HW119340   0.409   3.007   0.574 -1.1055  3.8382  2.7373
 6254SOL    HW219341   0.548   3.062   0.548  0.8080 -1.9576 -1.3497
 6255SOL     OW19342   6.134   1.807   1.968 -0.7214 -0.0293  0.0171
 6255SOL    HW119343   6.051   1.785   2.009  0.3004  0.9324  2.8574
 6255SOL    HW219344   6.198   1.752   2.013  0.5757  1.6878  0.3916
 6256SOL     OW19345   4.370   3.528   1.523 -0.5002  0.1723  0.2729
 6256SOL    HW119346   4.418   3.456   1.483 -1.9862 -0.0379 -1.2616
 6256SOL    HW219347   4.356   3.590   1.451 -0.6211  1.2498  1.1981
 6257SOL     OW19348   4.634   7.543   3.456  0.2637  0.1982  0.2974
 6257SOL    HW119349   4.690   7.587   3.521  0.6772 -1.2164  0.9381
 6257SOL    HW219350   4.667   7.453   3.452 -0.0647  0.1129 -1.5438
 6258SOL     OW19351   6.374   4.664   6.613  0.0123  0.0418  0.5662
 6258SOL    HW119352   6.410   4.577   6.598  0.7233  0.6282 -1.4360
 6258SOL    HW219353   6.362   4.701   6.526 -2.9598  0.9276  1.2244
 6259SOL     OW19354   6.388   8.799   6.109 -0.2789 -0.2237 -0.1007
 6259SOL    HW119355   6.478   8.831   6.103 -0.3382  0.1408  0.7864
 6259SOL    HW219356   6.387   8.746   6.189 -1.1569  0.8397  0.6194
 6260SOL     OW19357   6.888   6.803   4.269 -0.4164  0.3394 -0.6873
 6260SOL    HW119358   6.908   6.888   4.308  1.5910 -0.2605 -0.2859
 6260SOL    HW219359   6.952   6.743   4.308 -1.7861 -1.3840 -0.9352
 6261SOL     OW19360   4.906   3.712   3.942 -0.0037  0.5524 -0.0680
 6261SOL    HW119361   4.987   3.675   3.906  0.1053  0.8078 -0.0883
 6261SOL    HW219362   4.936   3.769   4.013 -0.2388 -0.2414  0.6910
 6262SOL     OW19363   3.478   3.473   8.625 -0.4001  0.5916 -0.3008
 6262SOL    HW119364   3.555   3.476   8.568  1.3356 -1.9982  1.6464
 6262SOL    HW219365   3.407   3.509   8.572  1.3230 -0.4778 -3.6273
 6263SOL     OW19366   7.006   4.986   1.013  0.0533 -0.6999  0.0627
 6263SOL    HW119367   7.014   4.893   1.033  0.2544 -0.8489 -0.6778
 6263SOL    HW219368   6.919   4.995   0.975  0.3305 -0.7274 -0.5910
 6264SOL     OW19369   4.629   9.806   2.887  0.7488 -0.6647 -0.0107
 6264SOL    HW119370   4.695   9.816   2.819 -0.9383 -1.0208 -1.7883
 6264SOL    HW219371   4.628   9.712   2.906  0.3738 -0.7490 -0.4204
 6265SOL     OW19372   6.688   9.170   3.899 -0.1914  0.3736 -0.0909
 6265SOL    HW119373   6.644   9.254   3.908 -0.6131  0.0151  1.6623
 6265SOL    HW219374   6.715   9.166   3.808 -2.2362  1.3986 -0.7967
 6266SOL     OW19375   3.711   5.600   0.227 -0.0821 -0.4513  0.0966
 6266SOL    HW119376   3.626   5.590   0.184 -0.1094  0.3092 -0.0428
 6266SOL    HW219377   3.718   5.693   0.245 -1.9993 -1.0410  5.7768
 6267SOL     OW19378   3.755   0.028   9.713  0.3933  0.1290 -0.1425
 6267SOL    HW119379   3.800   0.065   9.790 -1.8694  1.7107  0.5135
 6267SOL    HW219380   3.753  -0.066   9.731  1.6349  0.2386  0.7585
 6268SOL     OW19381   5.911   4.044   3.257 -0.0290  0.1567  0.3557
 6268SOL    HW119382   5.915   4.008   3.345  0.9611  0.2813  0.3678
 6268SOL    HW219383   5.909   4.139   3.270  1.4540  0.2314  0.2345
 6269SOL     OW19384   8.301   8.319   8.469 -0.2002 -0.2252 -0.5327
 6269SOL    HW119385   8.261   8.397   8.429  0.5137 -0.3340 -1.5084
 6269SOL    HW219386   8.392   8.346   8.487 -1.0249  0.6003  3.2434
 6270SOL     OW19387   7.180   5.169   0.611 -0.0377  0.3289 -0.1591
 6270SOL    HW119388   7.161   5.120   0.531  2.0750 -0.2295 -0.3970
 6270SOL    HW219389   7.109   5.232   0.619  0.0057  0.8208 -2.8465
 6271SOL     OW19390   7.779   6.409   9.061 -0.0014 -0.0883  0.6152
 6271SOL    HW119391   7.854   6.393   9.118 -0.4261 -0.5903  1.0447
 6271SOL    HW219392   7.720   6.335   9.077 -1.5938  1.3775  1.9274
 6272SOL     OW19393   3.374   0.389   2.582 -0.1325 -0.4056 -0.3125
 6272SOL    HW119394   3.361   0.305   2.626 -2.1542  0.6835  1.4286
 6272SOL    HW219395   3.366   0.370   2.489 -0.5579 -2.1372  0.0467
 6273SOL     OW19396   1.201   6.689   2.200  0.3641  0.7571 -0.2148
 6273SOL    HW119397   1.209   6.783   2.219  0.3134  1.3000 -2.5102
 6273SOL    HW219398   1.290   6.655   2.211  0.9934  1.6846 -1.9339
 6274SOL     OW19399   0.387   5.626   3.770 -0.3158  0.1561  0.0001
 6274SOL    HW119400   0.358   5.694   3.708 -1.0029  1.5538  1.7622
 6274SOL    HW219401   0.473   5.656   3.799  0.7966 -1.3866 -1.4537
 6275SOL     OW19402   4.300   0.611   5.791 -0.1221  0.0329  0.0786
 6275SOL    HW119403   4.243   0.641   5.720 -0.5001 -0.9434 -0.0491
 6275SOL    HW219404   4.386   0.601   5.749 -0.4790 -1.1469 -0.4242
 6276SOL     OW19405   4.098   5.756   7.064  0.3613 -0.0099 -0.2616
 6276SOL    HW119406   4.059   5.745   6.977  2.0278 -1.6179 -0.8563
 6276SOL    HW219407   4.192   5.761   7.047  0.7154 -0.4401  1.4574
 6277SOL     OW19408   5.309   1.530   3.730 -0.2556 -0.0524 -0.0055
 6277SOL    HW119409   5.228   1.479   3.728 -0.2347 -0.2364 -3.8329
 6277SOL    HW219410   5.290   1.604   3.788 -3.0940 -0.2450 -0.5500
 6278SOL     OW19411   8.555   9.251   8.819  0.5916  0.0294  0.3447
 6278SOL    HW119412   8.559   9.261   8.915 -1.3573 -0.9180  0.5849
 6278SOL    HW219413   8.515   9.332   8.789 -0.2791 -0.3009  0.5495
 6279SOL     OW19414   9.075   6.163   9.628 -0.5495  0.4039 -0.1604
 6279SOL    HW119415   9.108   6.073   9.624 -1.9489 -0.1714  0.5898
 6279SOL    HW219416   9.011   6.169   9.558 -0.1474  0.9721 -0.4918
 6280SOL     OW19417   8.576   1.165   3.691 -0.2778 -0.5880  0.0996
 6280SOL    HW119418   8.645   1.115   3.734  1.1547  0.1541 -1.2592
 6280SOL    HW219419   8.515   1.186   3.762  1.9599  0.5779  1.8215
 6281SOL     OW19420   1.094   3.149   3.679  0.2065 -0.4608 -0.4442
 6281SOL    HW119421   1.019   3.105   3.718  2.1005 -0.5072  3.6948
 6281SOL    HW219422   1.137   3.082   3.625 -1.0050 -1.3241 -0.3618
 6282SOL     OW19423   1.212   8.717   1.295 -0.3334  0.1484  0.0978
 6282SOL    HW119424   1.177   8.768   1.222  0.8707 -0.0689 -0.6665
 6282SOL    HW219425   1.146   8.650   1.311 -0.2033 -0.4066 -1.4679
 6283SOL     OW19426   3.592   6.461   1.127  0.5401  0.3202 -0.1704
 6283SOL    HW119427   3.558   6.442   1.039  1.3524  1.4075 -0.7470
 6283SOL    HW219428   3.670   6.407   1.135  1.0211  0.9339 -0.5335
 6284SOL     OW19429   5.774   8.928   5.143 -0.9312 -0.4953  0.6284
 6284SOL    HW119430   5.776   8.929   5.047 -0.6648 -2.8305  0.5563
 6284SOL    HW219431   5.829   9.001   5.169  0.2315 -0.7353 -1.0124
 6285SOL     OW19432   1.254   5.726   0.870  0.5430 -0.2055 -0.2969
 6285SOL    HW119433   1.341   5.735   0.832  1.3246 -1.2419  1.1991
 6285SOL    HW219434   1.214   5.812   0.857  1.7941  0.3108 -0.9360
 6286SOL     OW19435   0.008   7.899   3.064 -0.1839 -0.0006 -0.2641
 6286SOL    HW119436  -0.066   7.960   3.057 -0.1949  0.0942  0.6534
 6286SOL    HW219437   0.069   7.929   2.997  0.2633  1.6628  0.8260
 6287SOL     OW19438   4.006   6.105   4.754 -0.1882  0.0329  0.0463
 6287SOL    HW119439   3.961   6.171   4.701  1.2679 -1.2988 -3.0841
 6287SOL    HW219440   4.032   6.037   4.692  2.0783 -1.4810  2.4287
 6288SOL     OW19441   1.225   7.722   0.890  0.4554 -0.2519 -0.2173
 6288SOL    HW119442   1.260   7.704   0.977  0.4908  0.9893  0.0389
 6288SOL    HW219443   1.230   7.817   0.881 -1.4693 -0.1626 -0.7554
 6289SOL     OW19444   6.499   5.717   3.920  0.4933 -0.3270  0.1953
 6289SOL    HW119445   6.560   5.694   3.851 -2.0974 -1.5891 -1.8820
 6289SOL    HW219446   6.415   5.726   3.875 -1.2927 -0.9615  3.1274
 6290SOL     OW19447   4.282   0.265   1.776  0.4914 -0.1605 -0.5327
 6290SOL    HW119448   4.252   0.219   1.697  0.0789 -1.2035  0.2125
 6290SOL    HW219449   4.226   0.342   1.782  1.1001  0.4072 -1.7250
 6291SOL     OW19450   1.312   1.191   2.005 -0.4412 -0.0401  0.5059
 6291SOL    HW119451   1.270   1.201   2.091  0.4700 -2.0205  1.2502
 6291SOL    HW219452   1.262   1.122   1.962 -0.4034  0.3870 -0.2338
 6292SOL     OW19453   5.669   1.917   2.293 -0.1586  0.2323 -0.0419
 6292SOL    HW119454   5.711   1.858   2.356  2.5604  2.1797  0.1020
 6292SOL    HW219455   5.659   1.864   2.214  0.7665 -0.8836  0.5541
 6293SOL     OW19456   6.634   8.994   2.592  0.3286  0.3097 -0.3786
 6293SOL    HW119457   6.725   9.022   2.596 -0.1893  1.9737  1.5018
 6293SOL    HW219458   6.628   8.921   2.653  0.0436  1.5297  1.1180
 6294SOL     OW19459   3.734   3.686   1.122 -0.2868 -0.4918 -0.0589
 6294SOL    HW119460   3.745   3.767   1.172  0.5051 -1.7483  1.9618
 6294SOL    HW219461   3.771   3.618   1.179 -0.8424 -2.2697 -1.7085
 6295SOL     OW19462   3.806   6.146   1.654 -0.4172  0.6309 -0.0837
 6295SOL    HW119463   3.835   6.102   1.734  1.6672  0.7336 -0.7140
 6295SOL    HW219464   3.735   6.204   1.683 -1.2523 -0.9925  1.2648
 6296SOL     OW19465   9.659   8.804   7.231 -0.9095 -0.1695 -0.4030
 6296SOL    HW119466   9.639   8.711   7.237 -2.6701  0.2173  0.2499
 6296SOL    HW219467   9.579   8.848   7.258 -0.2082  1.5537 -0.9835
 6297SOL     OW19468   2.075   1.057   7.635  0.1817 -0.0406 -0.5345
 6297SOL    HW119469   2.096   0.981   7.689 -0.9348 -0.3051 -0.4494
 6297SOL    HW219470   2.158   1.081   7.593  0.4554 -1.5980 -0.9402
 6298SOL     OW19471   7.386   8.005   8.816  0.4794  0.4158 -1.0789
 6298SOL    HW119472   7.366   7.924   8.768 -0.0128 -0.5957  0.7425
 6298SOL    HW219473   7.304   8.026   8.861  0.8864  1.4152 -0.7916
 6299SOL     OW19474   9.147   2.089   6.625  0.5072 -0.0545 -0.1310
 6299SOL    HW119475   9.202   2.064   6.550  1.3547  2.0745 -0.3004
 6299SOL    HW219476   9.093   2.160   6.591 -0.4102 -0.2931  0.8041
 6300SOL     OW19477   3.087   0.164   1.164  0.1395 -0.2643 -0.3803
 6300SOL    HW119478   3.164   0.220   1.174  0.5943 -0.9085 -0.2216
 6300SOL    HW219479   3.024   0.199   1.228  0.7390 -0.4786  0.3408
 6301SOL     OW19480   6.167   5.610   3.647  0.1220 -0.1967  0.2713
 6301SOL    HW119481   6.108   5.649   3.712  0.8669  1.3392  0.0742
 6301SOL    HW219482   6.188   5.682   3.588  0.8925 -1.1287 -0.6214
 6302SOL     OW19483   1.832   3.839   3.191  0.4669 -0.4868 -0.1114
 6302SOL    HW119484   1.884   3.856   3.270 -2.0424 -1.0275  1.7700
 6302SOL    HW219485   1.845   3.746   3.174  0.2753 -0.5817  0.2450
 6303SOL     OW19486   4.865   1.273   3.647  1.0203  0.5171 -0.2012
 6303SOL    HW119487   4.851   1.264   3.552  0.0533  2.5947 -0.3045
 6303SOL    HW219488   4.799   1.216   3.686 -0.2037  1.4559 -0.8057
 6304SOL     OW19489   0.559   5.464   2.236 -0.6050  0.5189 -0.2777
 6304SOL    HW119490   0.530   5.531   2.298 -0.0995  0.8089 -0.3499
 6304SOL    HW219491   0.650   5.446   2.261 -0.0455  1.3891 -1.5764
 6305SOL     OW19492   7.464   9.531   3.672  0.2236  0.0268  0.1663
 6305SOL    HW119493   7.548   9.576   3.672 -0.2429  0.9804 -1.6716
 6305SOL    HW219494   7.450   9.506   3.581 -0.9219 -1.2330  0.6497
 6306SOL     OW19495   9.020   3.525   9.182  0.0970  0.0917  0.2785
 6306SOL    HW119496   9.099   3.557   9.139 -0.3513 -1.6148 -1.9504
 6306SOL    HW219497   8.957   3.596   9.174  0.0643 -0.1185 -1.9066
 6307SOL     OW19498   9.938   0.151   3.663 -0.0915 -0.6720 -0.4638
 6307SOL    HW119499   9.858   0.098   3.653  0.5867 -1.7117 -0.5646
 6307SOL    HW219500   9.971   0.161   3.574 -0.3891  0.2389 -0.4861
 6308SOL     OW19501   2.776   4.129   6.390 -0.2119 -0.4889  0.5121
 6308SOL    HW119502   2.865   4.135   6.427 -0.5092 -0.4534  1.2487
 6308SOL    HW219503   2.790   4.109   6.298  0.6155  1.8807  0.0686
 6309SOL     OW19504   0.266   7.953   7.654 -0.3267 -0.2879 -0.1516
 6309SOL    HW119505   0.278   8.047   7.667  0.6399 -0.5156  0.7309
 6309SOL    HW219506   0.348   7.923   7.614  0.0054 -0.9954  1.0084
 6310SOL     OW19507   7.577   5.979   0.433 -0.1933 -0.1001  0.1439
 6310SOL    HW119508   7.527   5.998   0.512  0.0492 -1.3359  0.6072
 6310SOL    HW219509   7.563   5.886   0.416 -0.4505  0.1866 -1.4271
 6311SOL     OW19510   0.805   5.352   5.451 -0.4901  0.5286  0.1014
 6311SOL    HW119511   0.712   5.371   5.464 -0.8752 -0.0295 -1.5098
 6311SOL    HW219512   0.820   5.372   5.359  0.9751  0.5084  0.3210
 6312SOL     OW19513   7.701   7.971   9.362  0.0199 -0.2195  0.1504
 6312SOL    HW119514   7.609   7.953   9.347 -0.0060 -0.1841  0.2657
 6312SOL    HW219515   7.712   7.966   9.457  0.7557 -3.2692  0.0008
 6313SOL     OW19516   2.484   9.390   7.543 -0.2973  0.3840 -0.7758
 6313SOL    HW119517   2.489   9.485   7.554 -0.1664  0.2991 -0.0075
 6313SOL    HW219518   2.566   9.366   7.500  0.8136  0.3623  1.1982
 6314SOL     OW19519   7.434   9.176   5.340 -0.3354  0.2448 -0.1271
 6314SOL    HW119520   7.478   9.165   5.425 -0.8901  1.6887  0.3635
 6314SOL    HW219521   7.493   9.232   5.290  0.1748 -0.9123 -0.8658
 6315SOL     OW19522   1.383   5.453   8.275 -0.1613 -0.1398  0.2846
 6315SOL    HW119523   1.452   5.517   8.291 -0.5671  0.5687 -0.7658
 6315SOL    HW219524   1.323   5.464   8.350  0.4832 -0.2694  0.8300
 6316SOL     OW19525   9.455   4.539   5.799  1.1311  0.7804  0.1607
 6316SOL    HW119526   9.451   4.580   5.885 -0.3387 -1.0656  1.0469
 6316SOL    HW219527   9.380   4.575   5.752 -0.2618 -0.9106  0.9989
 6317SOL     OW19528   2.575   5.956   6.417 -0.0589 -0.3619  0.1840
 6317SOL    HW119529   2.490   5.994   6.439 -0.2952 -0.9353  0.2813
 6317SOL    HW219530   2.554   5.869   6.382  0.4820 -0.4851  0.1574
 6318SOL     OW19531   3.221   0.998   4.793 -0.3050 -0.8338  0.6858
 6318SOL    HW119532   3.240   1.054   4.717 -0.3269 -0.1037  1.2112
 6318SOL    HW219533   3.142   1.036   4.831 -0.0144 -0.9055  1.3602
 6319SOL     OW19534   8.669   7.167   8.800  0.0220 -0.3431 -0.1664
 6319SOL    HW119535   8.746   7.192   8.749  0.5401 -0.7994  0.3774
 6319SOL    HW219536   8.626   7.099   8.748  1.1456 -1.5837  0.4942
 6320SOL     OW19537   6.997  10.006   7.488 -0.1202 -0.3113  0.0965
 6320SOL    HW119538   6.962   9.918   7.502 -1.9036  0.2050 -0.6871
 6320SOL    HW219539   7.001  10.014   7.392  0.9223  0.1344  0.1741
 6321SOL     OW19540   5.498   1.358   5.858 -0.3940  0.6647  0.5201
 6321SOL    HW119541   5.585   1.396   5.849  0.7014 -1.8884 -0.4397
 6321SOL    HW219542   5.474   1.374   5.950  1.8309 -0.0170  1.2771
 6322SOL     OW19543   9.334   7.804   9.755  0.2578  0.2123 -0.0509
 6322SOL    HW119544   9.292   7.844   9.678  0.3903 -0.4890 -0.4943
 6322SOL    HW219545   9.390   7.873   9.790  1.4305  0.0540 -1.5267
 6323SOL     OW19546   2.301   8.602   5.649 -0.1162  0.2654 -0.2574
 6323SOL    HW119547   2.218   8.564   5.618 -0.9146  1.6863  0.0534
 6323SOL    HW219548   2.347   8.625   5.568 -0.7968  1.0352 -0.4487
 6324SOL     OW19549   3.199   8.487   5.016 -0.4212 -0.0541  0.5110
 6324SOL    HW119550   3.130   8.425   4.996 -1.2372  1.2697 -0.9450
 6324SOL    HW219551   3.236   8.456   5.099 -1.5051 -1.8327  0.3665
 6325SOL     OW19552   8.993   9.307   5.488 -0.1683  0.0658  0.2765
 6325SOL    HW119553   9.026   9.232   5.538  2.3687  1.0759  0.2181
 6325SOL    HW219554   8.972   9.372   5.555  0.0069  0.2176  0.1807
 6326SOL     OW19555   0.800   4.090   6.728  0.3356 -0.2114 -0.6419
 6326SOL    HW119556   0.834   4.063   6.813  1.0839 -0.0022 -0.8703
 6326SOL    HW219557   0.705   4.093   6.740  0.4826  0.5427  0.3907
 6327SOL     OW19558   7.994   7.203   3.137 -0.0246 -0.3034 -0.0360
 6327SOL    HW119559   8.060   7.232   3.075 -0.8163  1.0697 -0.2818
 6327SOL    HW219560   7.937   7.145   3.086 -0.2413  0.2281 -0.4101
 6328SOL     OW19561   9.553   9.775   2.931 -0.0050  0.1040 -0.6649
 6328SOL    HW119562   9.567   9.809   3.020 -0.9348  0.2920 -0.5810
 6328SOL    HW219563   9.610   9.828   2.876 -1.0684  1.5281 -0.4692
 6329SOL     OW19564   6.905   5.883   7.022 -0.2402 -0.6337 -0.8400
 6329SOL    HW119565   6.812   5.881   7.001 -0.5873 -0.3051  0.5910
 6329SOL    HW219566   6.935   5.967   6.988 -0.8732  0.0626  0.2836
 6330SOL     OW19567   0.415   2.086   5.591  0.2295 -0.0874 -0.1864
 6330SOL    HW119568   0.412   2.044   5.677 -2.1570  1.6327  0.6997
 6330SOL    HW219569   0.499   2.060   5.554  1.5056 -0.6339  2.8133
 6331SOL     OW19570   3.740   6.576   2.664 -0.5456 -0.2735  0.1611
 6331SOL    HW119571   3.793   6.515   2.715  1.3623 -0.2256 -1.6471
 6331SOL    HW219572   3.743   6.658   2.713  0.5398 -0.4538  0.4157
 6332SOL     OW19573   5.449   3.867   6.775  0.2590 -0.6395  0.3914
 6332SOL    HW119574   5.472   3.902   6.689 -1.0305 -0.2982  0.1540
 6332SOL    HW219575   5.416   3.779   6.756  1.8202 -1.3357  0.7839
 6333SOL     OW19576   2.773   1.696   2.203 -0.2539 -0.8096  0.2394
 6333SOL    HW119577   2.812   1.704   2.116 -1.7768  2.1051 -0.3036
 6333SOL    HW219578   2.679   1.706   2.188 -0.6952 -1.6685  2.1183
 6334SOL     OW19579   4.249   8.152   3.809  0.0111  0.1707 -0.3795
 6334SOL    HW119580   4.297   8.191   3.882  0.1084  2.5829 -1.6365
 6334SOL    HW219581   4.195   8.084   3.849  0.9757  0.5741  1.7323
 6335SOL     OW19582   9.924   5.961   8.683  0.2983 -0.3442  0.0062
 6335SOL    HW119583   9.996   5.960   8.746  0.9284 -0.5808 -0.6952
 6335SOL    HW219584   9.968   5.953   8.598 -0.2967  2.5121 -0.6804
 6336SOL     OW19585   4.346   7.737   9.915 -0.0503 -0.1206 -0.1162
 6336SOL    HW119586   4.323   7.654   9.873  0.2644 -0.6871  0.7861
 6336SOL    HW219587   4.391   7.787   9.847 -1.1367 -0.2739 -0.9717
 6337SOL     OW19588   2.739   6.832   8.938 -0.2967 -0.5007 -0.5293
 6337SOL    HW119589   2.752   6.787   8.854  1.1506 -0.5630 -0.2840
 6337SOL    HW219590   2.799   6.907   8.934 -1.5317  0.5509 -0.2788
 6338SOL     OW19591   1.760   7.339   0.040  0.0208 -0.4768 -0.2960
 6338SOL    HW119592   1.854   7.336   0.021 -0.1654 -1.3102 -1.1753
 6338SOL    HW219593   1.718   7.328  -0.045 -0.8752 -0.5481  0.1457
 6339SOL     OW19594   2.331   9.213   2.847  0.6570 -0.0795 -0.5204
 6339SOL    HW119595   2.248   9.182   2.811  0.6369 -0.9033  0.1985
 6339SOL    HW219596   2.341   9.302   2.811 -0.0400 -0.3388 -1.4013
 6340SOL     OW19597   2.495   4.039   9.278  0.2729  0.7853 -0.0167
 6340SOL    HW119598   2.571   4.005   9.324 -1.0679 -1.0817  0.9407
 6340SOL    HW219599   2.524   4.048   9.187  0.8552 -2.7651 -0.3071
 6341SOL     OW19600   9.671   9.645   6.238 -0.2988  0.3485 -0.0134
 6341SOL    HW119601   9.752   9.623   6.192  0.6892 -1.9624  2.5732
 6341SOL    HW219602   9.698   9.704   6.308 -1.3482  1.7313 -0.7306
 6342SOL     OW19603   0.851   8.815   1.057 -0.6588  0.0412 -0.4596
 6342SOL    HW119604   0.800   8.800   1.136 -1.1989 -1.5664 -1.0903
 6342SOL    HW219605   0.821   8.900   1.025  0.7304  1.5483  1.8896
 6343SOL     OW19606   1.306   1.344   9.616  0.6507  0.0475 -0.2053
 6343SOL    HW119607   1.380   1.361   9.674  0.9149  1.2679 -0.8694
 6343SOL    HW219608   1.259   1.271   9.658 -0.7615  2.5892  3.0530
 6344SOL     OW19609   5.494   5.851   0.593  0.0349 -0.1721  0.0004
 6344SOL    HW119610   5.424   5.860   0.658  1.4120  1.2741  1.3951
 6344SOL    HW219611   5.470   5.912   0.524  0.0067  0.4930  0.5825
 6345SOL     OW19612   3.008   1.887   0.514  0.6324  0.1816  0.3478
 6345SOL    HW119613   3.004   1.791   0.507 -0.1569  0.3054 -1.2525
 6345SOL    HW219614   2.917   1.914   0.522  0.7541  0.8792 -0.5388
 6346SOL     OW19615   7.206   2.122   6.612 -0.0993 -0.1397 -0.1210
 6346SOL    HW119616   7.117   2.091   6.627 -0.5624  0.1420 -2.0219
 6346SOL    HW219617   7.195   2.202   6.561  1.2480 -0.0222 -0.2706
 6347SOL     OW19618   7.038   6.346   2.538  0.3025  0.2083 -0.1011
 6347SOL    HW119619   7.075   6.431   2.515  0.1602  0.1464 -0.5682
 6347SOL    HW219620   7.054   6.291   2.462 -0.2393  0.0182 -0.0858
 6348SOL     OW19621   0.728   4.977   1.071 -0.1612  0.3663  0.0899
 6348SOL    HW119622   0.724   5.045   1.138  1.9329 -0.9938  1.7607
 6348SOL    HW219623   0.813   4.935   1.085  0.1724 -0.3260 -3.1585
 6349SOL     OW19624   4.005   2.274   6.259 -0.0560 -0.5852 -0.4421
 6349SOL    HW119625   3.968   2.282   6.172 -2.9916  2.3921  0.8785
 6349SOL    HW219626   3.930   2.254   6.315  1.4371 -0.6806  1.6241
 6350SOL     OW19627   0.272   2.227   6.092  0.7627 -0.1229  0.0392
 6350SOL    HW119628   0.334   2.154   6.095 -1.7086 -2.4208 -0.1157
 6350SOL    HW219629   0.223   2.220   6.175  0.1163  1.0017 -0.2324
 6351SOL     OW19630   9.362   3.360   2.646  0.0095  0.2173  0.4595
 6351SOL    HW119631   9.361   3.442   2.694 -1.8501 -0.4879  1.7310
 6351SOL    HW219632   9.320   3.297   2.704 -0.0029 -1.2885 -1.0847
 6352SOL     OW19633   2.548   3.635   4.165 -0.0006  0.2117 -0.0917
 6352SOL    HW119634   2.572   3.712   4.113 -0.3708  0.4572  0.0975
 6352SOL    HW219635   2.465   3.659   4.206  0.8610  0.5138  1.5801
 6353SOL     OW19636   9.257   2.632   6.947 -0.1716 -0.6207  0.2191
 6353SOL    HW119637   9.170   2.615   6.910  0.3183 -0.1965 -1.2015
 6353SOL    HW219638   9.294   2.545   6.961 -0.9282 -0.8135  1.1507
 6354SOL     OW19639   2.772   7.447   0.889 -0.6787 -0.3298  0.1785
 6354SOL    HW119640   2.786   7.509   0.961 -1.2746 -0.4555  0.4145
 6354SOL    HW219641   2.729   7.498   0.821 -1.3738 -0.5319  0.4617
 6355SOL     OW19642   2.582   6.356   6.314  0.1145  0.2709 -0.3054
 6355SOL    HW119643   2.656   6.354   6.252  0.9834 -0.3694  0.7230
 6355SOL    HW219644   2.508   6.323   6.263  0.5012  0.9596 -1.3728
 6356SOL     OW19645   9.835   2.817   3.304  0.6758 -0.4277 -0.2704
 6356SOL    HW119646   9.883   2.876   3.246  0.3791  0.3495  0.2591
 6356SOL    HW219647   9.851   2.850   3.392 -0.2419 -0.5717 -0.0320
 6357SOL     OW19648   1.735   0.761   9.895  0.0056 -0.1350 -0.5992
 6357SOL    HW119649   1.649   0.765   9.854  0.0493 -1.6277 -0.8986
 6357SOL    HW219650   1.728   0.690   9.960  0.4030  1.1360  0.8934
 6358SOL     OW19651   0.475   2.239   4.400  0.0021 -0.4503 -0.0053
 6358SOL    HW119652   0.395   2.291   4.403  0.1454 -0.2581  0.4535
 6358SOL    HW219653   0.507   2.237   4.490  0.8601  0.0104 -0.2830
 6359SOL     OW19654   9.447   3.020   1.999  0.5517  0.1453  0.0420
 6359SOL    HW119655   9.529   3.064   1.976  0.1669 -0.6245 -3.3373
 6359SOL    HW219656   9.471   2.960   2.070  2.5024  1.1287  0.2864
 6360SOL     OW19657   5.387   6.136   0.720  0.1572  0.1470  0.5259
 6360SOL    HW119658   5.366   6.161   0.810  0.4528  2.3833  0.0378
 6360SOL    HW219659   5.481   6.117   0.721 -0.0587 -1.0121  0.8887
 6361SOL     OW19660   6.210   9.999   4.226  0.1006  0.3007  0.1120
 6361SOL    HW119661   6.189   9.914   4.187 -0.4348  0.2962  0.4032
 6361SOL    HW219662   6.305   9.998   4.236  0.1019 -0.2479  0.0758
 6362SOL     OW19663   0.645   0.761   8.837  0.1412  0.3735 -0.7984
 6362SOL    HW119664   0.663   0.769   8.743  1.5192 -2.1474 -0.8343
 6362SOL    HW219665   0.709   0.698   8.868 -3.2491 -2.5799  0.8961
 6363SOL     OW19666   5.704   8.860   6.753  0.1395 -0.4979  0.1188
 6363SOL    HW119667   5.775   8.825   6.806  2.9949 -0.3773 -3.2389
 6363SOL    HW219668   5.695   8.798   6.681 -1.4352  0.7969 -0.8773
 6364SOL     OW19669   5.616   3.210   5.102 -0.1929 -0.1433  0.2205
 6364SOL    HW119670   5.628   3.278   5.036  0.8890 -1.6488 -1.2125
 6364SOL    HW219671   5.521   3.203   5.113 -0.3298  1.5615  0.4185
 6365SOL     OW19672   6.344   7.670   9.733 -0.1064  0.2163 -0.3545
 6365SOL    HW119673   6.309   7.717   9.657 -0.2657  1.3593  0.3883
 6365SOL    HW219674   6.439   7.681   9.726 -0.1859  1.6559  0.3916
 6366SOL     OW19675   1.367   2.803   5.758 -0.7778 -0.3207 -0.1068
 6366SOL    HW119676   1.414   2.850   5.827 -1.7556 -0.0803  0.4194
 6366SOL    HW219677   1.392   2.847   5.677 -0.9194  0.4701  0.2718
 6367SOL     OW19678   8.140   2.733   4.228  0.4160 -0.3097  0.4016
 6367SOL    HW119679   8.115   2.665   4.165  2.9649  0.2970 -1.4445
 6367SOL    HW219680   8.126   2.815   4.182  2.3662  0.1490  0.5446
 6368SOL     OW19681   0.991   7.030   4.099 -0.3090  0.3953 -0.2976
 6368SOL    HW119682   1.011   7.052   4.190 -1.1273 -0.5479  0.1198
 6368SOL    HW219683   1.068   6.982   4.068  0.1312  1.0460 -0.2336
 6369SOL     OW19684   6.598   3.967   2.471 -0.7181  0.1592 -0.0465
 6369SOL    HW119685   6.565   4.057   2.478 -1.3699 -0.0967  0.2812
 6369SOL    HW219686   6.632   3.961   2.381 -0.8569  0.6673 -0.1387
 6370SOL     OW19687   5.804   1.049   0.992 -0.3383 -0.7840  0.0700
 6370SOL    HW119688   5.763   1.127   1.030  1.2451 -0.3649  1.0147
 6370SOL    HW219689   5.731   0.991   0.970 -1.4745  0.4099  0.5728
 6371SOL     OW19690   8.443   0.713   0.174  0.8360 -0.5916 -0.5347
 6371SOL    HW119691   8.431   0.640   0.234  0.5074  1.7075  2.4245
 6371SOL    HW219692   8.354   0.747   0.161  1.0927 -0.1194 -1.0695
 6372SOL     OW19693   3.743   8.178   7.983 -0.0576 -0.5827  0.4305
 6372SOL    HW119694   3.677   8.227   7.934  0.5058  0.8372  1.0589
 6372SOL    HW219695   3.822   8.183   7.929 -0.2591 -1.6843  0.0128
 6373SOL     OW19696   3.232   1.831   4.591 -0.0347 -0.4525  0.1650
 6373SOL    HW119697   3.225   1.926   4.606 -0.8640 -0.5970  0.7484
 6373SOL    HW219698   3.290   1.824   4.515  0.4465  0.4995  0.4151
 6374SOL     OW19699   4.683   3.652   2.547 -0.0741  0.3082 -0.2366
 6374SOL    HW119700   4.613   3.633   2.609 -1.8058  1.7605 -1.6592
 6374SOL    HW219701   4.673   3.586   2.478  0.0906  0.3998 -0.3507
 6375SOL     OW19702   2.392   4.433   5.971 -0.2003 -0.6200  0.1343
 6375SOL    HW119703   2.393   4.481   6.054 -1.2404  0.2995 -0.3658
 6375SOL    HW219704   2.324   4.476   5.919 -0.2212 -1.7892 -0.8450
 6376SOL     OW19705   9.769   6.868   0.765  0.0812 -0.1590 -0.3559
 6376SOL    HW119706   9.674   6.862   0.757  0.0458  0.8704 -0.9010
 6376SOL    HW219707   9.783   6.910   0.850 -0.0521  1.5980 -1.1539
 6377SOL     OW19708   1.451   7.766   1.770 -0.5998  0.8838 -0.0646
 6377SOL    HW119709   1.445   7.825   1.845  1.1788  0.5442  0.3837
 6377SOL    HW219710   1.431   7.679   1.805 -0.2210  0.7919 -0.0684
 6378SOL     OW19711   1.003   8.152   7.741 -0.0704  0.2946 -0.0056
 6378SOL    HW119712   0.971   8.083   7.682 -0.7196  0.8485 -0.3212
 6378SOL    HW219713   1.047   8.214   7.683 -1.2233  1.1432 -0.0127
 6379SOL     OW19714   8.770   1.289   2.218 -0.7589  0.0109 -0.1322
 6379SOL    HW119715   8.677   1.314   2.215 -0.6189  0.5292 -2.7499
 6379SOL    HW219716   8.817   1.373   2.214 -0.1935 -0.2813  0.3942
 6380SOL     OW19717   0.278   2.557   4.214 -0.4333  0.3955  0.6125
 6380SOL    HW119718   0.224   2.614   4.159  0.0994 -0.8948 -1.3796
 6380SOL    HW219719   0.308   2.613   4.285 -2.1434  1.8495  0.2602
 6381SOL     OW19720   9.384   9.838   8.278  0.1656 -0.4579 -0.6241
 6381SOL    HW119721   9.395   9.933   8.273  0.2146 -0.3989  0.4091
 6381SOL    HW219722   9.290   9.825   8.287  0.3582 -0.2891  2.6310
 6382SOL     OW19723   4.483   2.320   0.855 -0.1977 -0.9156 -0.0991
 6382SOL    HW119724   4.554   2.372   0.817  0.1955 -1.7164 -0.4847
 6382SOL    HW219725   4.412   2.383   0.868  0.8731  0.0829  1.1118
 6383SOL     OW19726   0.664   3.409   3.901 -0.5217  0.2201  0.7848
 6383SOL    HW119727   0.626   3.486   3.859  0.5160  0.1448 -0.3542
 6383SOL    HW219728   0.752   3.436   3.927 -0.3508 -0.4187  0.8883
 6384SOL     OW19729   9.487   3.780   8.615  0.3733 -0.1561 -0.3515
 6384SOL    HW119730   9.502   3.784   8.710  0.7491  0.2733 -0.4231
 6384SOL    HW219731   9.392   3.781   8.606  0.3380  0.5387  0.0009
 6385SOL     OW19732   3.507   8.229   8.375 -0.2595 -0.3041 -0.0150
 6385SOL    HW119733   3.582   8.280   8.407  0.0555 -1.0285  0.4283
 6385SOL    HW219734   3.480   8.275   8.295 -0.7773  1.2781  1.0250
 6386SOL     OW19735   7.778   8.682   4.300 -0.3367 -0.0232  0.3283
 6386SOL    HW119736   7.741   8.660   4.386  0.1793 -0.4547  0.4397
 6386SOL    HW219737   7.860   8.634   4.295  0.2296  0.9303  0.0749
 6387SOL     OW19738   0.632   7.776   1.641 -0.2418  0.3049 -0.2831
 6387SOL    HW119739   0.707   7.836   1.648 -0.0386  0.3475 -2.1323
 6387SOL    HW219740   0.556   7.831   1.660  0.1244  0.4495  0.8384
 6388SOL     OW19741   8.815   2.391   9.683 -0.4608 -0.3303 -0.0115
 6388SOL    HW119742   8.890   2.335   9.701 -0.7789 -0.1482  2.2539
 6388SOL    HW219743   8.825   2.417   9.592  2.1786 -0.3749  0.1994
 6389SOL     OW19744   4.847   4.828   1.016  0.1408 -0.0383 -0.2507
 6389SOL    HW119745   4.910   4.760   0.989 -1.2817 -1.2104 -0.7499
 6389SOL    HW219746   4.798   4.788   1.087  0.3766  1.1208  0.5895
 6390SOL     OW19747   0.201   7.199   4.090 -0.1796  0.0877 -0.3557
 6390SOL    HW119748   0.117   7.238   4.114  0.1838  0.3186  0.6057
 6390SOL    HW219749   0.265   7.269   4.105  0.3632 -0.5555  0.4501
 6391SOL     OW19750   4.995   3.124   5.846  0.0373  0.9680 -0.3150
 6391SOL    HW119751   4.951   3.079   5.774  2.2022 -1.9769  0.0261
 6391SOL    HW219752   5.066   3.173   5.803 -0.7725  2.0674 -0.4437
 6392SOL     OW19753   2.231   9.788   0.729  0.0559  0.1681 -0.6398
 6392SOL    HW119754   2.161   9.745   0.779  1.4193 -0.5448  0.7568
 6392SOL    HW219755   2.185   9.842   0.665 -1.7845 -3.0947 -2.2994
 6393SOL     OW19756   7.564   9.922   5.479  0.1048 -0.1259  0.2801
 6393SOL    HW119757   7.548   9.886   5.567  2.1526  1.5793  1.4455
 6393SOL    HW219758   7.570  10.016   5.493  0.8110  0.1455 -1.6489
 6394SOL     OW19759   2.259   4.174   9.951  0.2864 -0.0618  0.2767
 6394SOL    HW119760   2.251   4.190  10.045  2.0274  1.8796  0.1784
 6394SOL    HW219761   2.180   4.212   9.913 -0.2495 -0.5279  0.9024
 6395SOL     OW19762   8.282   7.527   4.389 -0.5848  0.9871  0.1903
 6395SOL    HW119763   8.224   7.536   4.314  1.5806 -0.5141 -1.8013
 6395SOL    HW219764   8.369   7.511   4.351  0.8402  1.3309  3.0202
 6396SOL     OW19765   0.099   0.920   1.502 -0.9072 -0.3292 -0.8680
 6396SOL    HW119766   0.057   0.899   1.585  1.6664 -0.9085  0.3948
 6396SOL    HW219767   0.125   0.835   1.466  0.5585  0.0310 -0.7606
 6397SOL     OW19768   6.767   8.395   2.854  0.1465  0.1040  0.2100
 6397SOL    HW119769   6.750   8.449   2.931  0.2991  0.0660  0.2704
 6397SOL    HW219770   6.847   8.431   2.816  2.1470 -2.0833  2.0732
 6398SOL     OW19771   0.147   1.642   5.302 -0.5063  0.4911  0.1555
 6398SOL    HW119772   0.111   1.566   5.256 -1.2012  1.2155 -0.5412
 6398SOL    HW219773   0.073   1.703   5.309 -0.2399  0.6857  1.6476
 6399SOL     OW19774   9.462   3.112   6.789 -1.0154  0.5063 -0.3754
 6399SOL    HW119775   9.516   3.179   6.832 -1.5191  1.4190 -1.1176
 6399SOL    HW219776   9.408   3.076   6.859 -0.6242  0.7677  0.0679
 6400SOL     OW19777   8.160   6.307   3.776  0.4936  0.0333  0.0505
 6400SOL    HW119778   8.243   6.280   3.815  0.1742  0.1519  0.8411
 6400SOL    HW219779   8.168   6.402   3.766  0.6246 -0.0140 -0.2913
 6401SOL     OW19780   2.022   2.356   0.480  0.1620  0.8549 -0.1543
 6401SOL    HW119781   2.000   2.413   0.406 -1.5661 -1.2134 -1.3626
 6401SOL    HW219782   1.969   2.278   0.466  2.8157 -1.3281  1.1149
 6402SOL     OW19783   9.692   7.706   0.734  0.2022  0.1203  0.3467
 6402SOL    HW119784   9.715   7.709   0.827  0.0823 -1.5779  0.4581
 6402SOL    HW219785   9.775   7.689   0.689  0.2334  0.7765  0.1456
 6403SOL     OW19786   7.899   0.135   6.349 -0.3466  0.2946 -0.1069
 6403SOL    HW119787   7.923   0.046   6.324 -0.6330  0.7612 -2.2605
 6403SOL    HW219788   7.971   0.165   6.405 -0.9115 -1.7136  1.8406
 6404SOL     OW19789   4.603   7.431   8.478 -0.0179 -0.1531  0.0911
 6404SOL    HW119790   4.566   7.343   8.481  0.5849 -0.3842  1.6503
 6404SOL    HW219791   4.652   7.434   8.396 -1.8071 -0.5115 -1.0346
 6405SOL     OW19792   7.688   7.871   6.766  0.2856  0.1267 -0.4778
 6405SOL    HW119793   7.659   7.787   6.800 -0.5816  0.4512 -0.3807
 6405SOL    HW219794   7.783   7.870   6.775  0.1622 -0.2153  0.9983
 6406SOL     OW19795   2.140   9.088   5.268 -0.0644  0.4203 -0.1816
 6406SOL    HW119796   2.112   9.112   5.179  0.0101  0.8192 -0.0987
 6406SOL    HW219797   2.101   9.155   5.324  0.2511  0.4241  0.0367
 6407SOL     OW19798   6.723   4.546   4.715 -0.2830  0.1850  0.0518
 6407SOL    HW119799   6.741   4.580   4.627  0.4215  0.6900  0.3868
 6407SOL    HW219800   6.653   4.482   4.701  2.8393 -3.2048 -1.5951
 6408SOL     OW19801   5.500   7.258   6.002 -0.5990 -0.3889  0.0411
 6408SOL    HW119802   5.514   7.165   6.016  0.0492 -0.2154  0.6214
 6408SOL    HW219803   5.421   7.263   5.949 -0.0583 -1.3158 -0.8836
 6409SOL     OW19804   8.904   9.132   6.904  0.2253 -0.3452  0.0592
 6409SOL    HW119805   8.927   9.102   6.816  2.9525 -0.9160  0.8782
 6409SOL    HW219806   8.878   9.224   6.892  1.5672 -0.1015 -1.2301
 6410SOL     OW19807   0.968   0.369   5.822 -0.3238  0.1974  0.9583
 6410SOL    HW119808   0.937   0.448   5.866 -2.4362 -0.8166  1.3879
 6410SOL    HW219809   0.962   0.389   5.729 -0.3556  0.7056  1.0667
 6411SOL     OW19810   7.966   7.833   6.831  0.1800  0.6485  0.6717
 6411SOL    HW119811   7.998   7.751   6.868 -0.5855 -0.4594 -1.0051
 6411SOL    HW219812   8.037   7.864   6.775 -0.5515 -0.3929 -0.9098
 6412SOL     OW19813   9.139   5.888   9.589  0.1539  0.6684  0.5813
 6412SOL    HW119814   9.199   5.928   9.526 -0.4608  1.5130  0.5072
 6412SOL    HW219815   9.084   5.830   9.537  1.0421 -0.2933  0.6857
 6413SOL     OW19816   5.805   5.440   4.404  0.2447 -0.1754  0.2260
 6413SOL    HW119817   5.776   5.525   4.372 -2.0144 -1.2091 -0.6964
 6413SOL    HW219818   5.856   5.404   4.332 -0.2628 -0.2871 -0.0853
 6414SOL     OW19819   7.745   3.846   2.926  0.1973  0.3566  0.4236
 6414SOL    HW119820   7.820   3.829   2.984  0.9280  0.5325 -0.4466
 6414SOL    HW219821   7.736   3.941   2.925 -1.2834  0.2809  2.0401
 6415SOL     OW19822   0.247   2.780   2.758 -0.3060 -0.2934  0.4426
 6415SOL    HW119823   0.171   2.723   2.754  0.2922 -1.0941  0.2256
 6415SOL    HW219824   0.312   2.737   2.701  1.0755 -0.7944  2.3144
 6416SOL     OW19825   2.132   9.459   7.352 -0.6593 -0.0994 -0.1698
 6416SOL    HW119826   2.083   9.395   7.405 -0.7143 -0.6157 -0.8267
 6416SOL    HW219827   2.197   9.406   7.306  0.9948  0.6649  1.2033
 6417SOL     OW19828   5.283   1.964   6.446 -0.2121  0.4088  0.1530
 6417SOL    HW119829   5.231   1.896   6.490  1.2977 -0.6095  0.4437
 6417SOL    HW219830   5.277   1.942   6.353 -1.4085  1.1230  0.0434
 6418SOL     OW19831   0.189   1.540   9.499  0.2602 -0.1122 -0.1761
 6418SOL    HW119832   0.120   1.549   9.434 -1.2273 -0.3119  1.2913
 6418SOL    HW219833   0.145   1.557   9.583  2.2511  0.9401  0.7372
 6419SOL     OW19834   9.162   4.857   8.357  0.1623 -0.3270 -0.3885
 6419SOL    HW119835   9.226   4.882   8.291  0.4572  0.3814  0.1436
 6419SOL    HW219836   9.107   4.791   8.315 -0.6507  1.2487 -1.8609
 6420SOL     OW19837   9.367   1.169   0.066 -0.5295 -0.1106 -0.6761
 6420SOL    HW119838   9.384   1.132   0.153 -0.3082  0.7459 -0.3429
 6420SOL    HW219839   9.358   1.093   0.009 -1.3736 -0.7029  0.2170
 6421SOL     OW19840   9.093   2.780   6.623  0.1080 -0.6848  0.1934
 6421SOL    HW119841   9.032   2.787   6.696 -1.0624 -1.9296 -0.5998
 6421SOL    HW219842   9.056   2.710   6.568  0.5689  0.6379 -1.9135
 6422SOL     OW19843   3.807   1.312   3.970  0.2580  0.2714  0.2760
 6422SOL    HW119844   3.883   1.264   3.938 -0.0938  0.4996 -0.9449
 6422SOL    HW219845   3.779   1.264   4.047  1.1507 -0.2785  0.2733
 6423SOL     OW19846   7.923   4.390   1.177 -0.4008  0.1918  0.3896
 6423SOL    HW119847   7.987   4.435   1.233 -0.9984 -0.2188  1.4234
 6423SOL    HW219848   7.852   4.366   1.236 -2.7699  2.8525 -1.1385
 6424SOL     OW19849   8.486   6.284   9.264 -0.1590 -0.0350  0.1828
 6424SOL    HW119850   8.477   6.334   9.183  2.4944 -2.1391 -1.5735
 6424SOL    HW219851   8.580   6.269   9.272 -0.4559 -0.8293  3.1200
 6425SOL     OW19852   7.558   1.635   2.016 -0.0268  0.3621 -0.0336
 6425SOL    HW119853   7.569   1.552   2.063 -1.4305  0.4139  0.4457
 6425SOL    HW219854   7.522   1.695   2.082 -1.2070  0.6821 -0.9309
 6426SOL     OW19855   5.249   8.351   3.752  0.2446  0.9808  0.5249
 6426SOL    HW119856   5.300   8.334   3.673  0.6951  1.0803  0.7941
 6426SOL    HW219857   5.314   8.358   3.822 -0.2542 -0.6891  1.1950
 6427SOL     OW19858   7.011   1.010   4.365  0.6513 -0.2577 -0.1737
 6427SOL    HW119859   7.043   1.097   4.341 -1.6701  0.8675  0.5557
 6427SOL    HW219860   7.021   0.958   4.285  1.1615  0.9493 -0.9158
 6428SOL     OW19861   4.121   2.958   2.744  0.2004  0.3397 -0.0182
 6428SOL    HW119862   4.113   2.880   2.799  1.2530  0.3691  0.1988
 6428SOL    HW219863   4.215   2.969   2.732  0.0024  0.2359 -1.9961
 6429SOL     OW19864   3.683   0.058   0.152  0.3391 -0.1163  0.5452
 6429SOL    HW119865   3.662   0.115   0.078  1.4431  0.5924  0.7465
 6429SOL    HW219866   3.735   0.114   0.211  1.7033 -1.3988  0.6157
 6430SOL     OW19867   0.145   6.262   1.972 -0.4926  0.3612 -0.6678
 6430SOL    HW119868   0.075   6.313   2.012 -0.7959 -0.1332 -0.5599
 6430SOL    HW219869   0.100   6.199   1.915 -0.0608  1.2160 -1.9938
 6431SOL     OW19870   1.815   3.935   7.332  0.1686 -0.1641  0.0537
 6431SOL    HW119871   1.864   3.996   7.387  0.5186  0.5126 -0.9798
 6431SOL    HW219872   1.853   3.850   7.352  2.0097  0.3606 -0.8988
 6432SOL     OW19873   2.108   6.010   4.111 -0.2381  0.2184 -0.1347
 6432SOL    HW119874   2.050   6.012   4.188 -0.9623 -0.7859 -0.6263
 6432SOL    HW219875   2.061   6.060   4.045  0.0945  0.5505 -0.1202
 6433SOL     OW19876   8.286   0.669   2.744  0.4875 -0.0852  0.0811
 6433SOL    HW119877   8.219   0.727   2.708  0.2361 -1.1696 -1.2611
 6433SOL    HW219878   8.337   0.725   2.803 -2.2886  0.5196  2.1103
 6434SOL     OW19879   8.806   1.028   3.843 -0.0458  0.0829  0.1143
 6434SOL    HW119880   8.870   0.996   3.907  1.2147  0.5605 -0.8732
 6434SOL    HW219881   8.859   1.062   3.771 -1.4326 -0.4834 -1.2194
 6435SOL     OW19882   8.031   0.710   1.031 -0.2903 -0.1470 -0.0919
 6435SOL    HW119883   8.024   0.616   1.045  3.0817 -0.3012  1.6982
 6435SOL    HW219884   8.109   0.736   1.081  1.7427  2.7808 -4.1693
 6436SOL     OW19885   5.104   1.393   3.652  0.2917  0.3582 -0.2689
 6436SOL    HW119886   5.011   1.370   3.652  0.3427 -0.0058  1.4475
 6436SOL    HW219887   5.149   1.310   3.667  0.8473  0.6719 -0.1658
 6437SOL     OW19888   4.679   9.274   9.385  0.1470 -0.4349  0.1888
 6437SOL    HW119889   4.616   9.239   9.448 -2.3444  0.2181 -1.7956
 6437SOL    HW219890   4.644   9.359   9.360  0.9400 -0.7359 -2.1924
 6438SOL     OW19891   5.770   2.525   2.459 -0.3954 -0.4278  0.1960
 6438SOL    HW119892   5.762   2.603   2.514  1.9274  0.7254 -0.9473
 6438SOL    HW219893   5.858   2.491   2.478 -0.1862 -0.9523 -1.5671
 6439SOL     OW19894   3.355   8.673   5.663  0.0168 -0.1372 -0.3384
 6439SOL    HW119895   3.371   8.615   5.589  1.3546 -1.3705  0.8431
 6439SOL    HW219896   3.294   8.625   5.718  0.5833 -0.1286  0.3089
 6440SOL     OW19897   1.691   2.523   5.431  1.0093 -0.1524 -0.2225
 6440SOL    HW119898   1.687   2.510   5.337  1.4048  0.6593 -0.3615
 6440SOL    HW219899   1.645   2.605   5.447 -0.5512 -1.1149  0.5057
 6441SOL     OW19900   2.292   9.436   1.348  0.2724 -0.4365 -0.2095
 6441SOL    HW119901   2.335   9.356   1.319 -0.2850 -1.0775  0.7066
 6441SOL    HW219902   2.219   9.448   1.286  0.9334 -0.0888 -0.9364
 6442SOL     OW19903   0.926   8.957   9.333  0.5139  0.1261 -0.6779
 6442SOL    HW119904   0.948   8.930   9.244  2.3399 -0.9681  0.0397
 6442SOL    HW219905   1.011   8.966   9.376 -0.3011  1.4638  0.7392
 6443SOL     OW19906   3.809   6.987   6.298 -0.5833 -0.0291  0.2515
 6443SOL    HW119907   3.734   6.931   6.321  0.8492 -1.0609  2.7640
 6443SOL    HW219908   3.780   7.076   6.318 -1.5312 -0.2781  0.0480
 6444SOL     OW19909   1.544   8.699   1.206 -0.0752  0.2724 -0.6271
 6444SOL    HW119910   1.461   8.717   1.248 -0.1298 -0.3146 -0.4809
 6444SOL    HW219911   1.591   8.643   1.267  0.1301 -0.0010 -1.0288
 6445SOL     OW19912   7.639   0.463   7.099  0.4699  0.2758 -0.2043
 6445SOL    HW119913   7.574   0.462   7.169  2.1072 -1.4125  1.4104
 6445SOL    HW219914   7.603   0.406   7.032 -0.3140  0.4516  0.0532
 6446SOL     OW19915   0.497   5.914   2.144 -0.6960 -0.5164 -0.0801
 6446SOL    HW119916   0.538   5.849   2.086  0.6053 -0.6762  0.9561
 6446SOL    HW219917   0.492   5.994   2.091 -0.7706 -1.0177 -0.8372
 6447SOL     OW19918   9.024   8.098   1.013  0.2213  0.0640 -0.1453
 6447SOL    HW119919   9.089   8.157   0.974  0.8841 -1.7193 -1.9178
 6447SOL    HW219920   9.075   8.026   1.049 -0.6869 -0.8252 -0.5834
 6448SOL     OW19921   8.454   6.066   1.379 -0.0956  0.3018 -0.4029
 6448SOL    HW119922   8.497   5.992   1.423  0.1621 -0.1891 -1.4292
 6448SOL    HW219923   8.362   6.057   1.401  0.0608  0.2021  0.2208
 6449SOL     OW19924   4.503   7.160   4.187 -0.6019  0.1743  0.1411
 6449SOL    HW119925   4.475   7.075   4.155 -1.6109  0.8663 -0.9030
 6449SOL    HW219926   4.423   7.198   4.226 -0.6351  1.3446 -1.0109
 6450SOL     OW19927   7.625   7.254   5.673 -0.1775 -0.0588  0.7846
 6450SOL    HW119928   7.541   7.298   5.685 -0.6541 -0.6895 -0.0816
 6450SOL    HW219929   7.659   7.287   5.590 -0.0788 -0.5825  0.6074
 6451SOL     OW19930   4.101   4.707   1.052  0.5982  0.5563 -0.4390
 6451SOL    HW119931   4.148   4.651   0.990 -1.7947 -1.3280 -0.6749
 6451SOL    HW219932   4.167   4.731   1.117  1.5523 -3.7597  0.4871
 6452SOL     OW19933   7.101   0.329   9.850  0.3692 -0.0899 -0.3070
 6452SOL    HW119934   7.072   0.238   9.843 -1.5155  0.4376 -0.0135
 6452SOL    HW219935   7.116   0.342   9.944 -1.1978  0.3860 -0.0962
 6453SOL     OW19936   5.252   7.806   7.047  0.2655 -0.3492  0.5168
 6453SOL    HW119937   5.182   7.806   6.982 -0.5378 -1.2371  1.3535
 6453SOL    HW219938   5.224   7.870   7.112  0.8525  0.2141  0.2246
 6454SOL     OW19939   7.581   6.192   4.966 -0.7126  0.0356  0.1866
 6454SOL    HW119940   7.586   6.205   5.061  0.7663 -0.3714  0.1783
 6454SOL    HW219941   7.586   6.098   4.954 -2.3840 -0.0323 -0.2451
 6455SOL     OW19942   7.873   4.438   9.313  0.5195  0.8311  0.4940
 6455SOL    HW119943   7.904   4.369   9.372 -0.4386 -0.2568 -0.2431
 6455SOL    HW219944   7.944   4.449   9.250  0.9921  1.0694  1.0568
 6456SOL     OW19945   3.018   8.240   9.853  0.6827  0.2753  0.2737
 6456SOL    HW119946   3.027   8.326   9.812 -1.4712  0.5309  0.2220
 6456SOL    HW219947   3.078   8.243   9.928  1.4223  1.4207 -0.3346
 6457SOL     OW19948   1.041   0.876   3.556  0.5051 -0.3785 -0.3599
 6457SOL    HW119949   1.068   0.802   3.610 -3.7583 -2.3055 -0.4955
 6457SOL    HW219950   0.995   0.934   3.617  0.0230 -0.0572 -1.0180
 6458SOL     OW19951   4.594   5.264   1.899 -0.3699 -0.3797  0.3179
 6458SOL    HW119952   4.658   5.220   1.843 -0.4128 -0.9440  0.7089
 6458SOL    HW219953   4.648   5.310   1.964 -0.3194  0.2961 -0.1886
 6459SOL     OW19954   9.157   3.681   6.553 -0.0927 -0.4746 -0.3835
 6459SOL    HW119955   9.207   3.748   6.598  0.0304 -0.2738 -0.8105
 6459SOL    HW219956   9.109   3.636   6.622  0.1864 -0.2541 -0.0427
 6460SOL     OW19957   9.246   2.320   0.339  0.2883  0.1877  0.0922
 6460SOL    HW119958   9.278   2.234   0.368 -0.4829  0.1161  0.7490
 6460SOL    HW219959   9.164   2.301   0.294  0.0202  0.6056  0.4036
 6461SOL     OW19960   7.825   3.667   4.720  0.0093  0.5877  0.0450
 6461SOL    HW119961   7.837   3.572   4.720  1.3323  0.7075  1.7130
 6461SOL    HW219962   7.730   3.680   4.718 -0.2181 -0.7956  1.0193
 6462SOL     OW19963   1.819   1.407   9.239 -0.0489 -0.4959  0.1412
 6462SOL    HW119964   1.751   1.344   9.262 -1.0898  0.2304 -0.8007
 6462SOL    HW219965   1.821   1.405   9.143 -1.7514  2.4787 -0.0899
 6463SOL     OW19966   9.556   2.983   7.375 -0.1270  0.2574 -0.0791
 6463SOL    HW119967   9.472   2.970   7.420 -0.7820 -0.7201 -1.5083
 6463SOL    HW219968   9.572   3.077   7.381 -1.9768  0.6587 -0.8561
 6464SOL     OW19969   1.369   9.375   5.701 -0.1617 -0.6210 -0.0983
 6464SOL    HW119970   1.428   9.437   5.743 -0.7853 -0.5143  0.6454
 6464SOL    HW219971   1.407   9.289   5.719  0.2526 -0.4999 -0.4026
 6465SOL     OW19972   0.620   1.660   0.643  0.2680  0.2918  0.2558
 6465SOL    HW119973   0.610   1.585   0.702  0.0026 -0.6590 -0.9601
 6465SOL    HW219974   0.577   1.732   0.688  1.9944  0.1976  2.2549
 6466SOL     OW19975   9.176   1.031   5.331  0.0392  0.1206  0.0495
 6466SOL    HW119976   9.175   1.081   5.413  0.2619  1.9153 -0.9883
 6466SOL    HW219977   9.087   1.038   5.297  0.5097  1.3612 -0.9764
 6467SOL     OW19978   3.981   9.863   1.616  0.0829  0.6726  0.7621
 6467SOL    HW119979   4.021   9.777   1.599 -2.0778 -0.4622  1.1144
 6467SOL    HW219980   3.944   9.855   1.704 -2.9860  0.7684 -0.4219
 6468SOL     OW19981   3.003   3.318   2.660  0.1389 -0.3182 -0.0208
 6468SOL    HW119982   3.058   3.377   2.711 -1.7290  1.3027  0.2169
 6468SOL    HW219983   2.993   3.240   2.715  1.4445 -0.2858  0.2953
 6469SOL     OW19984   9.386   9.441   5.587 -0.5375 -0.4302 -0.5032
 6469SOL    HW119985   9.474   9.477   5.601 -0.4194 -1.5553  2.2161
 6469SOL    HW219986   9.401   9.361   5.537 -0.3342  0.6606 -2.2822
 6470SOL     OW19987   8.814   9.847   6.644 -0.5309 -0.1583 -0.0158
 6470SOL    HW119988   8.804   9.813   6.733  0.9692 -1.9728 -0.4854
 6470SOL    HW219989   8.787   9.775   6.587 -2.7064  1.3813 -1.1073
 6471SOL     OW19990   1.660   6.578   7.931  0.5786  0.1264  0.3171
 6471SOL    HW119991   1.629   6.495   7.896 -2.0566  1.6530 -1.2514
 6471SOL    HW219992   1.744   6.593   7.888 -1.2379  0.5803 -3.4121
 6472SOL     OW19993   6.004   5.876   9.895  0.2660  0.4246 -0.5738
 6472SOL    HW119994   6.028   5.968   9.889  1.1219  0.3544  1.1540
 6472SOL    HW219995   5.994   5.859   9.989  3.4130 -1.9641 -0.4752
 6473SOL     OW19996   8.380   5.068   2.420 -0.0351  0.6283  0.0684
 6473SOL    HW119997   8.463   5.115   2.417  0.4415 -0.2720 -1.1067
 6473SOL    HW219998   8.353   5.073   2.512  1.6955  0.2699  0.6216
 6474SOL     OW19999   6.623   5.406   1.220 -0.3062  0.1172 -0.2268
 6474SOL    HW120000   6.568   5.327   1.221  0.5221 -0.4617  0.2731
 6474SOL    HW220001   6.712   5.373   1.225  0.1334  1.0313 -1.6635
 6475SOL     OW20002   4.821   6.346   2.549  0.0144 -0.7495  0.3375
 6475SOL    HW120003   4.838   6.409   2.479 -0.2220 -0.6299  0.3869
 6475SOL    HW220004   4.891   6.360   2.613 -1.8586  1.8165  2.0170
 6476SOL     OW20005   1.285   5.244   4.698  0.2447  0.0414  0.4592
 6476SOL    HW120006   1.249   5.262   4.611 -0.5679  1.2619  1.0204
 6476SOL    HW220007   1.347   5.315   4.714  1.6714 -1.0946  0.2220
 6477SOL     OW20008   3.579   7.736   2.253  0.0717 -0.4082 -0.3857
 6477SOL    HW120009   3.574   7.818   2.203  2.5836 -1.2711 -2.2342
 6477SOL    HW220010   3.518   7.677   2.208 -0.6892 -0.0090  0.0946
 6478SOL     OW20011   5.488   5.270   7.221 -0.1187 -0.3705 -0.7439
 6478SOL    HW120012   5.416   5.276   7.283 -0.4677 -0.2141 -1.1610
 6478SOL    HW220013   5.492   5.356   7.179  0.4432 -0.3080 -0.5809
 6479SOL     OW20014   5.216   0.690   0.966 -0.5261  0.3385 -0.7706
 6479SOL    HW120015   5.138   0.641   0.992 -0.8967  1.0140 -0.6001
 6479SOL    HW220016   5.265   0.703   1.047  0.0099 -0.4994 -0.9502
 6480SOL     OW20017   1.302   5.373   5.176 -0.6226  0.2657 -0.2966
 6480SOL    HW120018   1.226   5.365   5.234 -1.3263  1.0272 -1.0914
 6480SOL    HW220019   1.376   5.346   5.230 -1.3826  0.0505  0.6638
 6481SOL     OW20020   6.330   8.445   6.142  0.0323 -0.3128  0.6851
 6481SOL    HW120021   6.319   8.351   6.161  1.3926 -0.8752 -0.9997
 6481SOL    HW220022   6.241   8.477   6.129 -0.4154 -1.7021  0.0040
 6482SOL     OW20023   0.297   9.319   9.844 -0.3716 -0.5176 -0.1803
 6482SOL    HW120024   0.256   9.233   9.829  0.4616 -0.9822  0.1669
 6482SOL    HW220025   0.362   9.327   9.774 -1.5286  0.5580 -1.1994
 6483SOL     OW20026   6.295   3.746   5.208 -0.1567  0.1826 -0.1127
 6483SOL    HW120027   6.284   3.698   5.126  0.0150  1.1780 -0.7431
 6483SOL    HW220028   6.360   3.814   5.187 -1.9051  2.0360  0.1202
 6484SOL     OW20029   7.741   5.774   5.709  0.6290  0.0948 -0.1047
 6484SOL    HW120030   7.765   5.864   5.729  3.0773 -0.2394 -1.1426
 6484SOL    HW220031   7.755   5.727   5.792  0.2331  0.5019  0.1987
 6485SOL     OW20032   9.623   4.639   3.541  0.0021  0.6026  0.0033
 6485SOL    HW120033   9.715   4.664   3.542  0.4574 -0.8109 -1.3131
 6485SOL    HW220034   9.585   4.690   3.470  0.1843  0.0211 -0.5330
 6486SOL     OW20035   7.606   9.771   9.048  0.0223 -0.1534  0.0238
 6486SOL    HW120036   7.688   9.722   9.050 -0.0039 -0.3744 -1.8905
 6486SOL    HW220037   7.549   9.719   8.990 -0.2406  1.7329 -1.5278
 6487SOL     OW20038   0.633   3.979   8.206 -0.2369 -0.0054 -0.1517
 6487SOL    HW120039   0.596   4.058   8.246  0.2657  0.2286 -0.1353
 6487SOL    HW220040   0.594   3.975   8.119 -3.4299 -1.9591  1.1671
 6488SOL     OW20041   5.171   4.679   0.195  0.2375  0.0856 -0.2486
 6488SOL    HW120042   5.131   4.727   0.122  0.4196 -1.2217 -1.2343
 6488SOL    HW220043   5.256   4.651   0.161  0.5719 -0.0641  0.6791
 6489SOL     OW20044   4.057   7.423   8.906 -0.2947 -0.2006 -0.0021
 6489SOL    HW120045   3.965   7.448   8.920  0.1065  1.9198 -0.6894
 6489SOL    HW220046   4.069   7.430   8.812 -0.0354 -3.0281 -0.2653
 6490SOL     OW20047   5.746   0.383   4.626  0.0916 -0.1878 -0.3935
 6490SOL    HW120048   5.816   0.399   4.690  1.0788  0.0920 -1.4916
 6490SOL    HW220049   5.674   0.346   4.677  0.8303  0.0598  0.8731
 6491SOL     OW20050   3.680   1.250   0.049  0.8560  0.2626  0.2127
 6491SOL    HW120051   3.640   1.274  -0.035  0.2799 -1.8151 -0.1860
 6491SOL    HW220052   3.675   1.154   0.050  0.0888  0.2639  3.0075
 6492SOL     OW20053   2.189   4.498   8.173  0.2601  0.4026  0.5500
 6492SOL    HW120054   2.255   4.558   8.138 -0.3372  1.1014  0.6177
 6492SOL    HW220055   2.105   4.533   8.143 -0.1757  0.2624  1.5650
 6493SOL     OW20056   5.476   4.963   3.983  0.2755  0.2675 -0.2938
 6493SOL    HW120057   5.389   4.942   3.950  0.4629 -0.3687 -0.4001
 6493SOL    HW220058   5.536   4.917   3.923  0.6449 -0.3871  0.5598
 6494SOL     OW20059   7.250   7.626   6.536  0.1844 -0.4234  0.3017
 6494SOL    HW120060   7.202   7.682   6.475  0.6500  1.4371  1.5848
 6494SOL    HW220061   7.296   7.563   6.480 -1.4724 -0.4626 -1.0997
 6495SOL     OW20062   7.589   9.023   7.764  0.4035  0.3688  0.2064
 6495SOL    HW120063   7.530   8.973   7.820  3.0800 -2.7152  0.5664
 6495SOL    HW220064   7.547   9.021   7.678 -0.2838 -1.3550  0.5349
 6496SOL     OW20065   9.847   8.676   8.344  0.1405  0.4242  0.5852
 6496SOL    HW120066   9.797   8.756   8.325 -0.1527  0.1293  0.0763
 6496SOL    HW220067   9.781   8.615   8.379 -0.2111 -0.4978 -1.5432
 6497SOL     OW20068   5.683   0.877   7.779 -0.1316  0.2856 -0.3111
 6497SOL    HW120069   5.694   0.786   7.808  1.3055  0.1192 -1.2738
 6497SOL    HW220070   5.592   0.882   7.749 -0.4574 -0.6087  0.4842
 6498SOL     OW20071   0.445   1.134   6.543  0.0221  0.6545  0.2076
 6498SOL    HW120072   0.431   1.096   6.629 -1.4706 -0.2371 -0.3837
 6498SOL    HW220073   0.493   1.068   6.494  0.8200  1.1363  0.3292
 6499SOL     OW20074   7.628   4.041   0.999 -0.3109 -0.4318  0.0358
 6499SOL    HW120075   7.647   4.023   1.091 -0.2567  1.9559  0.5547
 6499SOL    HW220076   7.535   4.022   0.989 -0.2602 -0.9507  0.5058
 6500SOL     OW20077   6.754   4.186   7.242 -0.0127 -0.2467  0.2208
 6500SOL    HW120078   6.778   4.258   7.182 -2.2273 -0.0813 -0.5738
 6500SOL    HW220079   6.694   4.226   7.304 -0.5730 -1.2105  0.3196
 6501SOL     OW20080   8.290   4.488   6.236  1.1153 -0.0297  0.5054
 6501SOL    HW120081   8.255   4.495   6.325  0.3174 -0.0864  0.2058
 6501SOL    HW220082   8.286   4.577   6.202  2.2010  0.1514  0.7945
 6502SOL     OW20083   4.550   8.354   7.223 -0.8911 -0.4019  0.1296
 6502SOL    HW120084   4.563   8.445   7.194  1.3204 -0.6072  0.3012
 6502SOL    HW220085   4.597   8.348   7.306 -1.1778 -1.6555  0.2241
 6503SOL     OW20086   8.443   5.597   0.788  0.0397  0.0936 -0.0864
 6503SOL    HW120087   8.389   5.523   0.816  0.3093  0.0958  0.4761
 6503SOL    HW220088   8.388   5.674   0.802 -0.1774  0.0087 -0.4980
 6504SOL     OW20089   6.284   4.439   8.930 -0.0686 -0.1767 -0.8249
 6504SOL    HW120090   6.353   4.473   8.987 -0.0244 -0.0185 -0.9728
 6504SOL    HW220091   6.329   4.413   8.850 -0.3324  1.0561 -1.4000
 6505SOL     OW20092   1.083   7.563   1.769 -0.1123 -0.5013 -0.0466
 6505SOL    HW120093   1.004   7.600   1.809  0.3491  1.7892 -1.1023
 6505SOL    HW220094   1.050   7.496   1.709 -1.5697  1.8123 -2.0565
 6506SOL     OW20095   1.112   3.311   3.930  0.2140 -0.4184  0.6749
 6506SOL    HW120096   1.126   3.278   3.841  0.6621  2.0617 -0.2525
 6506SOL    HW220097   1.107   3.232   3.984 -1.6341 -2.0957 -1.7151
 6507SOL     OW20098   8.836   8.789   4.968  0.1430 -0.0001 -0.1709
 6507SOL    HW120099   8.813   8.764   4.879 -0.9726  0.0520  0.0773
 6507SOL    HW220100   8.759   8.837   5.000  0.2460 -0.5961  1.0380
 6508SOL     OW20101   5.257   5.004   7.162  0.1291 -0.3499  0.5774
 6508SOL    HW120102   5.235   4.935   7.099  0.2977  0.3376 -0.2612
 6508SOL    HW220103   5.185   5.066   7.157  0.5884  0.1773  0.3657
 6509SOL     OW20104   6.228   6.322   1.142  0.2076  0.6483 -0.2664
 6509SOL    HW120105   6.207   6.385   1.210 -0.2852  1.3510 -1.0539
 6509SOL    HW220106   6.324   6.323   1.138  0.2649  0.2035  0.7672
 6510SOL     OW20107   8.913   7.954   3.790 -0.1540  0.0489  0.1321
 6510SOL    HW120108   8.910   7.895   3.715 -1.8805  2.7425 -2.1303
 6510SOL    HW220109   8.992   8.006   3.777 -0.4814  0.5542  0.1052
 6511SOL     OW20110   2.306   6.921   8.368  0.3143  0.6102 -1.1077
 6511SOL    HW120111   2.346   6.834   8.359 -0.8744  0.2422 -4.2699
 6511SOL    HW220112   2.216   6.904   8.397  0.3926  0.8768 -0.7024
 6512SOL     OW20113   4.474   2.791   2.409 -0.1896 -0.3024 -0.2264
 6512SOL    HW120114   4.483   2.841   2.328 -1.8687 -1.3952 -1.1551
 6512SOL    HW220115   4.510   2.705   2.388  2.0266  0.2164  1.1348
 6513SOL     OW20116   3.245   7.536   7.188 -0.5343 -0.1736  0.1785
 6513SOL    HW120117   3.233   7.516   7.281 -0.1355  0.3120  0.3395
 6513SOL    HW220118   3.242   7.451   7.144 -1.3400 -0.3514  0.5656
 6514SOL     OW20119   4.143   3.683   1.946  0.3341 -0.1749  0.0302
 6514SOL    HW120120   4.235   3.702   1.965  0.3050  0.3952 -0.3693
 6514SOL    HW220121   4.105   3.660   2.031  0.9076 -0.7130  0.1556
 6515SOL     OW20122   9.930   6.111   9.752 -0.1028 -0.0143  0.5097
 6515SOL    HW120123   9.848   6.160   9.750 -0.3940 -0.1914  3.4639
 6515SOL    HW220124   9.903   6.019   9.755  0.1689 -0.0787  1.3298
 6516SOL     OW20125   6.325   7.314   4.039 -0.2804  0.2144  0.7175
 6516SOL    HW120126   6.333   7.220   4.020  0.9407 -0.0230  2.1691
 6516SOL    HW220127   6.395   7.355   3.988 -0.1790  0.2068  0.8505
 6517SOL     OW20128   3.185   6.799   4.041  0.0509  0.5455 -0.0844
 6517SOL    HW120129   3.188   6.891   4.068 -0.3030  0.8629 -1.1009
 6517SOL    HW220130   3.266   6.762   4.076  0.6082  1.4460 -0.3820
 6518SOL     OW20131   7.229   2.078   8.958 -0.5514 -0.3826  0.5626
 6518SOL    HW120132   7.215   2.011   8.890  1.7384 -1.4498  1.0399
 6518SOL    HW220133   7.236   2.160   8.910 -1.8118 -0.6763 -0.1865
 6519SOL     OW20134   9.757   9.743   6.500  0.2014 -0.2455  0.2327
 6519SOL    HW120135   9.838   9.693   6.501 -0.7078 -1.7943 -0.1092
 6519SOL    HW220136   9.766   9.806   6.571  1.9203 -0.0151 -0.1660
 6520SOL     OW20137   6.104   6.136   9.495  0.0005 -0.0971  0.2863
 6520SOL    HW120138   6.186   6.098   9.527 -1.4886 -0.9750  3.5359
 6520SOL    HW220139   6.118   6.231   9.497  0.6762 -0.2090  1.6960
 6521SOL     OW20140   6.026   7.737   1.819  0.0971  0.2748  0.1296
 6521SOL    HW120141   6.025   7.649   1.782  0.3653  1.0048 -1.7055
 6521SOL    HW220142   5.982   7.727   1.904  0.8793 -1.7581  0.3570
 6522SOL     OW20143   9.440   2.776   8.366 -0.4455 -0.1805 -0.0584
 6522SOL    HW120144   9.496   2.754   8.440 -1.1441 -0.6372  0.3413
 6522SOL    HW220145   9.501   2.788   8.293  0.2633  0.4393  0.6163
 6523SOL     OW20146   6.188   0.641   5.714  0.2752 -0.6962 -0.1853
 6523SOL    HW120147   6.118   0.671   5.655 -0.0772 -1.7423 -0.3215
 6523SOL    HW220148   6.267   0.642   5.660  0.6688  1.6633  0.2867
 6524SOL     OW20149   9.603   1.672   9.451 -0.0617 -0.5991  0.5020
 6524SOL    HW120150   9.530   1.732   9.471  1.6433  1.1396  1.8809
 6524SOL    HW220151   9.627   1.693   9.361 -0.5870 -0.4616  0.3873
 6525SOL     OW20152   7.279   5.166   2.567  0.0453  0.2911 -0.5904
 6525SOL    HW120153   7.184   5.150   2.566 -0.0736  0.9796 -0.9889
 6525SOL    HW220154   7.303   5.163   2.659  0.1113 -2.5169 -0.6190
 6526SOL     OW20155   2.666   3.965   0.272 -0.0517 -0.0622 -0.6816
 6526SOL    HW120156   2.701   3.888   0.228  1.0116 -0.1344  0.2525
 6526SOL    HW220157   2.682   4.037   0.211 -0.3343 -0.4436 -1.2164
 6527SOL     OW20158   1.727   9.591   4.275 -0.1084  0.1270 -0.5445
 6527SOL    HW120159   1.703   9.664   4.332 -3.2617 -0.9658 -0.3150
 6527SOL    HW220160   1.684   9.610   4.192 -0.8461 -1.3363 -0.5353
 6528SOL     OW20161   6.764   8.963   7.445 -0.5706  0.0799  0.0265
 6528SOL    HW120162   6.796   8.994   7.360 -2.2932 -0.0830 -0.7276
 6528SOL    HW220163   6.779   8.868   7.444  0.2727  0.2050  0.3122
 6529SOL     OW20164   9.835   6.589   8.060 -0.4829 -0.2140 -0.2163
 6529SOL    HW120165   9.851   6.496   8.075 -1.0979 -0.2941 -0.0547
 6529SOL    HW220166   9.922   6.628   8.061 -0.2946 -0.6310  0.7634
 6530SOL     OW20167   2.248   4.250   3.864 -0.1570 -0.4123  0.5082
 6530SOL    HW120168   2.237   4.195   3.941  1.3210 -0.7283  0.5307
 6530SOL    HW220169   2.337   4.284   3.871 -0.7367  1.3134  0.0453
 6531SOL     OW20170   6.580   2.747   4.478  0.1431  0.1934  0.7538
 6531SOL    HW120171   6.526   2.744   4.557 -2.3508  0.5546 -0.8108
 6531SOL    HW220172   6.640   2.820   4.492 -0.2321  0.2308  2.3118
 6532SOL     OW20173   0.405   3.600   0.790  0.6803 -0.3902 -0.0267
 6532SOL    HW120174   0.445   3.679   0.754 -1.5685  0.8311  0.0314
 6532SOL    HW220175   0.346   3.569   0.722  1.1563 -1.7826  0.1499
 6533SOL     OW20176   0.566   3.684   5.511 -0.0712  0.6004  0.1598
 6533SOL    HW120177   0.507   3.635   5.568  1.5226 -0.1123  1.2642
 6533SOL    HW220178   0.563   3.638   5.428 -0.8914  0.4483  0.2618
 6534SOL     OW20179   7.586   4.532   9.948  0.5290 -0.3129 -0.4411
 6534SOL    HW120180   7.666   4.567   9.988  0.9461  0.3076 -1.7543
 6534SOL    HW220181   7.589   4.438   9.966  0.4881 -0.0098  1.3043
 6535SOL     OW20182   0.335   2.714   6.957  0.0459 -0.1687  0.6413
 6535SOL    HW120183   0.250   2.674   6.974  0.7534 -1.0011  2.5964
 6535SOL    HW220184   0.331   2.799   7.000 -0.1021  0.2021 -0.0892
 6536SOL     OW20185   1.444   7.694   8.054  0.0647  0.2401  0.0930
 6536SOL    HW120186   1.389   7.727   8.125 -0.8894 -0.4783 -0.2881
 6536SOL    HW220187   1.385   7.687   7.979  0.5015 -1.1661 -0.1561
 6537SOL     OW20188   2.590   0.158   7.266 -0.2274 -0.0181  0.3424
 6537SOL    HW120189   2.523   0.222   7.248 -0.7664 -0.2306  1.5075
 6537SOL    HW220190   2.669   0.209   7.284  0.1337  0.2163 -1.6604
 6538SOL     OW20191   4.484   6.391   1.586 -0.3515  0.1329  0.0843
 6538SOL    HW120192   4.471   6.307   1.542 -1.8012  0.4720 -0.1914
 6538SOL    HW220193   4.488   6.455   1.514 -1.3555  0.5241  0.3567
 6539SOL     OW20194   5.370   6.124   8.000 -0.0235  0.1077 -0.5303
 6539SOL    HW120195   5.425   6.081   7.934  1.9244  0.8439  0.5272
 6539SOL    HW220196   5.348   6.209   7.961  1.6124  0.7861 -0.0834
 6540SOL     OW20197   7.277   2.316   8.825  0.5498 -0.2020  0.1263
 6540SOL    HW120198   7.297   2.389   8.883  1.9790  0.1020 -0.6895
 6540SOL    HW220199   7.239   2.358   8.747 -0.8484 -0.5577  0.5932
 6541SOL     OW20200   4.397   9.910   4.415  0.4974  0.6325  0.6871
 6541SOL    HW120201   4.327   9.886   4.476  0.2249  0.3019  0.2429
 6541SOL    HW220202   4.363   9.987   4.369  1.4654  2.0959  2.2809
 6542SOL     OW20203   4.774   8.554   7.731  0.5018 -0.2321 -0.1137
 6542SOL    HW120204   4.697   8.607   7.753  1.4763  0.0191  3.2684
 6542SOL    HW220205   4.831   8.613   7.682 -0.4709  0.2803 -0.6530
 6543SOL     OW20206   1.296   0.056   1.997  0.1319  0.5170 -0.3656
 6543SOL    HW120207   1.340   0.127   1.951  0.6443  0.2619 -0.2703
 6543SOL    HW220208   1.362   0.022   2.058 -0.1598  0.0612 -0.3033
 6544SOL     OW20209   5.477   2.924   8.608  0.5940 -0.4314  0.1797
 6544SOL    HW120210   5.458   2.830   8.604 -0.2509 -0.2407 -0.5040
 6544SOL    HW220211   5.555   2.930   8.663  0.3568 -1.4911  0.6620
 6545SOL     OW20212   0.354   1.418   3.479  0.5296 -0.2811 -0.2124
 6545SOL    HW120213   0.281   1.451   3.532  0.6766 -2.1590  1.3250
 6545SOL    HW220214   0.410   1.494   3.463 -0.6923  0.7800  0.4118
 6546SOL     OW20215   0.882   6.828   9.068 -0.0953  0.3196 -0.2604
 6546SOL    HW120216   0.962   6.832   9.120  0.1186 -0.5798 -0.4963
 6546SOL    HW220217   0.874   6.915   9.029  0.8558  0.3662 -0.3626
 6547SOL     OW20218   5.329   6.936   1.123 -0.5471 -0.0683  0.6548
 6547SOL    HW120219   5.330   7.027   1.153  2.3208  0.3540 -0.3831
 6547SOL    HW220220   5.305   6.941   1.031  0.5443 -0.2098  0.3441
 6548SOL     OW20221  -0.014   9.240   1.230  0.0874  1.1030 -0.0031
 6548SOL    HW120222  -0.061   9.229   1.148  0.8937 -3.8633 -0.0589
 6548SOL    HW220223   0.078   9.248   1.205  0.4260 -1.2298  0.3357
 6549SOL     OW20224   7.259   8.617   1.440  0.3483 -0.1517  0.2291
 6549SOL    HW120225   7.293   8.538   1.482  1.9314 -1.1065 -2.5785
 6549SOL    HW220226   7.165   8.602   1.432  0.3111 -0.8022  1.4991
 6550SOL     OW20227   1.060   9.488   9.364  0.1790  0.9764  0.5687
 6550SOL    HW120228   1.011   9.483   9.446 -1.8111 -1.8151 -0.6553
 6550SOL    HW220229   1.137   9.433   9.379  0.4903  1.5038  0.9435
 6551SOL     OW20230   3.450   2.591   2.967  0.2651 -0.4765 -0.1244
 6551SOL    HW120231   3.511   2.550   2.906  1.9374  0.8732  0.5303
 6551SOL    HW220232   3.484   2.569   3.053  0.4132  1.0503  0.2472
 6552SOL     OW20233   5.184   6.635   3.565 -0.2209  0.1595 -0.1816
 6552SOL    HW120234   5.260   6.583   3.592  0.2582  0.3966 -1.0335
 6552SOL    HW220235   5.111   6.596   3.612  0.2594 -0.7556 -0.1656
 6553SOL     OW20236   7.291   0.061   9.480 -0.1158 -0.6087  0.3459
 6553SOL    HW120237   7.356   0.076   9.549  1.3071 -0.3288 -0.9913
 6553SOL    HW220238   7.328   0.104   9.402 -1.1061 -1.8534 -0.8749
 6554SOL     OW20239   7.077   0.071   5.526 -0.2031 -0.2857 -0.2811
 6554SOL    HW120240   7.066   0.154   5.480 -0.9223 -0.7013 -0.8981
 6554SOL    HW220241   6.991   0.029   5.520  0.3568 -1.4260 -0.6903
 6555SOL     OW20242   0.600   1.158   1.982 -0.0101 -0.2248  0.0317
 6555SOL    HW120243   0.525   1.120   2.027  1.2715 -2.8595  0.1560
 6555SOL    HW220244   0.675   1.134   2.036  0.9345  3.6573  0.7581
 6556SOL     OW20245   1.101   3.102   8.037 -0.0633  0.3942 -1.3134
 6556SOL    HW120246   1.162   3.045   8.084  0.7086 -0.2334 -2.9643
 6556SOL    HW220247   1.091   3.179   8.092  1.0568 -0.1549 -0.3115
 6557SOL     OW20248   4.454   3.139   9.884  0.0703 -0.2027 -0.6737
 6557SOL    HW120249   4.462   3.200   9.810 -0.9378 -0.4541 -1.0096
 6557SOL    HW220250   4.453   3.052   9.844 -0.8466 -0.3252 -0.4036
 6558SOL     OW20251   6.540   9.383   1.075 -0.6929 -0.7172  0.2974
 6558SOL    HW120252   6.553   9.318   1.006 -1.3617 -0.6429  0.0865
 6558SOL    HW220253   6.610   9.447   1.062  0.9387 -2.1732  1.4740
 6559SOL     OW20254   5.297   7.257   9.558  0.2206 -0.0411 -0.3715
 6559SOL    HW120255   5.390   7.252   9.578  0.3244  0.1916 -0.7940
 6559SOL    HW220256   5.281   7.183   9.498  0.1093 -0.1451 -0.2170
 6560SOL     OW20257   6.618   4.076   6.196 -0.0806  0.4739 -0.0592
 6560SOL    HW120258   6.709   4.048   6.193 -0.6376 -1.4861 -0.2882
 6560SOL    HW220259   6.606   4.128   6.116  0.7437  0.4978 -0.1757
 6561SOL     OW20260   7.731   4.446   4.999  0.4451 -0.3376 -0.1156
 6561SOL    HW120261   7.763   4.528   4.961 -0.2644  0.1655  0.3473
 6561SOL    HW220262   7.755   4.379   4.934  2.5825 -0.0445  0.2901
 6562SOL     OW20263   0.650   4.523   2.178  0.3864 -0.4357  0.2151
 6562SOL    HW120264   0.724   4.542   2.121 -0.1345 -0.5959 -0.5301
 6562SOL    HW220265   0.609   4.608   2.193 -1.4888 -0.7256 -2.4891
 6563SOL     OW20266   5.967   7.403   7.618  0.3642 -0.7767 -0.2745
 6563SOL    HW120267   6.022   7.470   7.577  0.1244 -1.0642 -1.0876
 6563SOL    HW220268   5.951   7.339   7.548 -1.2093 -0.5682 -0.1250
 6564SOL     OW20269   7.747   6.038   7.131 -0.7849 -0.5311 -0.2011
 6564SOL    HW120270   7.693   6.048   7.052 -1.2367 -1.5572 -0.0474
 6564SOL    HW220271   7.685   6.009   7.198 -0.2550 -0.4907  0.3113
 6565SOL     OW20272   3.405   9.480   9.528  0.7631  0.0131  0.1130
 6565SOL    HW120273   3.388   9.468   9.622 -0.0221 -1.9890 -0.2415
 6565SOL    HW220274   3.401   9.392   9.491  0.3987  0.8277 -1.9307
 6566SOL     OW20275   4.117   7.485   3.002 -0.6411  0.5233 -0.2124
 6566SOL    HW120276   4.047   7.538   2.963 -3.4026 -1.7340  1.3082
 6566SOL    HW220277   4.098   7.396   2.973  0.9498 -0.3288  1.2155
 6567SOL     OW20278   3.208   2.977   0.117  0.0579  0.0701 -0.8665
 6567SOL    HW120279   3.139   3.020   0.066 -0.9264 -0.2156  0.1621
 6567SOL    HW220280   3.235   2.902   0.063 -1.5257 -0.6920 -0.6675
 6568SOL     OW20281   4.465   2.443   1.828 -0.0848  0.2427 -0.1439
 6568SOL    HW120282   4.423   2.528   1.811 -0.2700  0.3593  0.8578
 6568SOL    HW220283   4.446   2.391   1.750 -1.8820  0.3707  0.1652
 6569SOL     OW20284   1.751   5.159   0.212  0.3353 -0.0071  0.4019
 6569SOL    HW120285   1.748   5.189   0.303 -0.1029  0.3366  0.2799
 6569SOL    HW220286   1.665   5.119   0.197  0.1625  0.5011 -0.0414
 6570SOL     OW20287   7.371   8.845   0.088 -0.4798  0.5763  0.2884
 6570SOL    HW120288   7.442   8.862   0.026  0.3924  0.1969  1.1554
 6570SOL    HW220289   7.415   8.816   0.168 -1.6193  0.2167  0.8134
 6571SOL     OW20290   9.666   6.429   2.026  0.3947  0.0995 -0.0871
 6571SOL    HW120291   9.719   6.349   2.028 -1.4094 -1.1785 -0.2077
 6571SOL    HW220292   9.650   6.449   2.118  0.4374  0.0389 -0.0665
 6572SOL     OW20293   2.987   4.169   0.038 -0.4962  0.2292  0.5791
 6572SOL    HW120294   3.071   4.215   0.040 -0.5237  0.2627  1.0456
 6572SOL    HW220295   2.978   4.131   0.125 -0.5750 -0.4902  0.2653
 6573SOL     OW20296   4.940   3.534   9.065 -0.0462 -0.3716 -0.3339
 6573SOL    HW120297   5.022   3.507   9.106 -0.0066 -0.3015 -0.3658
 6573SOL    HW220298   4.958   3.621   9.031 -1.4239  1.6395  3.5264
 6574SOL     OW20299   5.630   5.373   6.848  0.0682  0.1404  0.0431
 6574SOL    HW120300   5.589   5.394   6.932  0.1134  1.8500 -0.3329
 6574SOL    HW220301   5.582   5.425   6.784  1.0839  0.0981 -0.7790
 6575SOL     OW20302   4.852   2.804   6.325  0.2719  0.0425  0.2103
 6575SOL    HW120303   4.822   2.882   6.372 -1.1480 -0.8713  0.8843
 6575SOL    HW220304   4.942   2.791   6.355 -0.1697  0.2364  1.7168
 6576SOL     OW20305   2.656   7.211   5.888 -0.2087  0.1176 -0.3029
 6576SOL    HW120306   2.574   7.216   5.937  0.8328 -0.6622  1.5979
 6576SOL    HW220307   2.722   7.246   5.948  0.9798 -0.0089 -1.5016
 6577SOL     OW20308   1.086   2.957   6.829 -0.1300  0.2968 -0.2091
 6577SOL    HW120309   1.174   2.920   6.816 -0.6927 -1.8411  1.3252
 6577SOL    HW220310   1.045   2.952   6.743  0.8388  0.1513 -0.6805
 6578SOL     OW20311   4.170   4.603   1.452  0.3284  0.5636  0.4095
 6578SOL    HW120312   4.195   4.669   1.388  2.1475 -0.9811 -0.5892
 6578SOL    HW220313   4.240   4.605   1.517 -0.3998  0.6609  1.2065
 6579SOL     OW20314   0.876   9.305   0.520 -0.2960 -0.3642  0.1918
 6579SOL    HW120315   0.829   9.368   0.466  0.2080  0.8182  1.0814
 6579SOL    HW220316   0.809   9.243   0.547 -0.5920 -0.9126 -1.6319
 6580SOL     OW20317   9.474   2.339   1.561  0.1881  0.3992  0.2643
 6580SOL    HW120318   9.489   2.253   1.521  1.6606  0.4319  0.6909
 6580SOL    HW220319   9.383   2.335   1.592 -0.1380 -0.5720 -0.7476
 6581SOL     OW20320   7.948   3.948   6.579  0.2233 -0.1502 -0.0178
 6581SOL    HW120321   7.867   3.990   6.548  0.9978  1.7219  0.3884
 6581SOL    HW220322   7.975   3.892   6.506 -1.6806 -1.2435  0.0280
 6582SOL     OW20323   8.603   8.829   1.645  0.2629 -0.0547  0.0560
 6582SOL    HW120324   8.584   8.853   1.554  2.6273  1.4068 -0.1537
 6582SOL    HW220325   8.694   8.857   1.658 -0.1600  0.2389  3.0365
 6583SOL     OW20326   0.179   8.253   1.550  0.5447 -0.4593  0.2421
 6583SOL    HW120327   0.110   8.317   1.533 -1.0353 -2.0885  0.2650
 6583SOL    HW220328   0.232   8.294   1.619  0.9499  1.7640 -1.2713
 6584SOL     OW20329   6.576   7.676   7.923  0.3869  0.0748  0.2903
 6584SOL    HW120330   6.534   7.748   7.969 -0.9867  0.3918 -1.3288
 6584SOL    HW220331   6.670   7.693   7.930  0.2131  0.3153  2.5215
 6585SOL     OW20332   8.085   8.636   3.125 -0.0949  0.4690 -0.1461
 6585SOL    HW120333   8.045   8.722   3.112 -0.4588  0.2648 -0.3856
 6585SOL    HW220334   8.143   8.648   3.201  1.7671  1.5632 -1.6705
 6586SOL     OW20335   3.678   8.914   9.164 -0.2551 -0.2341 -0.0864
 6586SOL    HW120336   3.601   8.891   9.112 -0.8996  1.4506  0.0598
 6586SOL    HW220337   3.673   8.858   9.242 -2.7779  1.5203  1.1550
 6587SOL     OW20338   2.631   3.149   6.718 -0.4408 -0.0033  0.0241
 6587SOL    HW120339   2.707   3.201   6.691  0.6928 -2.6344 -2.2780
 6587SOL    HW220340   2.667   3.065   6.745 -2.3932 -0.5037  1.3369
 6588SOL     OW20341   5.790   7.401   2.236  0.0616  0.0234  0.4247
 6588SOL    HW120342   5.866   7.353   2.268 -1.5444 -2.5931  0.5720
 6588SOL    HW220343   5.773   7.363   2.150 -1.7516 -0.3085  0.8929
 6589SOL     OW20344   7.605   6.699   6.622  0.0503  0.3806  0.0151
 6589SOL    HW120345   7.535   6.662   6.677 -0.8156 -0.3328 -1.4914
 6589SOL    HW220346   7.559   6.751   6.557  0.7564 -1.1440 -1.8147
 6590SOL     OW20347   9.509   6.289   5.570  0.5009 -0.1526  0.0594
 6590SOL    HW120348   9.521   6.341   5.650 -1.4363 -1.9979  1.6501
 6590SOL    HW220349   9.525   6.199   5.597 -0.0072 -0.8089 -1.7079
 6591SOL     OW20350   2.401   7.460   9.081  0.0292  0.1447  0.7344
 6591SOL    HW120351   2.310   7.428   9.083  0.4341 -1.0635  0.7105
 6591SOL    HW220352   2.402   7.524   9.010 -0.6303 -0.3946  0.2146
 6592SOL     OW20353   2.386   0.946   7.301  0.1731  0.3301 -0.1013
 6592SOL    HW120354   2.408   0.898   7.221 -0.1247 -1.0728  0.6222
 6592SOL    HW220355   2.326   0.887   7.348 -0.9908  1.8332  0.3818
 6593SOL     OW20356   4.435   9.774   3.882 -0.4679  0.2007  0.4668
 6593SOL    HW120357   4.480   9.746   3.962 -0.0316 -0.3195  0.0514
 6593SOL    HW220358   4.344   9.747   3.895 -0.3712 -0.0043  0.7326
 6594SOL     OW20359   6.967   0.258   3.126 -0.0156 -0.2800  0.2494
 6594SOL    HW120360   6.874   0.238   3.136 -0.0573 -0.6575 -0.7897
 6594SOL    HW220361   7.010   0.204   3.193 -0.4759 -0.6683  0.2409
 6595SOL     OW20362   0.419   0.360   7.091  0.0840  0.0132 -0.3722
 6595SOL    HW120363   0.444   0.269   7.100 -0.4255 -0.0351  0.7795
 6595SOL    HW220364   0.482   0.408   7.145  1.3923  0.5588 -2.2750
 6596SOL     OW20365   1.826   2.153   7.331  0.3912  0.1701 -0.0901
 6596SOL    HW120366   1.800   2.145   7.422  1.0716 -0.3414  0.0698
 6596SOL    HW220367   1.922   2.160   7.334  0.4668 -0.4012 -0.7904
 6597SOL     OW20368   0.107   4.295   8.823 -0.4200  0.1295  0.3912
 6597SOL    HW120369   0.024   4.249   8.835 -0.2568 -0.8151 -1.7137
 6597SOL    HW220370   0.086   4.387   8.841 -1.8191 -0.1588  0.3386
 6598SOL     OW20371   2.455   8.801   4.922 -0.2650 -0.0815 -0.3404
 6598SOL    HW120372   2.508   8.836   4.850 -0.4053 -0.1208 -0.4623
 6598SOL    HW220373   2.375   8.853   4.920  0.5226  1.2502  1.0189
 6599SOL     OW20374   1.932   4.695   3.142 -0.4178  0.1957 -0.1496
 6599SOL    HW120375   2.020   4.734   3.139 -0.5888  0.6609  0.8316
 6599SOL    HW220376   1.890   4.726   3.062  0.2602  0.0776 -0.5645
 6600SOL     OW20377   3.684   2.572   1.351 -0.1141  0.0134  0.2410
 6600SOL    HW120378   3.676   2.493   1.298  1.8647 -0.5943  0.7744
 6600SOL    HW220379   3.687   2.644   1.287  0.9555 -0.6027 -0.4372
 6601SOL     OW20380   0.044   0.480   5.373  0.3190 -0.1009 -0.5384
 6601SOL    HW120381   0.065   0.520   5.288 -0.4968  0.5093 -0.4636
 6601SOL    HW220382   0.124   0.488   5.424  0.7206 -0.1869 -1.1467
 6602SOL     OW20383   0.627   5.732   0.350  0.0801  0.0632 -0.0354
 6602SOL    HW120384   0.693   5.668   0.379  0.5971  1.1274  1.2319
 6602SOL    HW220385   0.674   5.815   0.344 -1.2028  0.9538  1.3546
 6603SOL     OW20386   0.482   0.718   3.311  0.1137  0.4676  0.0664
 6603SOL    HW120387   0.416   0.652   3.289 -1.3827  1.2156  2.0088
 6603SOL    HW220388   0.438   0.802   3.296  0.3749  0.9807  1.8739
 6604SOL     OW20389   5.020   7.319   1.697  0.1967 -0.4596 -0.2484
 6604SOL    HW120390   5.065   7.400   1.720 -1.8348  0.3950  1.0251
 6604SOL    HW220391   5.066   7.251   1.747  1.4901  0.0002 -0.7868
 6605SOL     OW20392   8.226   3.318   0.695  0.0360 -0.0120 -0.0721
 6605SOL    HW120393   8.296   3.253   0.685 -0.3919 -0.5637  0.4597
 6605SOL    HW220394   8.272   3.399   0.720  0.5511 -0.1618 -0.5049
 6606SOL     OW20395   9.183   5.329   6.344  0.1286 -0.0691  0.6007
 6606SOL    HW120396   9.115   5.324   6.278  1.6296 -1.4021 -0.9569
 6606SOL    HW220397   9.137   5.317   6.428 -1.3858 -2.6902 -0.4901
 6607SOL     OW20398   4.293   1.793   1.887  0.6267 -0.5163 -0.0905
 6607SOL    HW120399   4.242   1.783   1.807  0.7648  1.2561 -0.4421
 6607SOL    HW220400   4.316   1.885   1.889  1.3713 -0.7051  1.5591
 6608SOL     OW20401   3.511   8.974   2.701 -0.2872  0.5154 -0.4282
 6608SOL    HW120402   3.567   9.052   2.706  0.6302 -0.1477 -0.0597
 6608SOL    HW220403   3.430   9.005   2.662  0.1644  1.6038 -0.5325
 6609SOL     OW20404   2.514   8.144   5.244 -0.1273 -0.1215  0.2437
 6609SOL    HW120405   2.538   8.203   5.315 -0.5128 -0.2012  0.4419
 6609SOL    HW220406   2.532   8.056   5.279  0.6344 -0.1266 -0.1196
 6610SOL     OW20407   0.648   0.384   8.333 -0.3625 -0.1147 -0.1815
 6610SOL    HW120408   0.688   0.297   8.328 -0.0832  0.0625 -1.5036
 6610SOL    HW220409   0.720   0.444   8.314 -0.5612  0.4177  0.6855
 6611SOL     OW20410   7.321   5.743   0.701  0.3082 -0.0725 -0.0712
 6611SOL    HW120411   7.349   5.770   0.788 -0.6816  0.9473 -0.0529
 6611SOL    HW220412   7.243   5.689   0.717 -0.5013  0.9833 -0.3645
 6612SOL     OW20413   3.089   9.361   5.077  0.2141  0.1968 -0.1445
 6612SOL    HW120414   3.124   9.323   5.157 -0.8610 -1.6641 -0.5102
 6612SOL    HW220415   3.139   9.321   5.006  1.8347  2.5570 -0.4553
 6613SOL     OW20416   5.237   8.724   4.303 -0.0748  0.1306 -0.4596
 6613SOL    HW120417   5.309   8.776   4.338  1.5799 -3.1411  1.5052
 6613SOL    HW220418   5.278   8.641   4.277 -2.7631 -0.8989 -1.7712
 6614SOL     OW20419   7.999   0.555   3.924 -0.2759 -0.3211 -0.3111
 6614SOL    HW120420   7.962   0.638   3.892 -0.9667 -0.6057 -0.2773
 6614SOL    HW220421   8.039   0.578   4.008  2.1242  0.5630 -1.6155
 6615SOL     OW20422   3.069   1.624   9.656  0.8406 -0.4580  0.0928
 6615SOL    HW120423   3.100   1.598   9.569  0.3637  0.5207 -0.3850
 6615SOL    HW220424   2.976   1.601   9.657  1.0134 -1.1829  0.6448
 6616SOL     OW20425   9.072   6.552   5.967  0.3757 -0.0515 -0.2395
 6616SOL    HW120426   9.053   6.512   6.052 -0.4495  0.8297  0.0041
 6616SOL    HW220427   9.165   6.574   5.971  0.0263  1.2926  1.0026
 6617SOL     OW20428   6.675   9.756   6.221 -0.9669 -0.6674 -0.2010
 6617SOL    HW120429   6.665   9.851   6.221  0.1042 -0.5301  0.6061
 6617SOL    HW220430   6.667   9.731   6.129  0.5576  0.4460 -0.6878
 6618SOL     OW20431   2.095   3.207   6.174  0.3893  0.4377 -0.2364
 6618SOL    HW120432   2.143   3.288   6.194  1.2198  0.0172 -0.4662
 6618SOL    HW220433   2.115   3.149   6.247 -0.2587  0.4552 -0.0409
 6619SOL     OW20434   1.408   6.186   8.185 -0.0456  0.7721  0.6803
 6619SOL    HW120435   1.329   6.213   8.231 -1.2104 -0.4488 -0.5259
 6619SOL    HW220436   1.397   6.092   8.170  2.2950  0.2457  1.7149
 6620SOL     OW20437   5.708   1.141   9.992 -0.3146  0.0543  0.2287
 6620SOL    HW120438   5.794   1.109   9.966  0.4253  2.3937 -0.4424
 6620SOL    HW220439   5.653   1.126   9.915 -0.2905 -0.6756  0.3509
 6621SOL     OW20440   1.515   4.591   3.850  0.1041  0.5246  0.0634
 6621SOL    HW120441   1.473   4.505   3.845  0.9846  0.1322 -1.7423
 6621SOL    HW220442   1.515   4.613   3.943 -1.2543 -0.8567  0.4336
 6622SOL     OW20443   9.631   9.090   2.564  0.0696  0.2020 -0.2456
 6622SOL    HW120444   9.678   9.162   2.607  0.3200 -1.3098  2.2388
 6622SOL    HW220445   9.701   9.029   2.537 -0.1849  0.4581 -1.5042
 6623SOL     OW20446   7.758   4.337   3.478 -0.4612 -0.0092  0.3174
 6623SOL    HW120447   7.829   4.290   3.522  1.3098  2.5285  0.4018
 6623SOL    HW220448   7.739   4.284   3.401  1.4494 -0.8615  0.3758
 6624SOL     OW20449   6.297   3.803   7.473  0.2459 -0.0843  0.2897
 6624SOL    HW120450   6.302   3.865   7.545 -1.5640  2.1755 -1.3929
 6624SOL    HW220451   6.230   3.740   7.500 -1.7488  1.7832 -0.0522
 6625SOL     OW20452   9.734   6.148   0.047 -0.6971 -0.3213 -0.2499
 6625SOL    HW120453   9.711   6.193  -0.034  1.7833  1.1366 -0.2588
 6625SOL    HW220454   9.660   6.162   0.105 -1.3505  1.0100 -1.3586
 6626SOL     OW20455   8.607   1.963   8.003  0.8254  0.4017  0.3738
 6626SOL    HW120456   8.511   1.960   8.006  0.7275  1.5278 -0.7321
 6626SOL    HW220457   8.628   2.056   7.998  1.9650  0.1441  0.0922
 6627SOL     OW20458   2.440   7.084   6.760  0.0251  0.0198 -0.1067
 6627SOL    HW120459   2.372   7.141   6.725  0.1530  1.5415  1.9510
 6627SOL    HW220460   2.522   7.130   6.740  0.0647  1.5494  2.9303
 6628SOL     OW20461   2.423   0.690   5.628 -0.2168  0.2809  0.1361
 6628SOL    HW120462   2.357   0.735   5.681  0.2718 -0.6858  1.6206
 6628SOL    HW220463   2.506   0.730   5.655 -0.0696  0.7161 -0.9105
 6629SOL     OW20464   6.043   0.830   4.028  0.1235  0.6302  0.0526
 6629SOL    HW120465   6.089   0.874   3.957  0.4254 -0.1481 -0.2445
 6629SOL    HW220466   6.027   0.741   3.995  1.8765 -0.3326  1.6048
 6630SOL     OW20467   4.600   8.571   9.870  0.7051 -0.1179  0.0349
 6630SOL    HW120468   4.516   8.591   9.827  0.7236  0.9755  0.4927
 6630SOL    HW220469   4.576   8.550   9.960  0.7762 -1.3820 -0.2242
 6631SOL     OW20470   4.979   2.247   9.608  0.3154  0.2132  0.1595
 6631SOL    HW120471   5.018   2.327   9.644  2.5114 -1.2707  1.3560
 6631SOL    HW220472   5.043   2.217   9.543 -0.6614 -0.3912 -0.5554
 6632SOL     OW20473   2.860   0.518   9.838  0.0685  0.0066 -0.0179
 6632SOL    HW120474   2.859   0.611   9.815  0.9499  0.2574  0.9066
 6632SOL    HW220475   2.850   0.473   9.754 -0.5434  0.9285 -0.4583
 6633SOL     OW20476   0.163   3.502   9.702  0.0606 -0.1492  0.3570
 6633SOL    HW120477   0.162   3.413   9.668  1.2092 -0.4894  1.1491
 6633SOL    HW220478   0.106   3.551   9.643 -0.5545 -1.3869 -0.1205
 6634SOL     OW20479   4.257   9.733   9.855  0.4415  0.5850 -0.1098
 6634SOL    HW120480   4.221   9.817   9.882  0.5735  0.2547  1.1635
 6634SOL    HW220481   4.333   9.720   9.912 -0.5444 -1.1437  0.9134
 6635SOL     OW20482   5.590   8.251   6.202 -0.3664 -0.2873 -0.1062
 6635SOL    HW120483   5.578   8.228   6.294  0.5683 -0.9076 -0.1275
 6635SOL    HW220484   5.515   8.211   6.158 -0.3571 -0.7330  0.2718
 6636SOL     OW20485   0.369   7.680   4.408 -0.2932  0.3063 -0.0090
 6636SOL    HW120486   0.352   7.587   4.425 -1.8475  0.4494 -0.6105
 6636SOL    HW220487   0.298   7.726   4.453 -0.9376  1.0469 -1.7117
 6637SOL     OW20488   3.283   9.298   6.955 -0.2188 -0.3469  0.3212
 6637SOL    HW120489   3.200   9.318   6.997 -1.0244 -0.3752 -1.1852
 6637SOL    HW220490   3.299   9.371   6.895 -0.3682 -1.4309 -1.1074
 6638SOL     OW20491   0.684   3.721   6.550 -0.2601  0.3722  0.1038
 6638SOL    HW120492   0.653   3.811   6.553 -1.5137 -0.0376 -0.2881
 6638SOL    HW220493   0.686   3.699   6.457 -2.7596 -0.9234  0.2971
 6639SOL     OW20494   7.439   7.054   7.920  0.0643  0.6062 -0.3641
 6639SOL    HW120495   7.423   6.987   7.987 -0.8179  0.1298 -1.0231
 6639SOL    HW220496   7.523   7.029   7.881  2.3659  2.7448  2.6883
 6640SOL     OW20497   0.342   1.960   3.406  0.2509 -0.2112 -0.0175
 6640SOL    HW120498   0.308   1.984   3.491  0.2084  1.2756 -0.4295
 6640SOL    HW220499   0.267   1.925   3.358  0.1661 -0.5635  0.3740
 6641SOL     OW20500   6.738   9.502   6.706 -0.1516  0.0056 -0.1266
 6641SOL    HW120501   6.759   9.595   6.701 -0.8235  0.1608 -0.1846
 6641SOL    HW220502   6.671   9.496   6.774 -0.9570 -0.2691 -0.9246
 6642SOL     OW20503   1.064   0.703   0.694 -0.3006  0.5448 -0.1368
 6642SOL    HW120504   1.105   0.766   0.635 -0.4836  1.0121  0.2289
 6642SOL    HW220505   1.107   0.717   0.779  0.0174 -0.1764 -0.1680
 6643SOL     OW20506   2.526   0.502   6.998  0.1803 -0.4926  0.2728
 6643SOL    HW120507   2.475   0.440   6.946  0.3594 -1.3171  1.0495
 6643SOL    HW220508   2.614   0.464   7.001  0.5876  0.3906 -0.1973
 6644SOL     OW20509   3.202   8.934   3.140  0.0445 -0.5084 -0.2573
 6644SOL    HW120510   3.142   8.875   3.186  0.0637  0.4780  1.0776
 6644SOL    HW220511   3.149   8.973   3.070 -0.5317 -0.5871  0.1285
 6645SOL     OW20512   4.798   8.881   2.353  0.0435  0.3092 -0.1328
 6645SOL    HW120513   4.828   8.873   2.262 -0.6072  0.0929 -0.3355
 6645SOL    HW220514   4.877   8.898   2.403  0.3210  1.2074 -0.8392
 6646SOL     OW20515   0.618   6.356   5.468 -0.0948  0.0936  0.0679
 6646SOL    HW120516   0.627   6.294   5.540 -2.8289  0.4875  0.8902
 6646SOL    HW220517   0.553   6.315   5.411 -0.5166  1.3354 -0.3622
 6647SOL     OW20518   2.575   6.462   1.363  0.7487  0.1395 -0.2100
 6647SOL    HW120519   2.509   6.531   1.355  0.8664  0.2510 -0.2164
 6647SOL    HW220520   2.620   6.462   1.279  0.6820 -0.0137 -0.2454
 6648SOL     OW20521   7.478   6.089   3.479  0.6342  0.7058 -0.1392
 6648SOL    HW120522   7.391   6.056   3.504  0.3630  1.7595  0.3366
 6648SOL    HW220523   7.462   6.141   3.400  0.0335  4.5444  2.2639
 6649SOL     OW20524   9.072   5.219   1.000 -0.0308  0.0907 -0.2854
 6649SOL    HW120525   9.035   5.306   1.013 -0.1104  0.1210 -0.7058
 6649SOL    HW220526   9.166   5.231   1.008 -0.0401  0.2210 -0.3675
 6650SOL     OW20527   3.680   3.037   4.160 -0.3298 -0.6671 -0.1447
 6650SOL    HW120528   3.718   3.038   4.072 -2.2745  0.6951 -1.0291
 6650SOL    HW220529   3.652   3.127   4.175 -0.6691 -1.0318  1.6123
 6651SOL     OW20530   7.730   0.978   0.202 -0.0364 -0.5202  0.3189
 6651SOL    HW120531   7.663   0.914   0.177 -0.6273 -0.2916  1.2222
 6651SOL    HW220532   7.689   1.063   0.184  0.0711 -0.3824  0.7172
 6652SOL     OW20533   7.212   1.060   3.158  0.2833 -0.0042 -0.3060
 6652SOL    HW120534   7.159   1.125   3.205 -0.7008 -0.1496 -1.1863
 6652SOL    HW220535   7.177   1.061   3.069  1.3100 -0.6201 -0.7260
 6653SOL     OW20536   1.909   0.146   8.982 -0.4590  0.2829  0.2477
 6653SOL    HW120537   1.986   0.141   8.926  0.1925 -0.0872  1.1538
 6653SOL    HW220538   1.851   0.208   8.938  0.7572  1.3095  0.0366
 6654SOL     OW20539   4.438   5.455   6.323  0.0377  0.1047  0.2990
 6654SOL    HW120540   4.353   5.432   6.361 -0.7971  2.0440 -0.2486
 6654SOL    HW220541   4.459   5.541   6.361  0.7125  0.6263 -1.1615
 6655SOL     OW20542   2.804   7.592   7.747 -0.6289 -0.0289  0.0206
 6655SOL    HW120543   2.865   7.545   7.803  0.8483  1.6085 -0.1270
 6655SOL    HW220544   2.796   7.538   7.669  1.2344  0.0622 -0.2625
 6656SOL     OW20545   2.714   8.429   2.054 -0.4324  0.4190  0.2059
 6656SOL    HW120546   2.752   8.367   2.117 -0.6838 -1.2150 -1.1733
 6656SOL    HW220547   2.704   8.511   2.104 -0.9195 -0.8670  2.3691
 6657SOL     OW20548   7.349   0.456   6.522 -0.0597 -0.0039 -0.6224
 6657SOL    HW120549   7.388   0.381   6.565  1.2117  1.4453  0.8901
 6657SOL    HW220550   7.411   0.528   6.538 -0.7911  1.1804 -2.7442
 6658SOL     OW20551   4.079   5.885   9.208 -0.0291 -0.4047  0.2710
 6658SOL    HW120552   4.131   5.833   9.147 -1.7607 -1.4892 -0.3514
 6658SOL    HW220553   4.073   5.830   9.286 -1.8274 -1.1816 -0.3731
 6659SOL     OW20554   8.524   2.975   5.658 -0.3575 -0.0923  0.2530
 6659SOL    HW120555   8.594   2.918   5.691  0.7384  0.2927 -1.2659
 6659SOL    HW220556   8.485   2.925   5.587  0.0093  0.6636 -0.4957
 6660SOL     OW20557   6.524   3.538   9.672 -0.0105  0.3535 -0.5617
 6660SOL    HW120558   6.493   3.452   9.644  0.2770  0.4917 -1.3242
 6660SOL    HW220559   6.615   3.524   9.698 -0.1013  0.3403 -0.2439
 6661SOL     OW20560   2.076   5.376   1.953 -0.1437 -0.3465  0.9726
 6661SOL    HW120561   2.132   5.347   2.025  1.2882  0.5921  0.2775
 6661SOL    HW220562   2.137   5.406   1.885 -1.3842 -2.1987 -1.1000
 6662SOL     OW20563   5.878   8.055   3.826  0.0122 -0.4127  0.1055
 6662SOL    HW120564   5.971   8.058   3.805  0.4770 -0.0774  2.0317
 6662SOL    HW220565   5.834   8.053   3.741  1.7560 -0.2447 -0.8408
 6663SOL     OW20566   1.068   6.410   2.770  0.1674 -0.3434 -0.2695
 6663SOL    HW120567   0.993   6.467   2.752 -0.4358 -0.6084  1.3313
 6663SOL    HW220568   1.063   6.342   2.703 -0.5057  0.1124 -0.6949
 6664SOL     OW20569   0.966   1.990   3.804  0.2673 -0.0095  0.2382
 6664SOL    HW120570   1.023   1.994   3.727 -0.0774  0.3773 -0.0065
 6664SOL    HW220571   0.891   2.044   3.780  0.5305  0.8028  1.1551
 6665SOL     OW20572   6.057   0.573   8.293 -0.5428 -0.3434  0.7932
 6665SOL    HW120573   6.041   0.667   8.304 -1.1755 -0.4296  0.6931
 6665SOL    HW220574   5.994   0.546   8.226  1.3619 -0.3619 -1.1032
 6666SOL     OW20575   8.188   2.759   5.678 -0.1886  0.1452  0.7960
 6666SOL    HW120576   8.189   2.715   5.593 -0.2428  0.1592  0.7880
 6666SOL    HW220577   8.122   2.828   5.668 -0.3134  0.0415  0.9034
 6667SOL     OW20578   2.709   9.377   2.985  0.3684 -0.1483  0.1082
 6667SOL    HW120579   2.700   9.330   3.067  0.8857 -0.7796 -0.1920
 6667SOL    HW220580   2.791   9.426   2.994  0.4264 -0.2194 -0.0300
 6668SOL     OW20581   0.706   0.322   7.864  0.2341  0.5171  0.4589
 6668SOL    HW120582   0.756   0.242   7.850 -0.8397  0.0891 -1.0836
 6668SOL    HW220583   0.618   0.292   7.888  0.4240  1.2631  2.2612
 6669SOL     OW20584   6.484   6.189   1.546 -0.0800  0.6193 -0.6273
 6669SOL    HW120585   6.490   6.150   1.633 -0.8594  0.4165 -0.6536
 6669SOL    HW220586   6.574   6.201   1.519  0.1739 -0.2480 -0.2037
 6670SOL     OW20587   0.354   2.446   8.301 -0.0380 -0.1030 -0.4918
 6670SOL    HW120588   0.303   2.369   8.276  1.9216 -0.8251 -2.5820
 6670SOL    HW220589   0.326   2.513   8.239  0.9398 -0.2720 -1.1283
 6671SOL     OW20590   2.139   5.853   0.660  0.3235 -0.4269  0.4555
 6671SOL    HW120591   2.048   5.885   0.656  0.4422 -0.1924 -0.8490
 6671SOL    HW220592   2.188   5.916   0.607  1.2303 -0.6426  1.0293
 6672SOL     OW20593   9.785   7.432   3.151 -0.4100 -0.6827 -0.1897
 6672SOL    HW120594   9.853   7.371   3.180 -2.0064 -2.4642 -0.0157
 6672SOL    HW220595   9.803   7.512   3.201  1.8560 -0.8691 -0.5761
 6673SOL     OW20596   4.493   7.449   7.403 -0.1039 -0.4984  0.0628
 6673SOL    HW120597   4.431   7.520   7.417  0.2552 -0.3597  1.0648
 6673SOL    HW220598   4.573   7.493   7.374 -0.6027 -0.7188 -1.7254
 6674SOL     OW20599   6.127   8.498   0.595 -0.2482  0.4249  0.3900
 6674SOL    HW120600   6.043   8.500   0.642 -0.2635 -2.3586  0.7005
 6674SOL    HW220601   6.188   8.463   0.659  0.5608  0.0092 -0.5875
 6675SOL     OW20602   9.927   1.060   1.786  0.4001 -0.4332 -0.2190
 6675SOL    HW120603   9.985   1.043   1.861  0.1664  0.2980  0.1353
 6675SOL    HW220604   9.872   1.133   1.815 -1.9345 -2.2139  0.1841
 6676SOL     OW20605   1.827   2.139   1.113  0.3348  0.2570 -0.2574
 6676SOL    HW120606   1.840   2.069   1.048 -1.2484 -1.3246  1.0102
 6676SOL    HW220607   1.829   2.220   1.062 -0.2234 -0.8727 -2.1798
 6677SOL     OW20608   0.112   5.043   5.881 -0.1949 -0.5484  0.1924
 6677SOL    HW120609   0.181   4.979   5.899 -1.3599 -1.8128  0.2930
 6677SOL    HW220610   0.113   5.053   5.785  0.4095 -0.2154  0.2268
 6678SOL     OW20611   1.926   0.174   5.097  0.4482 -0.0016  0.2038
 6678SOL    HW120612   1.985   0.170   5.171  0.6311 -0.1464  0.0525
 6678SOL    HW220613   1.853   0.227   5.127 -0.1902 -1.2623  0.9990
 6679SOL     OW20614   7.479   8.444   4.601 -0.5890  0.2255 -0.3315
 6679SOL    HW120615   7.481   8.353   4.573  0.6636 -0.0190  0.5156
 6679SOL    HW220616   7.405   8.482   4.553 -1.6013 -1.4081 -0.1233
 6680SOL     OW20617   0.437   6.321   8.932  0.3744  0.3474  0.0119
 6680SOL    HW120618   0.387   6.375   8.870  0.4403  1.4306  0.8647
 6680SOL    HW220619   0.472   6.249   8.879 -2.7015 -0.9162 -0.4831
 6681SOL     OW20620   3.051   8.576   8.343  0.2477 -0.6417 -0.0616
 6681SOL    HW120621   3.002   8.600   8.265  1.6595  0.3031 -0.7113
 6681SOL    HW220622   3.072   8.660   8.385  0.1295 -1.1008  0.9467
 6682SOL     OW20623   3.922   6.800   3.000  0.0885 -0.1113  0.3533
 6682SOL    HW120624   3.866   6.723   3.011 -0.6690  0.1048 -1.4859
 6682SOL    HW220625   3.863   6.867   2.967  1.3614  0.1679 -1.5430
 6683SOL     OW20626   1.215   3.713   9.515 -0.6928  0.2844  0.3631
 6683SOL    HW120627   1.142   3.733   9.574 -1.4829  0.5174 -0.6641
 6683SOL    HW220628   1.241   3.797   9.480  0.8467  0.3532  1.5588
 6684SOL     OW20629   4.268   6.200   3.800  0.2543  0.2266 -0.0607
 6684SOL    HW120630   4.206   6.213   3.872  1.2329 -0.9783  1.0281
 6684SOL    HW220631   4.304   6.287   3.784  0.5577  0.3844  1.3978
 6685SOL     OW20632   0.468   1.669   2.307  0.3988  0.0745  0.2195
 6685SOL    HW120633   0.485   1.659   2.214 -1.1160  0.8452 -0.1663
 6685SOL    HW220634   0.488   1.584   2.345 -1.0601 -0.9282 -1.1568
 6686SOL     OW20635   2.929   3.128   4.392  0.0387 -0.1115  0.5268
 6686SOL    HW120636   2.989   3.137   4.318  0.7550 -0.8051  1.0047
 6686SOL    HW220637   2.875   3.207   4.389  1.4231  0.8646  0.4915
 6687SOL     OW20638   4.160   9.628   1.474 -0.0574  0.1912 -0.4287
 6687SOL    HW120639   4.236   9.621   1.531 -0.0881 -0.2160 -0.4363
 6687SOL    HW220640   4.196   9.647   1.388 -0.0690  2.1822 -0.0460
 6688SOL     OW20641   9.208   6.861   4.679 -0.0838 -0.2038  0.3543
 6688SOL    HW120642   9.234   6.918   4.751  0.0551 -0.7817  0.7646
 6688SOL    HW220643   9.119   6.889   4.657  0.3334  0.8146 -0.0994
 6689SOL     OW20644   4.262   6.509   0.864  0.1743 -0.1051 -0.3182
 6689SOL    HW120645   4.216   6.576   0.914 -1.1168 -1.6259  0.6689
 6689SOL    HW220646   4.264   6.433   0.922  2.9923 -0.4821 -0.7773
 6690SOL     OW20647   3.143   4.901   9.130  0.1808 -0.0760  0.4974
 6690SOL    HW120648   3.078   4.952   9.178  0.5848 -0.6103  1.6539
 6690SOL    HW220649   3.165   4.828   9.188  0.2101 -1.1372 -0.7779
 6691SOL     OW20650   0.620   4.395   1.303  0.2262 -0.1169 -0.6260
 6691SOL    HW120651   0.644   4.383   1.395  0.8634  1.6592 -0.5353
 6691SOL    HW220652   0.616   4.490   1.291 -0.4168 -0.3222 -2.2994
 6692SOL     OW20653   2.181   8.845   6.163  0.1342 -0.3039  0.2200
 6692SOL    HW120654   2.269   8.874   6.187  0.0637 -1.3557  1.8581
 6692SOL    HW220655   2.166   8.767   6.216 -1.5417 -0.5237 -0.5243
 6693SOL     OW20656   9.951   9.212   4.184  0.5103  0.7262 -0.3341
 6693SOL    HW120657   9.897   9.148   4.232  0.1243  1.0629 -0.3125
 6693SOL    HW220658  10.024   9.231   4.243 -0.0305  1.2351  0.1877
 6694SOL     OW20659   6.862   9.063   5.505 -0.6977 -0.4668  0.2157
 6694SOL    HW120660   6.890   9.073   5.596  0.1713  0.0579 -0.0978
 6694SOL    HW220661   6.925   9.002   5.467 -0.5245 -0.0101 -0.2503
 6695SOL     OW20662   0.080   5.702   3.073 -0.6308  0.0137 -0.0432
 6695SOL    HW120663   0.031   5.691   2.992  0.6451  0.2141 -0.8802
 6695SOL    HW220664   0.171   5.711   3.044 -0.3017  1.4432  1.3190
 6696SOL     OW20665   5.443   8.854   0.538 -0.1470 -0.1851  0.4314
 6696SOL    HW120666   5.490   8.929   0.500 -1.6762  0.3747 -0.4636
 6696SOL    HW220667   5.483   8.841   0.624  0.1402  1.6777  0.6142
 6697SOL     OW20668   1.223   5.207   0.106 -0.0433 -0.4923  0.2228
 6697SOL    HW120669   1.215   5.290   0.060  1.3492  0.1470  1.0709
 6697SOL    HW220670   1.192   5.225   0.194 -0.4313 -1.0756  0.2091
 6698SOL     OW20671   7.419   9.056   6.876  0.5451  0.3281 -0.1880
 6698SOL    HW120672   7.382   9.030   6.960  0.9360  0.4494  0.0212
 6698SOL    HW220673   7.342   9.070   6.820  0.0394  3.6178  1.1018
 6699SOL     OW20674   4.227   5.573   7.470  0.0352 -0.1216  0.0135
 6699SOL    HW120675   4.167   5.619   7.411 -0.2870 -0.1284  0.3318
 6699SOL    HW220676   4.193   5.484   7.475  1.2297 -0.7109 -1.4002
 6700SOL     OW20677   3.039   6.616   0.354  0.8220  0.3666 -0.2943
 6700SOL    HW120678   3.010   6.598   0.265 -0.0420 -0.6267  0.1727
 6700SOL    HW220679   2.979   6.683   0.386  0.3696 -0.1411 -0.0618
 6701SOL     OW20680   2.780   3.383   4.363 -0.1640 -0.3188  0.0408
 6701SOL    HW120681   2.788   3.424   4.277 -0.8233  0.0132  0.1314
 6701SOL    HW220682   2.807   3.452   4.425  3.9410 -1.5997  0.0054
 6702SOL     OW20683   1.246   5.581   5.762  0.7086  0.3296  0.0404
 6702SOL    HW120684   1.161   5.610   5.797 -0.0388 -2.3266  0.6535
 6702SOL    HW220685   1.228   5.558   5.671  0.2706 -1.8286  0.6104
 6703SOL     OW20686   1.887   9.997   7.712 -0.5970  0.4130  0.3375
 6703SOL    HW120687   1.841   9.937   7.654  0.4369  0.7393 -0.8636
 6703SOL    HW220688   1.974  10.005   7.673 -0.1931  1.3989  1.4086
 6704SOL     OW20689   3.455   1.272   9.178 -0.2168  0.0255  0.1239
 6704SOL    HW120690   3.424   1.182   9.171  0.6613 -0.1867 -1.7636
 6704SOL    HW220691   3.492   1.291   9.091  2.5378  1.1064  1.4202
 6705SOL     OW20692   5.569   9.079   0.469 -0.5249 -0.0870 -0.1115
 6705SOL    HW120693   5.662   9.059   0.480 -0.8523 -2.1743 -0.6256
 6705SOL    HW220694   5.555   9.079   0.374 -1.1718 -0.6246 -0.0301
 6706SOL     OW20695   0.211   1.106   9.420  0.2243 -0.0260 -0.0594
 6706SOL    HW120696   0.149   1.104   9.493  1.1713 -1.7448  0.7459
 6706SOL    HW220697   0.274   1.174   9.444 -1.5705  2.1556 -1.1588
 6707SOL     OW20698   5.067   6.892   8.620  0.0981 -0.3137  0.1633
 6707SOL    HW120699   5.103   6.805   8.637 -1.1834 -0.6686  1.2430
 6707SOL    HW220700   4.976   6.876   8.595  0.1990  0.6531 -0.9052
 6708SOL     OW20701   8.462   5.516   8.098  0.1571  0.3360 -0.0048
 6708SOL    HW120702   8.482   5.425   8.121  0.1616 -0.3527 -2.4238
 6708SOL    HW220703   8.375   5.532   8.135  0.6254 -0.2443  1.4166
 6709SOL     OW20704   2.549   7.519   9.949 -0.6881  0.0458  0.4183
 6709SOL    HW120705   2.542   7.494  10.041 -1.3484  0.4162  0.4730
 6709SOL    HW220706   2.531   7.613   9.948  0.1161  0.2070  0.0036
 6710SOL     OW20707   8.740   8.275   9.724 -0.1135  0.1229 -0.3078
 6710SOL    HW120708   8.692   8.264   9.642  1.6335  0.8774 -1.4926
 6710SOL    HW220709   8.827   8.239   9.707  0.3953  0.5852  1.0998
 6711SOL     OW20710   8.426   7.572   8.472 -0.2172 -0.2976 -0.1754
 6711SOL    HW120711   8.439   7.494   8.526 -2.1889 -0.7478 -0.2565
 6711SOL    HW220712   8.378   7.541   8.395 -1.4303  1.0251 -0.0112
 6712SOL     OW20713   3.360   4.440   3.581  0.2106  0.4527 -0.2398
 6712SOL    HW120714   3.428   4.500   3.610 -0.9334  1.8948 -0.4262
 6712SOL    HW220715   3.364   4.367   3.642 -0.0497  1.9166  1.5913
 6713SOL     OW20716   1.887   9.612   3.832  0.0100  0.0561  0.5691
 6713SOL    HW120717   1.864   9.695   3.872  0.9822 -0.0149  1.2926
 6713SOL    HW220718   1.894   9.631   3.739 -3.6303 -0.0543  0.1029
 6714SOL     OW20719   4.771   1.994   4.902  0.2330  0.1698  0.0644
 6714SOL    HW120720   4.736   1.982   4.990 -0.6637  0.4577 -0.2489
 6714SOL    HW220721   4.866   2.001   4.915  0.1461 -0.1917  0.9594
 6715SOL     OW20722   8.137   9.879   4.262 -0.6883  0.0159  0.2126
 6715SOL    HW120723   8.065   9.877   4.326 -0.4769  1.8519  0.5859
 6715SOL    HW220724   8.216   9.870   4.315 -0.3903  3.3869  0.5996
 6716SOL     OW20725   2.095   9.529   3.598 -0.3000 -0.0710  0.2363
 6716SOL    HW120726   2.120   9.619   3.618  3.4161 -0.6627 -0.9634
 6716SOL    HW220727   2.104   9.482   3.680 -3.3779  0.6972  1.1555
 6717SOL     OW20728   2.988   8.479   1.995  0.1050  0.8239 -0.0311
 6717SOL    HW120729   3.017   8.559   2.038  1.8786  0.3620 -0.2854
 6717SOL    HW220730   2.893   8.477   2.009  0.0435  2.8752  0.0956
 6718SOL     OW20731   7.993   5.613   5.650  0.0244  0.5104 -0.0495
 6718SOL    HW120732   7.906   5.639   5.621 -0.0808 -0.9020 -1.0974
 6718SOL    HW220733   7.977   5.538   5.708  0.5128  0.6703  0.3036
 6719SOL     OW20734   9.477   9.913   2.299 -0.0488 -0.2753  0.3916
 6719SOL    HW120735   9.524   9.874   2.225  1.2494  1.4734  0.2247
 6719SOL    HW220736   9.546   9.936   2.361 -0.1384  4.6332 -0.9009
 6720SOL     OW20737   6.727   1.235   9.066 -0.3244 -0.0006  0.0214
 6720SOL    HW120738   6.795   1.245   8.999 -0.5689  1.6517 -0.0223
 6720SOL    HW220739   6.773   1.197   9.141  0.7223  1.2156  0.0408
 6721SOL     OW20740   5.329   0.921   3.880  0.4625 -0.3465 -0.1334
 6721SOL    HW120741   5.421   0.908   3.856 -0.0307 -1.4100 -1.5708
 6721SOL    HW220742   5.288   0.835   3.866 -0.5532 -0.1733  1.5108
 6722SOL     OW20743   4.263   9.203   1.569  0.5230 -0.0665 -0.2495
 6722SOL    HW120744   4.309   9.164   1.495  1.5873 -0.4083  0.5676
 6722SOL    HW220745   4.333   9.239   1.624 -0.2545  0.3181  0.5108
 6723SOL     OW20746   8.769   1.042   2.326 -0.0056  0.9321 -0.1692
 6723SOL    HW120747   8.857   1.027   2.360 -0.0370  0.1115 -0.4174
 6723SOL    HW220748   8.775   1.126   2.281  0.2639  1.6062  1.0786
 6724SOL     OW20749   3.972   6.947   7.076 -0.3140  0.1380 -0.0481
 6724SOL    HW120750   4.053   6.990   7.102 -1.4779  1.6602  1.3202
 6724SOL    HW220751   3.948   6.988   6.993 -0.8374  1.4010  0.6950
 6725SOL     OW20752   0.269   2.674   5.729  0.2412 -0.5325 -0.2391
 6725SOL    HW120753   0.328   2.710   5.796 -0.5679  1.0080 -0.3196
 6725SOL    HW220754   0.328   2.629   5.668  1.1924 -0.1847  0.3970
 6726SOL     OW20755   2.729   5.182   3.850 -0.1687 -0.0335 -0.1267
 6726SOL    HW120756   2.643   5.181   3.892  1.2957  0.9243  3.2195
 6726SOL    HW220757   2.748   5.090   3.833 -1.1479 -0.4202  0.7407
 6727SOL     OW20758   7.659   1.093   1.473  0.0232 -0.9762  0.0137
 6727SOL    HW120759   7.642   0.999   1.462  0.5046 -1.1304  0.5279
 6727SOL    HW220760   7.712   1.098   1.553  0.2479 -0.2938 -0.1740
 6728SOL     OW20761   1.818   5.216   5.214  0.3678  0.0447  0.2644
 6728SOL    HW120762   1.815   5.275   5.139 -1.7421  2.0034  1.7473
 6728SOL    HW220763   1.779   5.135   5.183  1.6539 -0.0096 -1.3325
 6729SOL     OW20764   1.518   0.011   7.533 -0.6366  0.4674 -0.4411
 6729SOL    HW120765   1.539   0.078   7.598 -0.0659  0.4957 -0.6449
 6729SOL    HW220766   1.424  -0.005   7.544 -0.7262  1.1153 -0.2184
 6730SOL     OW20767   9.964   9.829   4.077 -0.2769 -0.0773 -0.1521
 6730SOL    HW120768  10.007   9.906   4.039 -0.0287 -0.0670  0.1464
 6730SOL    HW220769   9.953   9.851   4.169  0.4907 -0.6945  0.1026
 6731SOL     OW20770   5.620   3.818   4.173  0.0619 -0.2622 -0.0880
 6731SOL    HW120771   5.712   3.845   4.171  0.4646 -1.5949 -0.5568
 6731SOL    HW220772   5.587   3.838   4.086  0.4310 -1.4246 -0.5206
 6732SOL     OW20773   7.335   4.383   5.167  0.5113  0.0815  0.2128
 6732SOL    HW120774   7.363   4.334   5.089 -0.4497 -2.0605  1.1407
 6732SOL    HW220775   7.268   4.443   5.134 -2.0521 -2.7949 -0.3241
 6733SOL     OW20776   1.476   1.761   8.451  0.0119  0.9862 -0.3628
 6733SOL    HW120777   1.466   1.678   8.497 -1.1413  1.3674  0.1263
 6733SOL    HW220778   1.569   1.782   8.458  0.2784 -0.1523 -0.3147
 6734SOL     OW20779   4.810   8.384   8.463 -0.2839 -0.4083  0.1548
 6734SOL    HW120780   4.876   8.331   8.418  0.0806  0.1699 -0.0038
 6734SOL    HW220781   4.845   8.394   8.552  0.3905  0.8068 -0.2306
 6735SOL     OW20782   7.175   5.934   1.894 -0.1294  0.2887  0.0271
 6735SOL    HW120783   7.199   5.956   1.804  0.6028  2.7991  0.7595
 6735SOL    HW220784   7.085   5.964   1.903  0.2944  1.4751  0.5285
 6736SOL     OW20785   8.012   8.998   7.181 -0.0196  0.0875 -0.1622
 6736SOL    HW120786   8.009   8.902   7.174  0.8008  0.0907 -0.6692
 6736SOL    HW220787   8.009   9.029   7.091  1.9009  0.4519 -0.1295
 6737SOL     OW20788   2.737   6.557   5.086 -0.3412  0.1651 -0.6738
 6737SOL    HW120789   2.773   6.586   5.002 -0.1655  1.0139 -0.3228
 6737SOL    HW220790   2.814   6.529   5.136 -0.4845 -0.6894 -0.9188
 6738SOL     OW20791   5.745   9.208   4.971  0.4861  0.0869  0.1372
 6738SOL    HW120792   5.699   9.291   4.984  0.1459  0.5076 -3.0106
 6738SOL    HW220793   5.696   9.165   4.900  3.0185 -0.9205 -1.1080
 6739SOL     OW20794   1.042   4.043   0.103 -0.8425 -0.7166  0.5350
 6739SOL    HW120795   0.993   3.963   0.085 -2.1459  0.0216  0.6990
 6739SOL    HW220796   0.975   4.109   0.120  0.2222  0.2543  1.0869
 6740SOL     OW20797   0.041   2.550   5.338  0.1883  0.0910 -0.5936
 6740SOL    HW120798   0.015   2.460   5.323 -0.4439  0.3760 -1.2729
 6740SOL    HW220799   0.038   2.561   5.433 -1.6235 -0.0564 -0.6123
 6741SOL     OW20800   8.961   6.224   1.931  0.1853 -1.1933 -0.5547
 6741SOL    HW120801   8.990   6.158   1.994  0.5923  0.7993  1.4630
 6741SOL    HW220802   9.038   6.277   1.914 -0.7195  0.3231 -0.0853
 6742SOL     OW20803   4.558   7.545   0.785  0.2094 -0.9683 -0.0005
 6742SOL    HW120804   4.610   7.546   0.865 -0.2445 -0.7219  0.2914
 6742SOL    HW220805   4.469   7.528   0.814  0.0824 -1.1484 -0.4802
 6743SOL     OW20806   4.438   7.278   2.922 -0.4515 -0.4378 -0.0040
 6743SOL    HW120807   4.449   7.186   2.947  0.2635 -1.2501 -2.9565
 6743SOL    HW220808   4.358   7.278   2.868 -0.2030  0.5798 -0.3822
 6744SOL     OW20809   1.225   4.406   1.527 -0.0613 -0.1201  0.0106
 6744SOL    HW120810   1.284   4.408   1.451  1.4884 -1.9059  1.0627
 6744SOL    HW220811   1.283   4.412   1.603 -1.3521 -0.6552  1.0886
 6745SOL     OW20812   5.219   0.537   4.038 -0.4849  0.2018 -0.2035
 6745SOL    HW120813   5.259   0.599   4.100 -1.0019  1.0692 -0.7089
 6745SOL    HW220814   5.125   0.557   4.043 -0.5106  0.4077 -1.4017
 6746SOL     OW20815   2.009   9.956   2.174 -0.3394 -0.7480  0.2755
 6746SOL    HW120816   1.959   9.923   2.099 -0.8882  0.3257  0.1517
 6746SOL    HW220817   1.970  10.041   2.193  0.7832 -0.3442  0.8351
 6747SOL     OW20818   9.967   2.871   7.081 -0.0137  0.0476 -0.1430
 6747SOL    HW120819  10.045   2.920   7.105 -0.7040  0.6768  0.8664
 6747SOL    HW220820   9.913   2.871   7.159 -1.4238  0.3916 -1.0851
 6748SOL     OW20821   4.511   4.418   1.589  0.0531 -0.1244 -0.1407
 6748SOL    HW120822   4.588   4.460   1.627  0.1483  0.3525 -0.8537
 6748SOL    HW220823   4.450   4.490   1.573  0.0103 -0.3216 -0.8792
 6749SOL     OW20824   3.060   2.791   6.782 -0.1229  0.4817  0.2470
 6749SOL    HW120825   2.969   2.815   6.803 -0.3754 -0.2771  0.0528
 6749SOL    HW220826   3.067   2.807   6.688 -0.7669 -1.5967 -0.2053
 6750SOL     OW20827   5.749   8.221   6.636  0.1461 -0.5106  0.1569
 6750SOL    HW120828   5.755   8.218   6.732  0.8380 -1.0706  0.1058
 6750SOL    HW220829   5.674   8.165   6.615 -0.4552  0.1888  0.4035
 6751SOL     OW20830   2.857   2.101   5.790 -0.6844 -0.3829  0.1598
 6751SOL    HW120831   2.843   2.039   5.861  0.4772 -0.5178  0.2923
 6751SOL    HW220832   2.825   2.055   5.712  0.0847 -1.1414  0.2704
 6752SOL     OW20833   3.115   4.622   5.934 -0.1072 -0.1754  0.2357
 6752SOL    HW120834   3.168   4.583   5.865 -1.3221 -2.6029  0.5438
 6752SOL    HW220835   3.035   4.569   5.935 -1.1008  1.2372  1.9868
 6753SOL     OW20836   2.207   2.889   3.557  0.2924  0.1038  0.6948
 6753SOL    HW120837   2.277   2.947   3.525  1.2156 -1.9784 -1.3657
 6753SOL    HW220838   2.165   2.856   3.478 -1.5134 -0.5032  1.8503
 6754SOL     OW20839   1.924   1.663   1.887 -0.4318 -0.3229 -0.5789
 6754SOL    HW120840   1.899   1.736   1.942  0.1532 -0.5857  0.0449
 6754SOL    HW220841   1.863   1.593   1.910 -1.2941  0.0906 -1.5079
 6755SOL     OW20842   1.060   7.257   8.593 -0.5226  0.1561 -0.0597
 6755SOL    HW120843   1.151   7.270   8.567 -0.9614  1.4064 -1.0786
 6755SOL    HW220844   1.009   7.296   8.523 -1.9374 -2.5014 -0.6388
 6756SOL     OW20845   3.367   7.257   1.362 -0.2156 -0.0395 -0.3329
 6756SOL    HW120846   3.372   7.302   1.278 -1.4065  0.8753  0.0711
 6756SOL    HW220847   3.331   7.321   1.423 -0.4670 -1.0470  0.6215
 6757SOL     OW20848   8.921   8.300   1.941 -0.0052 -0.2409 -0.1381
 6757SOL    HW120849   8.932   8.279   2.034 -0.4155  0.1434  0.0005
 6757SOL    HW220850   8.836   8.264   1.918 -0.5770  0.9483  0.0215
 6758SOL     OW20851   4.766   3.115   7.986  0.5385 -0.0774 -0.6986
 6758SOL    HW120852   4.692   3.071   8.028 -0.2559 -0.0740 -2.0392
 6758SOL    HW220853   4.832   3.046   7.976 -0.4074 -0.8345 -2.0913
 6759SOL     OW20854   1.890   7.676   5.911 -0.2558  0.4118  0.3361
 6759SOL    HW120855   1.848   7.625   5.841  1.2102 -1.4150  0.6951
 6759SOL    HW220856   1.828   7.673   5.983 -0.1795 -1.0334  0.3822
 6760SOL     OW20857   4.035   6.356   5.986 -0.0133 -0.5978  0.0819
 6760SOL    HW120858   4.013   6.408   6.063 -0.7769  1.0667 -1.1859
 6760SOL    HW220859   3.951   6.340   5.943  0.5606  0.2863 -1.4585
 6761SOL     OW20860   4.930   7.042   7.414 -0.0356  0.4818  0.1557
 6761SOL    HW120861   4.985   6.965   7.427 -1.5238 -0.1540  3.7885
 6761SOL    HW220862   4.877   7.020   7.337 -0.2112 -2.0563  0.9124
 6762SOL     OW20863   3.964   1.579   3.994 -0.1151  0.2733  0.3492
 6762SOL    HW120864   3.933   1.489   3.994 -3.4822  1.2770 -0.5049
 6762SOL    HW220865   3.891   1.629   4.031  0.5729  2.8967 -1.5561
 6763SOL     OW20866   9.175   0.107   7.283 -0.7710 -0.5668  0.6013
 6763SOL    HW120867   9.181   0.198   7.310 -1.8681 -0.7289  1.4613
 6763SOL    HW220868   9.252   0.065   7.321 -0.1933  0.0120  0.0946
 6764SOL     OW20869   5.997   2.211   5.506  0.9557 -0.5866 -0.1130
 6764SOL    HW120870   6.015   2.119   5.486  1.0336 -0.7021  0.4624
 6764SOL    HW220871   6.047   2.228   5.586 -1.6709 -0.9961  1.7341
 6765SOL     OW20872   7.963   7.782   5.326  0.0631  0.4295  0.3716
 6765SOL    HW120873   7.885   7.796   5.273  0.3774  0.7612 -0.0155
 6765SOL    HW220874   7.932   7.787   5.417 -1.3842 -4.7264  0.4664
 6766SOL     OW20875   9.417   0.035   6.051  0.0486  0.0873  0.5252
 6766SOL    HW120876   9.510   0.045   6.067  0.0468 -1.4908  1.7781
 6766SOL    HW220877   9.396  -0.052   6.085 -2.0231  0.7075  0.9780
 6767SOL     OW20878   3.148   8.950   3.482  0.2720 -0.2379 -0.3707
 6767SOL    HW120879   3.084   9.009   3.442  1.2395  2.5881  1.8797
 6767SOL    HW220880   3.095   8.887   3.532 -0.9661  2.6749  2.3194
 6768SOL     OW20881   3.997   0.502   2.292  0.2329  0.6288  0.1912
 6768SOL    HW120882   4.072   0.508   2.351  0.2148 -0.6770  0.3808
 6768SOL    HW220883   4.028   0.449   2.219 -0.6106 -0.3671  0.5103
 6769SOL     OW20884   5.890   9.538   3.257  0.3187 -0.1505  0.3419
 6769SOL    HW120885   5.923   9.577   3.176  1.8992  2.7853  2.2181
 6769SOL    HW220886   5.805   9.581   3.272  0.0858 -0.5979  0.3411
 6770SOL     OW20887   7.794   1.789   9.569 -0.2060 -0.2735  0.2935
 6770SOL    HW120888   7.887   1.804   9.552  0.0604 -1.6967  0.4006
 6770SOL    HW220889   7.755   1.781   9.482 -0.1859  0.0079  0.2558
 6771SOL     OW20890   7.792   2.503   9.787  0.1435 -0.3002  0.8505
 6771SOL    HW120891   7.834   2.490   9.703  0.5010 -0.2187  1.0147
 6771SOL    HW220892   7.852   2.465   9.851  0.3060  0.4325  1.1503
 6772SOL     OW20893   4.457   4.766   0.139 -0.0933 -0.3061 -0.2709
 6772SOL    HW120894   4.436   4.716   0.060 -1.3947  0.7652 -0.6519
 6772SOL    HW220895   4.383   4.751   0.198  0.9915 -1.3191  0.9063
 6773SOL     OW20896   9.794   8.123   3.035  0.2032 -0.4967 -0.2988
 6773SOL    HW120897   9.868   8.178   3.011  0.5966 -1.9983 -2.8564
 6773SOL    HW220898   9.733   8.182   3.080  3.0342  0.7138  2.2662
 6774SOL     OW20899   8.011   6.320   9.248  0.2090 -0.3516 -0.1763
 6774SOL    HW120900   8.013   6.236   9.294  0.3643 -1.9923 -2.9503
 6774SOL    HW220901   8.090   6.366   9.278  1.2216 -2.0689 -0.0574
 6775SOL     OW20902   9.175   4.884   1.054 -0.2358  0.1354  0.3400
 6775SOL    HW120903   9.141   4.961   1.100  0.4724 -0.7543  2.4437
 6775SOL    HW220904   9.254   4.916   1.010 -0.6572  0.8892  0.1067
 6776SOL     OW20905   0.720   1.688   9.628  0.0008 -0.1166 -0.0710
 6776SOL    HW120906   0.731   1.739   9.548  1.7030 -0.6475 -0.2159
 6776SOL    HW220907   0.742   1.748   9.699  1.0187 -0.3525 -0.1782
 6777SOL     OW20908   5.834   4.835   0.836 -0.2629  0.1929 -0.0517
 6777SOL    HW120909   5.765   4.832   0.770 -0.5070  1.7870  0.0954
 6777SOL    HW220910   5.807   4.904   0.897  1.4545  0.8786 -0.0043
 6778SOL     OW20911   3.029   8.728   5.144  0.1644 -0.0314 -0.4242
 6778SOL    HW120912   3.035   8.646   5.096  0.6510 -0.3860  0.2254
 6778SOL    HW220913   3.008   8.794   5.077 -2.0981 -0.9489 -0.6953
 6779SOL     OW20914   4.219   9.683   7.970  0.3265  0.0202 -0.3193
 6779SOL    HW120915   4.201   9.620   7.901  0.2382  0.7450 -0.9664
 6779SOL    HW220916   4.314   9.677   7.984  0.8395  1.7830 -2.4369
 6780SOL     OW20917   2.588   9.806   6.586 -0.6981  0.4511 -0.0215
 6780SOL    HW120918   2.572   9.712   6.580  0.5189  0.2835 -0.9000
 6780SOL    HW220919   2.554   9.830   6.673 -1.1136 -0.7695  0.1771
 6781SOL     OW20920   5.455   0.547   5.121 -0.3468 -0.4280  0.1359
 6781SOL    HW120921   5.366   0.515   5.132 -0.6626  0.9205  1.8701
 6781SOL    HW220922   5.473   0.536   5.027 -2.0724 -1.3136 -0.1249
 6782SOL     OW20923   2.577   0.122   0.240  0.7993  0.3525 -0.3356
 6782SOL    HW120924   2.563   0.126   0.146 -3.9347  1.4946  0.1231
 6782SOL    HW220925   2.595   0.213   0.265 -0.7040  0.5796  0.0329
 6783SOL     OW20926   4.809   6.065   2.094  0.0548  0.1499 -0.4227
 6783SOL    HW120927   4.798   6.152   2.057 -2.3055  0.5799  1.0971
 6783SOL    HW220928   4.893   6.069   2.141  1.2753  0.7013 -2.5072
 6784SOL     OW20929   4.345   8.706   0.919  0.0281 -0.2080  0.2324
 6784SOL    HW120930   4.424   8.714   0.972  0.4145  1.1197 -0.4947
 6784SOL    HW220931   4.293   8.782   0.942 -0.1839 -0.0746 -0.6500
 6785SOL     OW20932   3.885   0.765   9.661  0.2131 -0.6033  0.0184
 6785SOL    HW120933   3.874   0.755   9.567  3.3083  0.1947 -0.5343
 6785SOL    HW220934   3.882   0.860   9.676 -0.9708 -0.7472  0.8854
 6786SOL     OW20935   1.653   0.195   7.709 -1.0852  0.3947 -0.2562
 6786SOL    HW120936   1.625   0.272   7.757 -1.6258 -1.2390  2.2070
 6786SOL    HW220937   1.743   0.180   7.737 -0.4904  0.8589 -1.7890
 6787SOL     OW20938   0.622   5.627   8.719 -0.0686 -0.3777 -0.6918
 6787SOL    HW120939   0.614   5.629   8.814  0.5504  0.6896 -0.6514
 6787SOL    HW220940   0.638   5.535   8.698 -3.5910 -1.3109 -0.0859
 6788SOL     OW20941   2.636   4.433   1.954 -0.1184 -0.1836 -0.0949
 6788SOL    HW120942   2.579   4.477   1.891 -1.0369  1.2624  1.6422
 6788SOL    HW220943   2.644   4.343   1.921 -0.7085  0.4568 -2.1206
 6789SOL     OW20944   4.765   5.324   9.160  0.6798 -0.1520  0.1199
 6789SOL    HW120945   4.783   5.401   9.106 -0.3962 -0.3464 -0.5540
 6789SOL    HW220946   4.844   5.271   9.156  0.9541  0.3012 -0.4797
 6790SOL     OW20947   5.406   3.387   3.050 -0.0129  0.7529  0.2717
 6790SOL    HW120948   5.483   3.373   2.995 -0.6816 -2.3390 -0.0497
 6790SOL    HW220949   5.332   3.367   2.993 -0.8030 -0.8338  1.7982
 6791SOL     OW20950   7.709   5.630   5.927  0.5095 -0.9027  0.2711
 6791SOL    HW120951   7.615   5.648   5.914  0.5288 -0.1719  1.0838
 6791SOL    HW220952   7.715   5.601   6.018  1.0688 -0.9551  0.2152
 6792SOL     OW20953   7.458   0.365   6.889  0.1208 -0.0586 -0.6527
 6792SOL    HW120954   7.493   0.347   6.802  2.9292  1.1499  0.1037
 6792SOL    HW220955   7.480   0.288   6.941 -0.6979 -0.3690 -0.7432
 6793SOL     OW20956   7.245   5.691   3.994 -0.0215  0.1704 -0.1868
 6793SOL    HW120957   7.261   5.632   4.067  0.1526  0.6916  0.2042
 6793SOL    HW220958   7.157   5.669   3.964  0.4688 -1.0433 -0.7719
 6794SOL     OW20959   8.914   9.636   9.853 -0.3621  0.0330 -0.4922
 6794SOL    HW120960   8.832   9.627   9.900  0.4082 -1.2130  0.6875
 6794SOL    HW220961   8.896   9.700   9.784 -1.8131  1.1468  0.8605
 6795SOL     OW20962   6.639   9.636   9.899 -0.7346 -0.3863 -0.1249
 6795SOL    HW120963   6.572   9.588   9.948 -0.0802 -0.8842  0.3033
 6795SOL    HW220964   6.710   9.650   9.962  1.4296 -3.6000 -1.5598
 6796SOL     OW20965   2.983   3.928   4.725  0.3226  0.3672  0.4357
 6796SOL    HW120966   2.968   3.843   4.766  0.1630  0.1118 -0.1329
 6796SOL    HW220967   3.016   3.907   4.638 -1.0948  0.8308 -0.2596
 6797SOL     OW20968   2.712   0.183   2.492 -0.2197  0.3302  0.0253
 6797SOL    HW120969   2.628   0.228   2.505  0.1933  1.0966  0.1182
 6797SOL    HW220970   2.703   0.102   2.541 -1.1456  0.1032 -0.4959
 6798SOL     OW20971   2.434   4.012   4.217 -0.0548  0.4028 -0.3919
 6798SOL    HW120972   2.416   3.919   4.232  1.1546 -0.0994 -1.8131
 6798SOL    HW220973   2.433   4.051   4.304 -0.9960 -0.8538  0.1922
 6799SOL     OW20974   4.271   4.154   0.683 -0.2180  0.2899 -0.1415
 6799SOL    HW120975   4.256   4.108   0.600 -2.9854  1.2846 -0.2775
 6799SOL    HW220976   4.220   4.235   0.676  0.1846  0.8284  2.2089
 6800SOL     OW20977   6.929   5.786   2.591 -0.3327  0.6658  0.2040
 6800SOL    HW120978   6.940   5.839   2.511  0.8360 -0.8603 -0.7105
 6800SOL    HW220979   6.901   5.701   2.559  1.2677 -0.3230  1.3007
 6801SOL     OW20980   5.842   8.067   2.508 -0.0779 -0.1721 -0.1582
 6801SOL    HW120981   5.891   7.991   2.539  0.8293  0.1297 -0.8002
 6801SOL    HW220982   5.898   8.106   2.440 -0.8708  0.6241 -0.3805
 6802SOL     OW20983   9.695   3.368   5.903  0.1840 -0.9700  0.2407
 6802SOL    HW120984   9.672   3.453   5.942  1.8909 -0.4998  0.2783
 6802SOL    HW220985   9.735   3.391   5.819 -2.1261 -1.9104 -1.2284
 6803SOL     OW20986   1.163   5.660   4.930 -0.0371  0.0454  0.1002
 6803SOL    HW120987   1.125   5.748   4.923  1.0301  0.4785 -0.5177
 6803SOL    HW220988   1.103   5.613   4.988 -0.8718  1.0420  0.0862
 6804SOL     OW20989   6.435   4.817   2.154 -0.3328 -0.1962 -0.3807
 6804SOL    HW120990   6.351   4.828   2.110  0.4416  2.2674 -1.3838
 6804SOL    HW220991   6.426   4.866   2.236 -0.0115 -0.2985 -0.2809
 6805SOL     OW20992   4.232   5.828   9.711  0.5333 -0.3003  0.3380
 6805SOL    HW120993   4.290   5.774   9.764  0.7095  1.0693  1.6192
 6805SOL    HW220994   4.148   5.824   9.757  0.2929 -0.2642 -0.0951
 6806SOL     OW20995   6.321   5.290   4.009 -0.4487 -0.4580 -0.1548
 6806SOL    HW120996   6.297   5.343   4.085 -0.9600 -1.9323  0.7607
 6806SOL    HW220997   6.238   5.266   3.969 -0.1885  0.0917 -1.0408
 6807SOL     OW20998   7.615   5.113   6.881 -0.3696 -0.2335  0.4542
 6807SOL    HW120999   7.554   5.061   6.933 -0.5750 -1.5695 -1.0114
 6807SOL    HW221000   7.662   5.048   6.829  0.5220  0.9608 -0.2699
 6808SOL     OW21001   4.907   7.212   3.632  0.2457  0.0056 -0.5533
 6808SOL    HW121002   4.903   7.284   3.695  0.0035 -0.5254  0.0450
 6808SOL    HW221003   4.908   7.133   3.686 -0.7991 -0.4936 -1.2332
 6809SOL     OW21004   5.380   3.097   9.158  0.7083  0.2023  0.2747
 6809SOL    HW121005   5.434   3.176   9.145 -0.1516  0.8052  0.2433
 6809SOL    HW221006   5.433   3.026   9.124  2.9191  0.2375  3.2597
 6810SOL     OW21007   9.752   6.263   4.993 -0.7221  0.8722  0.1748
 6810SOL    HW121008   9.786   6.277   5.081  1.0220  1.0282 -0.4881
 6810SOL    HW221009   9.657   6.268   5.003 -0.5258  2.0198  1.8487
 6811SOL     OW21010   8.604   7.858   7.373  0.3127 -0.4485 -0.1459
 6811SOL    HW121011   8.526   7.804   7.363  0.7970 -1.6092  1.7010
 6811SOL    HW221012   8.623   7.890   7.285 -1.6881 -0.8820 -0.7883
 6812SOL     OW21013   1.849   0.409   6.802 -0.4423  0.4775  0.0707
 6812SOL    HW121014   1.874   0.499   6.778  1.6561  0.2593  1.1966
 6812SOL    HW221015   1.813   0.417   6.890 -0.7839  0.2890 -0.0520
 6813SOL     OW21016   2.574   8.526   9.619  0.3795 -0.8059  0.2651
 6813SOL    HW121017   2.608   8.608   9.656 -0.7548 -0.0440 -0.3184
 6813SOL    HW221018   2.644   8.496   9.560  0.0249  0.8614 -1.1011
 6814SOL     OW21019   1.563   9.694   2.758  0.1293  0.0897 -0.1039
 6814SOL    HW121020   1.621   9.657   2.690  1.2021  0.6792  0.4569
 6814SOL    HW221021   1.611   9.770   2.791 -0.6665  0.1829  0.8779
 6815SOL     OW21022   1.815   5.116   8.873 -0.3028 -0.4836 -0.2368
 6815SOL    HW121023   1.738   5.063   8.854 -0.8405  0.3734 -0.5278
 6815SOL    HW221024   1.883   5.053   8.895 -0.2689 -1.4454 -2.7603
 6816SOL     OW21025   7.765   0.165   5.260  0.1418 -0.0629 -0.5036
 6816SOL    HW121026   7.830   0.130   5.200  0.0934 -0.5070 -0.3041
 6816SOL    HW221027   7.760   0.100   5.330  0.6532  0.7426  0.3002
 6817SOL     OW21028   7.324   9.781   4.443 -0.6508 -0.0214  0.1349
 6817SOL    HW121029   7.234   9.795   4.473 -1.0011 -1.6316 -0.1055
 6817SOL    HW221030   7.378   9.808   4.518 -1.4621 -2.2761  1.6224
 6818SOL     OW21031   1.171   6.031   1.492  0.1443  0.7153 -0.1399
 6818SOL    HW121032   1.079   6.044   1.473 -0.0647  1.9246  1.3951
 6818SOL    HW221033   1.216   6.097   1.439 -0.0028  0.9894  0.0721
 6819SOL     OW21034   3.387   5.930   8.133 -0.0957 -0.1619 -0.2603
 6819SOL    HW121035   3.406   5.880   8.054 -0.4153  0.2741 -0.6153
 6819SOL    HW221036   3.293   5.916   8.149  0.0510 -0.5834  0.2789
 6820SOL     OW21037   1.656   2.197   6.456  0.2755 -0.4374  0.4964
 6820SOL    HW121038   1.608   2.259   6.510  0.6579 -0.9338  1.4440
 6820SOL    HW221039   1.671   2.242   6.374 -1.2863 -0.0590  0.3881
 6821SOL     OW21040   7.808   1.684   3.173 -0.7131 -0.0863  0.0669
 6821SOL    HW121041   7.777   1.732   3.096  0.5447  3.2383  1.4250
 6821SOL    HW221042   7.758   1.721   3.245  1.5372  0.5382  1.4125
 6822SOL     OW21043   7.520   4.209   6.185 -0.7392 -0.4241  0.6461
 6822SOL    HW121044   7.536   4.278   6.120  0.4050  0.3746  1.7192
 6822SOL    HW221045   7.477   4.139   6.136  1.6040 -0.5745 -1.3921
 6823SOL     OW21046   9.429   5.081   3.527 -0.0579 -0.5988 -0.0077
 6823SOL    HW121047   9.411   4.998   3.571 -0.2141 -1.4289 -1.5378
 6823SOL    HW221048   9.495   5.059   3.460 -1.1536  0.1674 -1.4055
 6824SOL     OW21049   0.778   1.832   5.343 -0.2371  0.1521  0.4531
 6824SOL    HW121050   0.855   1.842   5.400  0.2927 -0.5335 -0.1097
 6824SOL    HW221051   0.764   1.737   5.339 -1.0690  0.2660  0.4813
 6825SOL     OW21052   3.413   6.853   9.663 -0.1554  0.0157 -0.3787
 6825SOL    HW121053   3.476   6.785   9.685 -1.7242 -1.1775  0.6580
 6825SOL    HW221054   3.440   6.884   9.577  1.7989 -0.4581  0.0121
 6826SOL     OW21055   8.231   0.062   5.768 -0.6346  0.5366  0.3504
 6826SOL    HW121056   8.195   0.084   5.682 -1.0070  0.1966  0.4176
 6826SOL    HW221057   8.180   0.115   5.829 -0.0250  1.1714  0.3263
 6827SOL     OW21058   4.687   5.137   0.100 -0.7129  0.8639  0.3809
 6827SOL    HW121059   4.675   5.051   0.141  1.7359 -0.8016 -2.1024
 6827SOL    HW221060   4.669   5.122   0.008  0.3980  2.8758 -0.2115
 6828SOL     OW21061   8.686   2.023   1.802 -0.4233 -0.2254  0.4493
 6828SOL    HW121062   8.748   1.999   1.733 -0.9290  1.1165 -0.5148
 6828SOL    HW221063   8.605   1.979   1.779 -0.6921  0.5015 -0.0265
 6829SOL     OW21064   8.699   3.164   1.165 -0.6855  0.4655  0.0557
 6829SOL    HW121065   8.625   3.126   1.117  0.3095 -0.0174 -1.1473
 6829SOL    HW221066   8.739   3.090   1.210  0.0306  0.4255 -0.6267
 6830SOL     OW21067   8.475   5.118   5.473  0.0206 -0.2192 -0.1336
 6830SOL    HW121068   8.549   5.057   5.469  1.1535  1.1217 -0.4362
 6830SOL    HW221069   8.473   5.149   5.563  0.6449  0.6878 -0.4167
 6831SOL     OW21070   0.399   9.251   6.750 -0.1361 -0.7851  0.0301
 6831SOL    HW121071   0.369   9.265   6.660  1.1832 -2.0803 -0.6353
 6831SOL    HW221072   0.465   9.319   6.764 -1.4343  0.4131  0.6017
 6832SOL     OW21073   4.239   1.948   5.196 -0.5700 -0.3993 -0.1530
 6832SOL    HW121074   4.178   2.004   5.148  0.6280  0.0160 -1.2544
 6832SOL    HW221075   4.202   1.860   5.189 -0.8018 -0.2265 -1.2194
 6833SOL     OW21076   0.164   3.246   8.091  0.2877  0.0776 -0.7265
 6833SOL    HW121077   0.072   3.265   8.078  0.3452 -0.5194 -2.2201
 6833SOL    HW221078   0.202   3.327   8.125 -0.5480  0.7049 -1.2914
 6834SOL     OW21079   5.344   6.839   7.180  0.1390 -0.0613 -0.0682
 6834SOL    HW121080   5.322   6.754   7.142 -0.2838 -0.5909  1.3061
 6834SOL    HW221081   5.355   6.821   7.273  2.2369  0.9894 -0.0613
 6835SOL     OW21082   1.320   3.727   8.371  0.5396 -0.1747 -0.2877
 6835SOL    HW121083   1.316   3.749   8.278  0.9402 -0.2148 -0.3161
 6835SOL    HW221084   1.279   3.641   8.378 -0.3668  0.2351 -0.2836
 6836SOL     OW21085   7.659   9.563   4.081  0.8659  0.5300  0.6124
 6836SOL    HW121086   7.600   9.526   4.015 -1.6828  2.0415  1.8880
 6836SOL    HW221087   7.603   9.580   4.156  3.3429  0.4085  2.6179
 6837SOL     OW21088   4.422   5.174   8.891 -1.2442 -0.2641  0.6965
 6837SOL    HW121089   4.478   5.097   8.901 -0.9561 -0.7111 -2.8919
 6837SOL    HW221090   4.483   5.246   8.877 -1.5516  0.1043  1.2148
 6838SOL     OW21091   6.236   6.555   7.705  0.5374 -0.1615  0.2722
 6838SOL    HW121092   6.278   6.588   7.784  0.6407  0.0092  0.1483
 6838SOL    HW221093   6.308   6.550   7.641  0.2078  1.0731 -0.2376
 6839SOL     OW21094   7.110   1.294   3.296  0.4193 -0.1265  0.2090
 6839SOL    HW121095   7.080   1.256   3.378  0.1536  1.0031  0.6578
 6839SOL    HW221096   7.154   1.376   3.322  1.5108 -0.4066 -0.6619
 6840SOL     OW21097   4.537   6.608   5.953  0.7119 -0.3868  0.7542
 6840SOL    HW121098   4.537   6.513   5.963  0.4575 -0.4832 -0.1235
 6840SOL    HW221099   4.471   6.639   6.015 -0.3436 -0.9115 -0.0908
 6841SOL     OW21100   5.897   2.778   6.516 -0.0949 -0.5512  0.2112
 6841SOL    HW121101   5.893   2.701   6.572  1.1785 -0.6773  0.1646
 6841SOL    HW221102   5.819   2.828   6.539 -0.1569 -1.1159  1.3306
 6842SOL     OW21103   9.089   2.628   9.890 -0.0928 -0.3943 -0.8381
 6842SOL    HW121104   9.130   2.693   9.947 -2.4173 -0.1163  0.6542
 6842SOL    HW221105   9.159   2.565   9.871  1.1496  0.2971  1.1193
 6843SOL     OW21106   2.439   7.244   6.085 -0.4369  0.5024  0.0383
 6843SOL    HW121107   2.448   7.266   6.178 -0.3594 -0.7848  0.3442
 6843SOL    HW221108   2.367   7.300   6.054  0.4329  1.9288  0.5295
 6844SOL     OW21109   5.141   5.997   9.828 -0.2694 -0.6003  0.6029
 6844SOL    HW121110   5.084   6.016   9.902  0.7276 -2.2904  1.8754
 6844SOL    HW221111   5.121   5.906   9.806 -0.0011 -0.3550 -0.7172
 6845SOL     OW21112   6.219   6.208   0.873 -0.4236 -0.0867  0.1030
 6845SOL    HW121113   6.231   6.238   0.963  2.1182 -0.5683  0.0004
 6845SOL    HW221114   6.221   6.287   0.820  1.7250 -0.0291  0.2096
 6846SOL     OW21115   3.512   7.047   2.968  0.3895  0.0897  0.1602
 6846SOL    HW121116   3.553   7.093   3.041 -1.0295 -0.6742  1.4973
 6846SOL    HW221117   3.513   7.110   2.896  1.1255  1.1320  1.0564
 6847SOL     OW21118  -0.002   5.684   2.797 -0.3798  0.8055  0.3706
 6847SOL    HW121119  -0.002   5.748   2.725  1.4841  2.0680  1.3998
 6847SOL    HW221120   0.028   5.603   2.757  0.9439  1.5721 -0.2597
 6848SOL     OW21121   3.347   2.062   9.778  0.1143 -0.5150  0.5574
 6848SOL    HW121122   3.304   2.147   9.791  0.6309 -0.3106  0.9777
 6848SOL    HW221123   3.279   1.998   9.796 -0.8647 -0.2147 -1.7213
 6849SOL     OW21124   5.398   9.503   9.719 -0.1291  0.3680  0.3555
 6849SOL    HW121125   5.473   9.559   9.740  0.6796 -1.2785  2.2182
 6849SOL    HW221126   5.345   9.504   9.798 -0.4409 -0.9064  0.1889
 6850SOL     OW21127   9.954   0.565   3.936  0.2681  0.0688  0.1616
 6850SOL    HW121128   9.867   0.550   3.900  1.1772 -1.2835 -1.6044
 6850SOL    HW221129   9.946   0.540   4.028 -1.5765  1.5651  0.4762
 6851SOL     OW21130   0.419   8.978   3.527 -0.0585  0.1411 -0.1586
 6851SOL    HW121131   0.446   8.904   3.473 -1.1039 -1.1803  1.0464
 6851SOL    HW221132   0.499   9.006   3.571 -0.1201 -2.3189  1.7227
 6852SOL     OW21133   8.694   2.200   6.820  0.1955  0.5739 -0.1406
 6852SOL    HW121134   8.776   2.211   6.868 -0.2134 -3.0735  1.7453
 6852SOL    HW221135   8.713   2.133   6.754 -1.0725  0.0486 -0.0104
 6853SOL     OW21136   0.479   8.443   9.667 -0.0856 -0.5676  0.0060
 6853SOL    HW121137   0.427   8.494   9.729  0.2614  1.3353 -1.1880
 6853SOL    HW221138   0.520   8.375   9.721  1.2016  1.7188  2.1513
 6854SOL     OW21139   9.835   1.207   0.598 -0.1171 -0.3859  0.2616
 6854SOL    HW121140   9.883   1.289   0.610 -0.5156 -0.4671  2.8966
 6854SOL    HW221141   9.903   1.140   0.594  0.1281 -0.1273 -0.0245
 6855SOL     OW21142   6.808   1.004   8.815  0.4460  0.5704 -0.5490
 6855SOL    HW121143   6.826   1.085   8.768  0.9139  0.9847  0.3240
 6855SOL    HW221144   6.857   0.937   8.766  2.3762  1.2696  0.3162
 6856SOL     OW21145   2.724   8.695   9.801  0.2366  0.1990  0.7848
 6856SOL    HW121146   2.787   8.687   9.873 -0.2173 -1.1475  1.0489
 6856SOL    HW221147   2.664   8.764   9.830  0.8602  0.6334  1.0742
 6857SOL     OW21148   5.378   8.868   6.397 -0.4625 -0.5830 -0.4028
 6857SOL    HW121149   5.410   8.957   6.414 -1.3805  0.0239 -1.6516
 6857SOL    HW221150   5.452   8.812   6.418 -0.1278  0.3987  1.2176
 6858SOL     OW21151   2.950   1.063   3.803  0.0528 -0.0408 -0.0396
 6858SOL    HW121152   3.040   1.067   3.772  0.3984 -0.0903  0.9045
 6858SOL    HW221153   2.942   1.138   3.862  0.1824 -1.2854  1.6232
 6859SOL     OW21154   6.265   2.956   7.741  0.0448  0.1596 -0.3136
 6859SOL    HW121155   6.216   2.893   7.688 -0.6781 -0.2607  0.8093
 6859SOL    HW221156   6.202   2.987   7.806  1.0390  0.2565  0.6340
 6860SOL     OW21157   1.124   7.865   3.074  0.1232  0.1469 -0.7229
 6860SOL    HW121158   1.068   7.943   3.072  0.3064  0.3846  1.5721
 6860SOL    HW221159   1.071   7.796   3.035 -1.7705  0.3905  1.2824
 6861SOL     OW21160   5.790   6.875   8.078  0.6524  0.2483  0.0681
 6861SOL    HW121161   5.762   6.887   7.987 -0.4811 -2.2262  0.0307
 6861SOL    HW221162   5.883   6.853   8.072  0.4962 -0.2719 -0.5431
 6862SOL     OW21163   1.915   1.672   3.684  0.0841  0.3091  0.3321
 6862SOL    HW121164   1.900   1.578   3.696  2.6039 -0.1526  0.2251
 6862SOL    HW221165   1.924   1.706   3.773  0.8423  0.1336  0.3265
 6863SOL     OW21166   1.917   8.286   1.991 -0.2185 -0.8031  0.2115
 6863SOL    HW121167   1.962   8.239   2.061 -0.6050 -0.8633  0.4199
 6863SOL    HW221168   1.972   8.362   1.973 -0.2679 -0.6366  0.7703
 6864SOL     OW21169   8.446   3.843   1.912  0.1328  0.4586  0.0208
 6864SOL    HW121170   8.434   3.819   1.820 -2.7779 -0.4128  0.5344
 6864SOL    HW221171   8.435   3.938   1.913  1.5396  0.6642 -0.6511
 6865SOL     OW21172   8.514   0.577   7.691  0.1605 -0.3843  0.4404
 6865SOL    HW121173   8.599   0.588   7.734 -0.5353  2.4913  1.2653
 6865SOL    HW221174   8.466   0.517   7.748  1.6403 -2.3002 -0.1939
 6866SOL     OW21175   8.324   2.810   1.210  0.2639 -0.2160  0.3779
 6866SOL    HW121176   8.259   2.741   1.217  0.0631  0.0366  1.0842
 6866SOL    HW221177   8.354   2.824   1.300 -0.1530  1.0407  0.3459
 6867SOL     OW21178   6.159   8.067   1.762 -0.5482 -0.2663 -0.5259
 6867SOL    HW121179   6.217   7.991   1.754 -0.7545 -0.5840  0.8546
 6867SOL    HW221180   6.182   8.122   1.687  1.3136 -0.5397 -0.2037
 6868SOL     OW21181   9.909   7.746   7.862 -0.3989 -0.3656  0.6240
 6868SOL    HW121182   9.933   7.668   7.812  0.4040 -1.3854  2.4775
 6868SOL    HW221183   9.818   7.731   7.888 -0.8237  0.1747 -0.5030
 6869SOL     OW21184   7.122   6.341   8.611  0.0890  0.4744 -0.0627
 6869SOL    HW121185   7.112   6.396   8.688  0.3090 -0.0885  0.3722
 6869SOL    HW221186   7.143   6.254   8.645 -1.3435 -0.1546 -0.6974
 6870SOL     OW21187   2.710   5.797   2.743 -0.0925 -0.1285  0.2516
 6870SOL    HW121188   2.766   5.859   2.697  0.6517 -0.7840  0.2609
 6870SOL    HW221189   2.767   5.756   2.808 -1.1586  0.8669  1.8721
 6871SOL     OW21190   7.951   9.129   5.682 -0.5751 -0.6556  0.0039
 6871SOL    HW121191   7.891   9.204   5.677 -0.4858 -0.6397 -0.9303
 6871SOL    HW221192   7.955   9.095   5.593 -0.3513 -1.5766  0.3540
 6872SOL     OW21193   7.714   0.207   0.888  0.5035 -0.2224 -0.2044
 6872SOL    HW121194   7.708   0.251   0.973 -0.9868  0.3824 -0.5901
 6872SOL    HW221195   7.646   0.248   0.835 -0.4589 -2.5035 -0.8339
 6873SOL     OW21196   0.646   3.448   4.882  0.4661 -0.2123  0.0040
 6873SOL    HW121197   0.650   3.409   4.794  0.1594  0.3933 -0.2882
 6873SOL    HW221198   0.575   3.512   4.876 -1.2160 -1.8475  1.4026
 6874SOL     OW21199   6.736   3.872   9.223 -0.1776  0.0786 -0.3552
 6874SOL    HW121200   6.795   3.857   9.297 -0.3799  1.7651  0.1963
 6874SOL    HW221201   6.753   3.799   9.164 -0.4490 -1.6537  1.5923
 6875SOL     OW21202   7.451   6.338   0.494  0.5997  0.6257 -0.9327
 6875SOL    HW121203   7.506   6.300   0.562  1.0401  1.8723 -0.5556
 6875SOL    HW221204   7.432   6.265   0.435 -1.2997 -0.9565  1.4272
 6876SOL     OW21205   9.431   4.029   8.867 -0.1984  0.3421  0.7315
 6876SOL    HW121206   9.386   4.074   8.938 -0.1688  3.7065 -1.1995
 6876SOL    HW221207   9.500   4.089   8.840  0.8353 -1.5293 -1.0923
 6877SOL     OW21208   1.317   8.701   5.052 -0.3836 -0.0631 -0.6999
 6877SOL    HW121209   1.239   8.646   5.061  0.2454 -0.9365 -0.4253
 6877SOL    HW221210   1.371   8.656   4.986  0.7917 -0.5774  0.5680
 6878SOL     OW21211   7.330   1.957   1.865  0.2480 -0.6295 -0.4984
 6878SOL    HW121212   7.307   1.888   1.802 -0.3721  1.0352 -2.2086
 6878SOL    HW221213   7.425   1.961   1.863  0.4224 -2.6528  1.0694
 6879SOL     OW21214   2.182   2.585   1.812 -0.3210  0.4741  0.7430
 6879SOL    HW121215   2.190   2.501   1.768  1.1342  0.5343  0.8277
 6879SOL    HW221216   2.132   2.567   1.891 -0.8035 -0.1254  0.3061
 6880SOL     OW21217   2.050   0.504   5.322  0.2296 -0.4129 -0.1354
 6880SOL    HW121218   1.973   0.472   5.369  0.5199  0.3414  0.9044
 6880SOL    HW221219   2.017   0.528   5.235 -0.6474 -0.3816  0.1967
 6881SOL     OW21220   1.628   0.706   6.443 -0.2758 -0.0985  0.6702
 6881SOL    HW121221   1.702   0.710   6.382 -0.5132  1.3907  0.4481
 6881SOL    HW221222   1.641   0.624   6.491  1.0651 -0.2604  0.0741
 6882SOL     OW21223   6.675   1.384   3.034  0.1871  0.2825  0.4299
 6882SOL    HW121224   6.718   1.469   3.045  2.3001 -0.8316  1.5285
 6882SOL    HW221225   6.748   1.322   3.026 -1.2854 -1.4476 -0.1782
 6883SOL     OW21226   6.420   2.548   0.403  0.6801 -0.4470 -0.1209
 6883SOL    HW121227   6.363   2.502   0.341  0.4217 -0.4070  0.0863
 6883SOL    HW221228   6.487   2.588   0.349 -0.5702  1.1249 -0.5681
 6884SOL     OW21229   6.105   8.704   4.655 -0.3099  0.8970 -0.4930
 6884SOL    HW121230   6.157   8.785   4.649  2.3551 -0.4724  1.7905
 6884SOL    HW221231   6.054   8.714   4.735 -0.5176  0.6159 -0.5906
 6885SOL     OW21232   8.457   3.702   0.525  0.1029 -0.0927  0.3204
 6885SOL    HW121233   8.458   3.796   0.505 -0.6446 -0.1395  0.0007
 6885SOL    HW221234   8.490   3.660   0.445 -1.5888 -0.2024 -0.3772
 6886SOL     OW21235   7.010   7.144   9.602 -0.1602  0.5182 -0.1205
 6886SOL    HW121236   7.040   7.053   9.599  0.6005  0.7952 -1.3547
 6886SOL    HW221237   6.916   7.138   9.618 -0.3266 -0.5232 -1.4002
 6887SOL     OW21238   5.784   1.396   3.026 -0.0612  0.1769  0.3183
 6887SOL    HW121239   5.726   1.330   3.065 -0.4777  0.5086  0.2616
 6887SOL    HW221240   5.747   1.480   3.054  0.6628  0.3858  0.6719
 6888SOL     OW21241   2.448   3.841   7.852  0.1610 -0.0962  0.2831
 6888SOL    HW121242   2.524   3.820   7.798 -0.8081 -1.1039 -0.7435
 6888SOL    HW221243   2.485   3.867   7.937  1.6850  0.9177 -0.6575
 6889SOL     OW21244   8.520   8.789   0.326  0.8219  0.5736  0.0746
 6889SOL    HW121245   8.466   8.818   0.252  0.6704  0.1690  0.0229
 6889SOL    HW221246   8.540   8.697   0.306 -0.5074 -0.0152  1.2905
 6890SOL     OW21247   8.176   6.083   1.014 -0.6040 -0.0700 -0.2130
 6890SOL    HW121248   8.253   6.135   0.992 -0.2628 -0.4506  0.0541
 6890SOL    HW221249   8.124   6.082   0.934  0.1932 -0.6955 -0.7343
 6891SOL     OW21250   9.674   8.281   4.259  0.1461  0.3512  0.5442
 6891SOL    HW121251   9.691   8.264   4.351  0.7880 -1.3949  0.1492
 6891SOL    HW221252   9.748   8.334   4.230  0.8984 -0.6127  0.6467
 6892SOL     OW21253   7.043   3.801   8.927  0.2054 -0.0768  0.5034
 6892SOL    HW121254   7.111   3.869   8.925  2.1856 -1.7578  3.3326
 6892SOL    HW221255   7.081   3.727   8.881 -0.5786 -0.3657  0.3033
 6893SOL     OW21256   2.690   4.611   5.749  0.0541 -0.0439  0.1822
 6893SOL    HW121257   2.712   4.699   5.720  0.8082 -0.1262  0.4688
 6893SOL    HW221258   2.667   4.564   5.669 -4.4963  1.4672  0.3657
 6894SOL     OW21259   4.100   5.100   0.462  0.1329 -0.3818 -0.3528
 6894SOL    HW121260   4.036   5.104   0.391  0.6431 -0.9052 -0.8527
 6894SOL    HW221261   4.184   5.086   0.418  0.7615  1.3451  0.2187
 6895SOL     OW21262   5.488   1.426   3.516 -0.4429  0.2150  0.1172
 6895SOL    HW121263   5.410   1.383   3.481 -0.6182  1.2853 -0.8583
 6895SOL    HW221264   5.454   1.493   3.575 -0.1805 -0.6201  1.2663
 6896SOL     OW21265   3.118   0.806   0.061 -0.0919 -0.1639 -0.4131
 6896SOL    HW121266   3.189   0.828   0.001  0.1933  0.0523  0.0006
 6896SOL    HW221267   3.047   0.866   0.038  0.4969  0.8573  0.3682
 6897SOL     OW21268   9.580   6.808   7.203  0.5505  0.1192 -1.0885
 6897SOL    HW121269   9.646   6.800   7.134  0.8320 -2.6360 -0.6209
 6897SOL    HW221270   9.570   6.719   7.237 -2.9100  0.5122 -0.6615
 6898SOL     OW21271   5.435   7.236   8.796 -0.8644  0.2420  0.4136
 6898SOL    HW121272   5.470   7.324   8.783  0.5991 -0.4448 -0.4968
 6898SOL    HW221273   5.442   7.193   8.711  0.2780 -1.3730  1.2652
 6899SOL     OW21274   5.438   5.940   2.867 -0.6936 -0.3397 -0.1619
 6899SOL    HW121275   5.459   5.886   2.944 -0.7860 -0.7710 -0.4361
 6899SOL    HW221276   5.510   5.926   2.807  0.2526  1.3384  0.5157
 6900SOL     OW21277   4.120   0.050   2.225  0.0977  0.0662 -0.4798
 6900SOL    HW121278   4.063  -0.027   2.222  2.9686 -2.2240 -1.0251
 6900SOL    HW221279   4.157   0.056   2.137  0.9445  1.2348 -0.0633
 6901SOL     OW21280   2.375   9.411   3.220 -0.0763 -0.9304 -0.7418
 6901SOL    HW121281   2.449   9.351   3.227 -0.3757 -1.2246 -0.0164
 6901SOL    HW221282   2.393   9.462   3.141  2.3768  1.0045  0.9007
 6902SOL     OW21283   0.081   1.553   9.774 -0.5811  0.5132  0.4580
 6902SOL    HW121284  -0.001   1.590   9.805 -1.4387 -2.0643  1.4870
 6902SOL    HW221285   0.140   1.559   9.849 -1.0337 -0.9843  0.9702
 6903SOL     OW21286   2.839   3.592   3.904 -0.2909  0.6166 -0.5217
 6903SOL    HW121287   2.805   3.541   3.831 -0.4769  1.4010 -0.9964
 6903SOL    HW221288   2.833   3.683   3.875 -2.5808  1.1663  1.3441
 6904SOL     OW21289   7.040   1.478   4.166  0.2228 -0.4259  0.0260
 6904SOL    HW121290   7.014   1.389   4.192 -0.5029 -0.2826 -0.1804
 6904SOL    HW221291   7.041   1.475   4.070  1.3808 -0.5304  0.0252
 6905SOL     OW21292   6.658   0.041   4.725  0.0799  0.3185 -0.6101
 6905SOL    HW121293   6.750   0.066   4.716  1.4540 -1.2906  4.8943
 6905SOL    HW221294   6.659  -0.054   4.728 -1.6956  0.2834 -0.0133
 6906SOL     OW21295   6.318   9.968   5.722  0.0423  0.7626  0.1243
 6906SOL    HW121296   6.387   9.967   5.788  0.4058 -1.0236 -0.2374
 6906SOL    HW221297   6.326   9.884   5.677 -1.6078  1.0141 -0.7263
 6907SOL     OW21298   4.938   7.898   8.350 -0.8730  0.7365  0.1854
 6907SOL    HW121299   4.968   7.807   8.344  0.8198  1.2575  0.2710
 6907SOL    HW221300   4.844   7.894   8.330 -0.4285 -0.7719 -1.8385
 6908SOL     OW21301   5.340   5.455   1.462  0.0792  0.2413  0.0531
 6908SOL    HW121302   5.427   5.444   1.502  0.4171  0.7588 -0.5218
 6908SOL    HW221303   5.333   5.383   1.399  0.2963  0.4835 -0.2503
 6909SOL     OW21304   0.615   8.403   2.288  0.2929 -0.3768 -0.3160
 6909SOL    HW121305   0.528   8.362   2.289  0.7466 -1.3929 -0.7300
 6909SOL    HW221306   0.632   8.422   2.196  0.1184  0.7178 -0.1330
 6910SOL     OW21307   4.670   1.230   3.350 -0.1137  0.2782 -0.2232
 6910SOL    HW121308   4.575   1.242   3.338 -0.2596  0.3914  0.9237
 6910SOL    HW221309   4.687   1.143   3.316 -0.5694  0.3814 -0.7421
 6911SOL     OW21310   3.082   6.692   6.206 -0.0357 -0.0070  0.0446
 6911SOL    HW121311   3.124   6.697   6.291  1.5691 -0.5021 -0.6712
 6911SOL    HW221312   2.989   6.682   6.225  0.3266 -0.4225  1.7277
 6912SOL     OW21313   7.995   2.409   2.160  0.2899  0.6818  0.5358
 6912SOL    HW121314   7.931   2.345   2.129 -0.4992  1.2584  0.9702
 6912SOL    HW221315   7.958   2.494   2.137  1.8534  0.9948 -1.0520
 6913SOL     OW21316   6.249   3.983   7.673  0.2499  0.0830 -0.9775
 6913SOL    HW121317   6.271   4.038   7.748  1.6688 -0.0613 -1.2592
 6913SOL    HW221318   6.283   4.031   7.598  1.5211 -1.1655 -1.2253
 6914SOL     OW21319   9.741   2.621   4.499  0.0983 -0.1556  0.6182
 6914SOL    HW121320   9.687   2.700   4.498  1.6174  0.9483 -1.3100
 6914SOL    HW221321   9.767   2.612   4.591  0.8013  2.2940  0.7441
 6915SOL     OW21322   9.644   8.564   6.730  0.0933 -0.0995  0.0746
 6915SOL    HW121323   9.640   8.585   6.636 -1.2357 -0.3480  0.0658
 6915SOL    HW221324   9.635   8.469   6.734 -1.2593  0.0296  0.5196
 6916SOL     OW21325   8.858   2.383   7.999 -0.3077 -0.0569 -0.4791
 6916SOL    HW121326   8.888   2.399   8.088 -2.4345 -1.6473  0.6212
 6916SOL    HW221327   8.919   2.318   7.964  0.2882  0.2587 -0.0321
 6917SOL     OW21328   4.262   5.859   3.977  0.4204  0.0163  0.0425
 6917SOL    HW121329   4.352   5.873   4.005  0.8127  0.1382 -1.2266
 6917SOL    HW221330   4.268   5.840   3.884 -0.8178 -0.6127  0.0674
 6918SOL     OW21331   9.674   5.013   3.322  0.0134 -0.2759  0.2341
 6918SOL    HW121332   9.678   4.917   3.324  1.1829 -0.2440 -0.0091
 6918SOL    HW221333   9.625   5.033   3.242 -0.0961 -0.6626  0.2021
 6919SOL     OW21334   3.443   2.620   4.285  0.8459  0.2293  0.3208
 6919SOL    HW121335   3.447   2.525   4.294  2.0836  0.2182 -0.2509
 6919SOL    HW221336   3.469   2.637   4.194 -0.8460  1.0336 -0.0645
 6920SOL     OW21337   1.230   4.069   9.605  0.1548 -0.0972 -0.3577
 6920SOL    HW121338   1.221   4.024   9.521 -0.0550 -0.6185 -0.0635
 6920SOL    HW221339   1.141   4.078   9.638  0.2309  0.1653 -0.2258
 6921SOL     OW21340   3.940   0.186   1.779 -0.6987  0.0256  0.0499
 6921SOL    HW121341   3.935   0.265   1.833 -0.0407  1.1368 -1.4377
 6921SOL    HW221342   3.910   0.215   1.693  0.6893 -1.0557 -0.8276
 6922SOL     OW21343   0.157   6.847   7.418  0.3456 -0.3077  0.3116
 6922SOL    HW121344   0.189   6.924   7.465  2.4169  0.8114 -2.6500
 6922SOL    HW221345   0.147   6.781   7.486 -0.2109  2.1333  2.7941
 6923SOL     OW21346   0.028   7.186   2.914  0.0897 -0.6843  0.0647
 6923SOL    HW121347  -0.002   7.096   2.913 -1.4231 -0.2086  0.1364
 6923SOL    HW221348  -0.014   7.227   2.839 -0.0646  0.2071  0.6166
 6924SOL     OW21349   2.502   8.222   9.169 -0.3352 -0.3358  0.1722
 6924SOL    HW121350   2.574   8.191   9.115  0.9397  1.5144  0.6960
 6924SOL    HW221351   2.508   8.318   9.164 -0.9511 -0.1028  2.5309
 6925SOL     OW21352   7.870   7.332   5.863 -0.2045 -0.8100  0.4330
 6925SOL    HW121353   7.817   7.321   5.784 -0.4098 -3.1176  0.8482
 6925SOL    HW221354   7.809   7.365   5.929 -0.2777  0.0337 -0.0384
 6926SOL     OW21355   5.192   9.672   3.709  0.4001  0.0618  0.2179
 6926SOL    HW121356   5.178   9.717   3.793  0.7895  0.4292  0.0906
 6926SOL    HW221357   5.111   9.688   3.660  0.4572  0.4707  0.2482
 6927SOL     OW21358   7.025   2.243   5.727  0.5567  0.2444  0.1107
 6927SOL    HW121359   6.977   2.281   5.653 -0.5650 -0.3197  0.5229
 6927SOL    HW221360   7.074   2.170   5.689  0.0753  0.0287 -0.1042
 6928SOL     OW21361   0.847   5.100   7.158 -0.4632  0.0505  0.4744
 6928SOL    HW121362   0.880   5.143   7.079  0.7995 -0.7711  0.5161
 6928SOL    HW221363   0.791   5.030   7.124 -0.5357  0.1774  0.3284
 6929SOL     OW21364   7.614   2.406   0.849  0.7507  0.1845  0.2988
 6929SOL    HW121365   7.603   2.465   0.774  1.3370 -0.1638 -0.0665
 6929SOL    HW221366   7.695   2.435   0.891  0.3242  0.5009  0.9170
 6930SOL     OW21367   5.600   6.997   0.244  0.4024  0.5660  0.2295
 6930SOL    HW121368   5.632   7.040   0.165  0.9666 -0.1589  0.0616
 6930SOL    HW221369   5.672   7.004   0.307  0.6561 -0.4753  0.0693
 6931SOL     OW21370   9.622   1.146   6.435 -0.2698  0.1946  0.3231
 6931SOL    HW121371   9.698   1.198   6.409 -0.1460  0.5786  1.3923
 6931SOL    HW221372   9.575   1.131   6.353  1.5588 -1.0780 -0.5751
 6932SOL     OW21373   2.409   8.554   6.160 -0.4069 -0.1574 -0.0443
 6932SOL    HW121374   2.449   8.640   6.176 -1.4922  0.0207  2.1111
 6932SOL    HW221375   2.479   8.501   6.124  1.2790  0.6894  1.7822
 6933SOL     OW21376   0.824   5.860   9.569  0.7717  0.6006  0.2702
 6933SOL    HW121377   0.839   5.842   9.477  0.5960 -1.0706  0.5367
 6933SOL    HW221378   0.730   5.851   9.580  0.9798 -1.1007  0.9485
 6934SOL     OW21379   3.135   0.015   1.938  0.0716 -0.1429 -0.3019
 6934SOL    HW121380   3.204   0.009   1.872 -0.2677  1.0386 -0.7950
 6934SOL    HW221381   3.056  -0.015   1.893  0.3675 -2.2513  0.4912
 6935SOL     OW21382   5.990   3.506   9.778  0.0857 -0.2545  0.4563
 6935SOL    HW121383   5.990   3.449   9.854 -2.6540 -1.0194 -0.0339
 6935SOL    HW221384   5.963   3.592   9.811 -0.6048 -0.4613  0.4338
 6936SOL     OW21385   2.757   7.423   5.558  0.4128  0.5797  0.0572
 6936SOL    HW121386   2.703   7.355   5.598  0.1475  1.3000  0.9543
 6936SOL    HW221387   2.840   7.379   5.538  0.0509 -0.1409  0.1021
 6937SOL     OW21388   4.099   5.755   3.028 -0.0817 -0.8011 -0.4349
 6937SOL    HW121389   4.009   5.774   3.054 -0.1510 -0.1202 -1.1482
 6937SOL    HW221390   4.149   5.832   3.056 -0.0050 -0.4555 -1.4959
 6938SOL     OW21391   9.691   7.434   9.035 -0.2627  0.0828 -0.1851
 6938SOL    HW121392   9.601   7.431   9.067 -0.2107 -0.4392 -0.0736
 6938SOL    HW221393   9.743   7.455   9.112 -0.4509  2.4123 -0.6110
 6939SOL     OW21394   7.094   2.950   5.591  0.5408  0.4585  0.8979
 6939SOL    HW121395   7.089   3.044   5.577  0.9060  0.6850  2.1886
 6939SOL    HW221396   7.004   2.919   5.581  0.6052  0.7112 -0.8755
 6940SOL     OW21397   9.455   6.582   5.008  0.7526  0.2657 -0.3357
 6940SOL    HW121398   9.377   6.634   5.029 -0.5986 -1.2629 -1.3006
 6940SOL    HW221399   9.496   6.629   4.935 -1.3678 -0.7689 -2.3200
 6941SOL     OW21400   5.157   8.528   6.980 -0.1893  0.3821 -0.0698
 6941SOL    HW121401   5.075   8.563   7.016 -0.6326 -0.6464 -0.0611
 6941SOL    HW221402   5.160   8.562   6.891 -1.4396 -0.8556 -0.6183
 6942SOL     OW21403   8.927   7.121   9.460  0.8595  0.1069 -0.0729
 6942SOL    HW121404   8.997   7.105   9.396  0.5840 -0.4952 -0.2316
 6942SOL    HW221405   8.973   7.128   9.544  1.2248  0.9362 -0.3286
 6943SOL     OW21406   8.143   7.178   8.319  0.1023 -0.1993  0.4360
 6943SOL    HW121407   8.158   7.105   8.259 -0.0553  1.0203 -1.1621
 6943SOL    HW221408   8.047   7.187   8.322  0.0885 -0.5873  1.3032
 6944SOL     OW21409   0.232   5.861   6.277 -0.0453 -0.6666  0.0517
 6944SOL    HW121410   0.193   5.894   6.358  0.6600  0.7196 -0.1484
 6944SOL    HW221411   0.215   5.767   6.279 -0.1427 -0.6415  1.7568
 6945SOL     OW21412   8.653   7.025   6.144  0.2503  0.2618  0.0582
 6945SOL    HW121413   8.579   7.084   6.133 -1.4478 -1.8961 -0.8600
 6945SOL    HW221414   8.626   6.944   6.101  2.7843 -0.9490  0.5294
 6946SOL     OW21415   3.424   4.317   2.330  0.1783  0.0812  0.4155
 6946SOL    HW121416   3.414   4.412   2.342  1.1415  0.3769 -0.9737
 6946SOL    HW221417   3.491   4.292   2.394  3.2305  1.1652 -2.1204
 6947SOL     OW21418   1.636   1.347   3.474  0.0583 -0.2178 -0.0387
 6947SOL    HW121419   1.715   1.300   3.448  0.5041 -0.2201  1.2488
 6947SOL    HW221420   1.578   1.280   3.510  0.5167  0.1195  1.3910
 6948SOL     OW21421   4.292   6.341   5.847  0.0551  0.1782  0.8930
 6948SOL    HW121422   4.269   6.254   5.814  0.1113 -0.4113  2.2880
 6948SOL    HW221423   4.210   6.389   5.848 -0.0297  0.0480  0.3734
 6949SOL     OW21424   3.377   0.059   3.301 -0.1539  0.9474  0.4311
 6949SOL    HW121425   3.469   0.077   3.321  0.3971  1.4960 -2.1730
 6949SOL    HW221426   3.378   0.023   3.213 -2.2891 -1.3278  1.2300
 6950SOL     OW21427   8.033   1.698   2.294 -0.2383  0.0631 -0.1797
 6950SOL    HW121428   7.974   1.702   2.218 -0.1369  0.9656 -0.2219
 6950SOL    HW221429   8.005   1.770   2.350  0.1974 -0.1087  0.2681
 6951SOL     OW21430   4.275   6.503   2.082  0.1343  0.5086  0.0338
 6951SOL    HW121431   4.254   6.513   1.990 -1.2877  0.2368  0.3035
 6951SOL    HW221432   4.193   6.478   2.123  0.9757 -0.4484  1.2215
 6952SOL     OW21433   9.283   2.608   8.635  0.9482  0.2169 -0.1451
 6952SOL    HW121434   9.355   2.565   8.587  0.2613 -0.7365 -0.3592
 6952SOL    HW221435   9.235   2.656   8.567  0.9090  0.1835 -0.1413
 6953SOL     OW21436   1.478   7.216   8.202 -0.0705 -0.1341  0.1951
 6953SOL    HW121437   1.472   7.311   8.208 -1.6642 -0.2382  0.5945
 6953SOL    HW221438   1.435   7.194   8.120  0.9194 -0.4738 -0.2466
 6954SOL     OW21439   7.690   0.992   6.374  0.5767 -0.2135  0.3408
 6954SOL    HW121440   7.782   1.006   6.397  0.9521 -2.1248  0.1924
 6954SOL    HW221441   7.642   1.014   6.453  1.1756  0.6613  0.4685
 6955SOL     OW21442   2.653   3.407   9.233 -0.1363  0.2926 -0.2041
 6955SOL    HW121443   2.689   3.413   9.144 -1.0639 -0.2037 -0.6258
 6955SOL    HW221444   2.673   3.492   9.273  0.5815  0.4015 -0.7643
 6956SOL     OW21445   0.912   0.482   1.281 -0.4903 -0.5134 -0.1583
 6956SOL    HW121446   0.994   0.531   1.279 -0.4839 -0.4003  1.4419
 6956SOL    HW221447   0.844   0.547   1.264 -0.3414 -0.3496 -0.1249
 6957SOL     OW21448   0.894   2.947   1.877  0.5420 -0.4561  0.2396
 6957SOL    HW121449   0.824   2.885   1.857  1.2232 -1.0971 -0.1895
 6957SOL    HW221450   0.959   2.895   1.925  0.7214  0.1380  0.6529
 6958SOL     OW21451   6.332   2.742   1.353 -0.4093 -0.4009 -0.0866
 6958SOL    HW121452   6.424   2.760   1.336 -0.5953 -0.3826 -1.1150
 6958SOL    HW221453   6.328   2.729   1.448  0.5387  0.2177  0.0554
 6959SOL     OW21454   2.452   0.229   1.749 -0.6715 -0.3270  0.1535
 6959SOL    HW121455   2.511   0.155   1.764 -1.3810 -0.8541  0.4244
 6959SOL    HW221456   2.501   0.305   1.779 -0.9790 -1.0253  2.6076
 6960SOL     OW21457   2.772   4.619   9.105 -0.0044  0.0281 -0.1955
 6960SOL    HW121458   2.738   4.609   9.016 -0.7431  1.2106 -0.0641
 6960SOL    HW221459   2.695   4.633   9.159  0.5753  1.4116  0.3188
 6961SOL     OW21460   7.052   7.221   0.836  0.4955  0.4681  0.4421
 6961SOL    HW121461   7.004   7.296   0.802  0.2276  0.5236  0.9344
 6961SOL    HW221462   7.061   7.239   0.930  0.9980  0.1967  0.4483
 6962SOL     OW21463   1.868   3.190   5.678 -0.0188  0.8256  0.9415
 6962SOL    HW121464   1.944   3.133   5.671 -0.0668  0.8186  0.4178
 6962SOL    HW221465   1.901   3.270   5.718 -0.1164  0.1335  2.4668
 6963SOL     OW21466   8.723   6.856   2.394 -0.2803  0.7949 -0.2045
 6963SOL    HW121467   8.628   6.856   2.406 -0.3832 -2.2666  0.0109
 6963SOL    HW221468   8.756   6.914   2.462 -1.9465  0.7566  0.6869
 6964SOL     OW21469   0.488   9.911   8.480  0.0050 -0.6384  0.6729
 6964SOL    HW121470   0.425   9.913   8.407  0.1150 -1.0665  0.5662
 6964SOL    HW221471   0.494  10.003   8.508  0.0884 -0.4408  0.0319
 6965SOL     OW21472   1.703   7.515   4.151 -0.0758 -0.0484  0.3806
 6965SOL    HW121473   1.708   7.548   4.241 -0.1206  0.7800  0.0958
 6965SOL    HW221474   1.678   7.423   4.160  0.4939 -0.1300  1.2340
 6966SOL     OW21475   7.230   1.653   0.637 -0.7383  0.1963  0.1644
 6966SOL    HW121476   7.299   1.594   0.606  0.1633  0.3368  1.8151
 6966SOL    HW221477   7.187   1.684   0.556  0.6211 -0.4876 -0.8613
 6967SOL     OW21478   1.227   2.705   0.341  0.3032 -0.1363  0.3435
 6967SOL    HW121479   1.310   2.706   0.293  0.0139 -0.7944 -0.1816
 6967SOL    HW221480   1.163   2.741   0.279 -0.2305 -1.7449 -0.0868
 6968SOL     OW21481   2.783   2.644   1.082 -0.0440 -0.1138 -0.3095
 6968SOL    HW121482   2.780   2.696   1.002 -1.7415 -2.0350 -1.5997
 6968SOL    HW221483   2.822   2.561   1.054 -1.5785 -1.1844  0.5961
 6969SOL     OW21484   7.351   6.510   8.182 -0.9979 -0.3157  0.3452
 6969SOL    HW121485   7.387   6.461   8.256 -1.4865 -0.8965  0.2098
 6969SOL    HW221486   7.331   6.597   8.218 -2.2731 -0.9275  1.2121
 6970SOL     OW21487   8.645   2.210   3.249 -0.5720  0.4272 -0.2923
 6970SOL    HW121488   8.692   2.269   3.190 -1.7125 -0.2032 -1.9220
 6970SOL    HW221489   8.709   2.145   3.274  0.3400  1.5664  0.4307
 6971SOL     OW21490   0.296   5.098   7.990  0.3157 -0.3382  0.8863
 6971SOL    HW121491   0.272   5.009   8.017 -2.5184 -0.5443 -1.6262
 6971SOL    HW221492   0.240   5.114   7.913  1.4473  3.2631  0.6571
 6972SOL     OW21493   8.131   2.177   6.960  0.5277  0.1314  0.6953
 6972SOL    HW121494   8.092   2.125   6.889 -0.6208  0.4675  1.0595
 6972SOL    HW221495   8.219   2.198   6.929  0.5461 -0.9178 -0.0220
 6973SOL     OW21496   3.205   9.649   3.809 -0.1163 -0.4684 -0.1244
 6973SOL    HW121497   3.243   9.733   3.782 -0.4551 -1.0006 -2.4431
 6973SOL    HW221498   3.275   9.585   3.792  0.6315 -0.6025  2.8521
 6974SOL     OW21499   9.077   3.967   7.886 -0.2574  0.6864 -0.2573
 6974SOL    HW121500   9.033   3.992   7.967 -0.6489  0.9095 -0.5389
 6974SOL    HW221501   9.112   3.880   7.903 -1.3983  0.2142 -0.2628
 6975SOL     OW21502   8.393   7.431   1.218 -0.0105  0.2561 -0.1990
 6975SOL    HW121503   8.331   7.489   1.174 -1.4141 -1.4662 -0.6282
 6975SOL    HW221504   8.375   7.344   1.180  2.8195 -0.2941 -0.4726
 6976SOL     OW21505   3.547   5.621   0.712  0.4624 -0.1058 -0.1112
 6976SOL    HW121506   3.517   5.677   0.783 -0.9920 -0.6811 -0.2341
 6976SOL    HW221507   3.470   5.609   0.657  1.5399  0.2354 -1.7401
 6977SOL     OW21508   7.021   4.190   2.246  0.1400  0.0395  0.1826
 6977SOL    HW121509   7.066   4.254   2.301  0.0385  1.2463 -1.0690
 6977SOL    HW221510   7.081   4.117   2.238 -0.2166 -0.5978  2.6272
 6978SOL     OW21511   2.408   9.448   2.726 -0.9106  0.0418 -0.1712
 6978SOL    HW121512   2.382   9.418   2.638 -0.1563 -0.6114 -0.1808
 6978SOL    HW221513   2.504   9.442   2.726 -0.8475  0.9350  0.3843
 6979SOL     OW21514   1.302   4.464   2.418 -0.1768  0.2297  0.2151
 6979SOL    HW121515   1.212   4.457   2.387  0.1992 -3.0350 -0.5714
 6979SOL    HW221516   1.297   4.444   2.512 -0.4019  1.5279  0.4899
 6980SOL     OW21517   9.938   7.746   1.824  0.4383  0.1120 -0.1883
 6980SOL    HW121518   9.981   7.737   1.909  2.2718  2.0528 -0.8106
 6980SOL    HW221519   9.930   7.840   1.810  0.2341 -0.1378 -2.1758
 6981SOL     OW21520   5.898   4.225   9.630 -0.1970 -0.3351 -0.3331
 6981SOL    HW121521   5.864   4.171   9.559 -0.2332  2.0908 -2.2825
 6981SOL    HW221522   5.959   4.285   9.588 -0.0772  1.0959  1.7206
 6982SOL     OW21523   2.190   4.524   3.990 -0.4583 -0.2779 -0.5853
 6982SOL    HW121524   2.266   4.556   4.037 -0.5398 -1.5139  0.4279
 6982SOL    HW221525   2.222   4.449   3.940 -0.8005 -0.1903 -0.9409
 6983SOL     OW21526   2.657   4.166   1.849 -0.5968  0.4900  0.1150
 6983SOL    HW121527   2.711   4.154   1.771  0.7155 -2.8761  1.3798
 6983SOL    HW221528   2.679   4.092   1.906 -3.4085  1.3520  2.5924
 6984SOL     OW21529   5.961   8.442   3.995  0.6073  0.0081  0.0788
 6984SOL    HW121530   5.886   8.389   3.971  0.5146 -0.5973  1.6358
 6984SOL    HW221531   5.957   8.518   3.936 -0.8580 -0.3113 -0.2543
 6985SOL     OW21532   4.128   7.785   2.952  0.2598 -0.1293 -0.0387
 6985SOL    HW121533   4.067   7.804   2.881  1.8653 -0.6226 -1.5935
 6985SOL    HW221534   4.188   7.720   2.917 -1.3245 -3.7011  3.0873
 6986SOL     OW21535   0.614   5.141   7.923  0.2230  0.4610 -0.6813
 6986SOL    HW121536   0.574   5.217   7.880  2.2051  0.8260 -1.9864
 6986SOL    HW221537   0.551   5.117   7.991 -1.5685  1.8069 -1.7548
 6987SOL     OW21538   0.323   5.000   9.988  0.1696  0.4847  0.1622
 6987SOL    HW121539   0.406   5.036   9.956  0.4102  0.4525  0.7357
 6987SOL    HW221540   0.256   5.047   9.939  0.5321  0.2109 -0.6225
 6988SOL     OW21541   8.873   7.881   9.382  0.2268  0.4682  0.1870
 6988SOL    HW121542   8.809   7.880   9.453  0.2912  0.2909  0.2442
 6988SOL    HW221543   8.947   7.830   9.416  0.0987  0.0522 -0.1515
 6989SOL     OW21544   9.779   8.466   9.238 -0.2314 -0.8346  0.1306
 6989SOL    HW121545   9.801   8.408   9.166  1.3591 -0.3981  0.2198
 6989SOL    HW221546   9.778   8.554   9.199  1.7527 -0.4604  0.7823
 6990SOL     OW21547   5.680   4.919   9.945  0.0598 -0.3803  0.5205
 6990SOL    HW121548   5.695   4.971   9.867  0.1098 -0.7240  0.2985
 6990SOL    HW221549   5.601   4.868   9.924  0.2254 -0.6663  0.5916
 6991SOL     OW21550   4.378   7.416   6.130 -0.4575  0.2931  0.0101
 6991SOL    HW121551   4.419   7.336   6.097 -0.3591  0.0536  0.7081
 6991SOL    HW221552   4.361   7.468   6.051 -1.8650 -1.0350 -0.6316
 6992SOL     OW21553   3.770   7.909   7.698 -0.1755 -0.4049 -0.0424
 6992SOL    HW121554   3.834   7.840   7.712 -0.0152 -0.5879 -1.5601
 6992SOL    HW221555   3.693   7.880   7.746  1.1840  0.4124  2.9153
 6993SOL     OW21556   1.180   9.126   9.217  0.7198 -0.6237 -0.2296
 6993SOL    HW121557   1.252   9.170   9.263  2.9669 -2.1087 -2.1217
 6993SOL    HW221558   1.132   9.197   9.174 -0.5857  0.6659  2.9952
 6994SOL     OW21559   2.496   3.312   5.218 -0.3042  0.0749  0.1239
 6994SOL    HW121560   2.401   3.316   5.224 -0.4337  0.5592 -1.7245
 6994SOL    HW221561   2.517   3.352   5.134  1.4306 -1.3127 -0.1661
 6995SOL     OW21562   0.906   8.504   8.503 -0.1801 -0.3643  0.3339
 6995SOL    HW121563   0.945   8.423   8.537  1.7708  0.6905  0.7112
 6995SOL    HW221564   0.895   8.488   8.410 -0.0944 -1.1617  0.4513
 6996SOL     OW21565   3.033   1.266   3.989  0.4126 -0.7338 -0.0086
 6996SOL    HW121566   3.026   1.259   4.084  0.1221 -0.6641 -0.0233
 6996SOL    HW221567   3.118   1.308   3.974 -0.1478  0.5680  0.2848
 6997SOL     OW21568   8.258   7.801   1.207  0.0034  0.1165  0.6120
 6997SOL    HW121569   8.254   7.744   1.130  3.6667  0.1126  0.2461
 6997SOL    HW221570   8.185   7.772   1.261  0.1375 -3.2196 -0.7113
 6998SOL     OW21571   8.352   0.708   9.193 -0.1684  0.1297  0.4399
 6998SOL    HW121572   8.436   0.754   9.186  0.8982 -1.7161  0.4022
 6998SOL    HW221573   8.299   0.744   9.123  0.3602  1.7673  0.8373
 6999SOL     OW21574   6.974   3.367   9.692  0.2687  0.1281 -0.1955
 6999SOL    HW121575   6.896   3.350   9.744  0.8164 -0.0665  0.5838
 6999SOL    HW221576   7.047   3.337   9.747  0.8827  0.1762 -0.9594
 7000SOL     OW21577   4.160   0.436   9.825  0.0035 -0.6705 -0.1477
 7000SOL    HW121578   4.198   0.517   9.860 -0.8869 -0.0028 -0.6874
 7000SOL    HW221579   4.104   0.465   9.753 -1.0104 -1.6901  0.2009
 7001SOL     OW21580   7.748   1.688   5.931  0.1285 -0.1973 -0.4713
 7001SOL    HW121581   7.818   1.623   5.918  0.2554 -0.4631  1.3831
 7001SOL    HW221582   7.765   1.724   6.017 -1.8730 -0.0569 -0.1013
 7002SOL     OW21583   4.384   1.974   9.087  0.1331 -0.3965 -0.2364
 7002SOL    HW121584   4.479   1.982   9.093  0.3701 -2.7738  0.4586
 7002SOL    HW221585   4.353   1.998   9.174  0.5975 -3.7892  1.0254
 7003SOL     OW21586   9.090   9.475   3.162 -0.1831 -0.3492 -0.0876
 7003SOL    HW121587   9.063   9.555   3.116  0.0618 -0.4330 -0.3832
 7003SOL    HW221588   9.179   9.495   3.194 -0.6416 -0.0130  1.0296
 7004SOL     OW21589   0.648   4.252  -0.004  0.4924 -0.0941 -0.2780
 7004SOL    HW121590   0.715   4.225   0.058  0.5892 -0.6851 -0.6393
 7004SOL    HW221591   0.657   4.348  -0.008  2.0627 -0.2283 -1.1446
 7005SOL     OW21592   0.950   0.401   8.332 -0.0654 -0.0099  0.2189
 7005SOL    HW121593   0.943   0.482   8.281  0.4833  0.1445  0.3847
 7005SOL    HW221594   0.955   0.331   8.267 -1.2796  0.0184  0.0763
 7006SOL     OW21595   7.981   8.523   5.440  0.1891 -0.5736 -0.6913
 7006SOL    HW121596   7.925   8.458   5.483  0.7991  0.3250  1.6098
 7006SOL    HW221597   8.069   8.505   5.473  0.3922  1.2693 -0.1035
 7007SOL     OW21598   3.382   2.291   3.933 -0.3899  0.3363  0.4614
 7007SOL    HW121599   3.434   2.230   3.986 -1.3242 -0.6240  0.3121
 7007SOL    HW221600   3.354   2.359   3.994  0.4024  0.4584  0.7023
 7008SOL     OW21601   3.371   7.666   1.676 -0.1020 -0.2171 -0.1896
 7008SOL    HW121602   3.383   7.749   1.630 -0.8060  0.6793  1.1887
 7008SOL    HW221603   3.296   7.680   1.733 -0.5792 -1.9865 -0.2934
 7009SOL     OW21604   8.630   9.153   9.637  0.1520 -0.8693 -0.2558
 7009SOL    HW121605   8.618   9.180   9.546 -1.8791 -0.6744  0.0281
 7009SOL    HW221606   8.637   9.235   9.685  1.2367 -0.9730 -0.2081
 7010SOL     OW21607   3.792   4.944   2.644 -1.0837  0.0894 -0.5527
 7010SOL    HW121608   3.796   4.878   2.575 -1.4319 -0.8629  0.3116
 7010SOL    HW221609   3.869   4.927   2.698 -1.6163 -0.1928  0.1550
 7011SOL     OW21610   6.609   5.898   4.211 -0.4705 -0.7594  0.0321
 7011SOL    HW121611   6.574   5.971   4.159 -0.6743  0.0916  1.3243
 7011SOL    HW221612   6.635   5.833   4.146  1.1876  1.0897 -1.2656
 7012SOL     OW21613   6.879   8.775   0.884 -0.2267 -0.1166 -0.2319
 7012SOL    HW121614   6.845   8.777   0.794  0.3433 -1.8521 -0.5316
 7012SOL    HW221615   6.821   8.833   0.933 -1.9352 -0.8394 -1.2899
 7013SOL     OW21616   4.944   3.668   1.780 -0.0233  0.5976 -0.4831
 7013SOL    HW121617   4.998   3.593   1.755 -0.3716  1.0044 -2.6268
 7013SOL    HW221618   4.854   3.634   1.778 -0.0240 -0.4515  4.3696
 7014SOL     OW21619   3.068   9.088   2.619  0.3432  0.2565 -0.2418
 7014SOL    HW121620   3.069   9.163   2.560  0.8963  1.5211  1.3105
 7014SOL    HW221621   3.157   9.053   2.615  1.0212  1.6858  1.4395
 7015SOL     OW21622   8.033   6.334   8.274  0.0103 -0.0606  0.3967
 7015SOL    HW121623   7.982   6.299   8.201  0.2218 -1.8218  1.0600
 7015SOL    HW221624   8.036   6.263   8.338 -0.0947  1.4023  2.1089
 7016SOL     OW21625   0.924   5.517   3.468  0.2156  0.3736  0.2800
 7016SOL    HW121626   0.947   5.425   3.478  0.2427  0.2845 -0.5126
 7016SOL    HW221627   0.983   5.564   3.526  0.2185 -0.1083  0.6680
 7017SOL     OW21628   1.284   9.927   0.110  0.0087 -0.4798  0.7642
 7017SOL    HW121629   1.207   9.893   0.154  0.0017 -0.7713  0.5324
 7017SOL    HW221630   1.283  10.021   0.127 -0.5877 -0.4320  0.4714
 7018SOL     OW21631   1.018   3.074   2.459  0.1970 -0.3458  0.2597
 7018SOL    HW121632   1.055   3.059   2.372  0.3894 -2.5905  0.6767
 7018SOL    HW221633   1.062   3.153   2.490  0.2191  0.4225 -1.6039
 7019SOL     OW21634   1.973   6.845   9.158  0.3134  0.4128  0.0849
 7019SOL    HW121635   2.028   6.766   9.158 -0.3710 -0.0681  0.1323
 7019SOL    HW221636   2.028   6.912   9.118  0.8304 -0.1388 -0.1453
 7020SOL     OW21637   8.996   4.854   9.513 -0.5989  0.0725 -0.1013
 7020SOL    HW121638   8.997   4.872   9.419 -2.1185  0.1243 -0.1305
 7020SOL    HW221639   8.991   4.941   9.554 -0.9265  0.0159 -0.0145
 7021SOL     OW21640   5.012   6.510   3.731  0.1522  0.1345 -0.3948
 7021SOL    HW121641   5.012   6.567   3.808 -1.5390 -1.5826  0.9743
 7021SOL    HW221642   5.045   6.426   3.763 -0.1334 -0.4842 -1.6630
 7022SOL     OW21643   2.516   6.614   2.876 -0.7514  0.0001  0.8774
 7022SOL    HW121644   2.543   6.689   2.823 -1.5824 -0.0637  0.3589
 7022SOL    HW221645   2.596   6.563   2.886  0.0261  1.3164  1.8820
 7023SOL     OW21646   4.141   8.420   5.634  0.1258 -0.4423  0.2143
 7023SOL    HW121647   4.056   8.382   5.611  0.3280  0.9763 -3.5157
 7023SOL    HW221648   4.119   8.495   5.689 -1.0473 -0.2140 -0.5193
 7024SOL     OW21649   7.766   6.274   8.448 -0.5441 -0.0740  0.7920
 7024SOL    HW121650   7.795   6.189   8.483  1.6392  0.3716  0.2454
 7024SOL    HW221651   7.828   6.337   8.486  1.0275  0.6237 -2.5379
 7025SOL     OW21652   0.306   5.302   6.609  0.2672  0.2049 -0.2663
 7025SOL    HW121653   0.314   5.252   6.528  0.0691 -1.2179  0.5605
 7025SOL    HW221654   0.259   5.244   6.668 -0.1336  1.4569  0.6871
 7026SOL     OW21655   7.599   6.757   4.414  0.1316 -0.4567 -0.2317
 7026SOL    HW121656   7.689   6.773   4.443  0.7233 -1.9598 -1.1772
 7026SOL    HW221657   7.574   6.675   4.457 -0.6042 -0.3330 -0.4130
 7027SOL     OW21658   5.791   6.133   4.554 -0.5487  0.0825  0.2300
 7027SOL    HW121659   5.790   6.056   4.611 -1.1414 -0.2135 -0.1645
 7027SOL    HW221660   5.720   6.188   4.585 -1.3583 -0.4258 -0.6654
 7028SOL     OW21661   8.474   3.955   7.180 -0.6698  0.3090 -0.2668
 7028SOL    HW121662   8.391   3.998   7.158 -0.4280  0.8186 -0.1722
 7028SOL    HW221663   8.531   4.025   7.211 -0.1153 -0.0019 -0.5715
 7029SOL     OW21664   4.511   6.999   1.287 -0.5141  0.0140  0.1404
 7029SOL    HW121665   4.502   6.926   1.348 -1.0535  1.2028  1.5522
 7029SOL    HW221666   4.555   7.068   1.338 -0.6344  0.9129 -0.9262
 7030SOL     OW21667   5.942   6.290   0.230  0.0956 -0.4732  0.2493
 7030SOL    HW121668   5.991   6.229   0.286  2.9733 -0.0364 -1.5880
 7030SOL    HW221669   5.892   6.233   0.171 -0.7706 -0.9485  1.4069
 7031SOL     OW21670   7.004   2.565   6.716 -0.1646 -0.9106  0.4833
 7031SOL    HW121671   7.028   2.627   6.784 -0.4008 -0.8912  0.5487
 7031SOL    HW221672   6.935   2.609   6.666  0.8057 -0.4461 -0.4813
 7032SOL     OW21673   1.300   2.250   8.304 -0.3137  0.5757 -0.1374
 7032SOL    HW121674   1.252   2.302   8.239  0.0818  2.2735  0.8741
 7032SOL    HW221675   1.320   2.312   8.374  2.5154 -0.2941 -0.0638
 7033SOL     OW21676   8.309   3.881   5.408 -0.1186 -0.2080  0.3537
 7033SOL    HW121677   8.255   3.904   5.333 -2.4231 -2.6073  1.1210
 7033SOL    HW221678   8.357   3.961   5.429  1.0398  0.4513 -3.8717
 7034SOL     OW21679   7.510   0.902   1.995 -0.1388 -0.0789 -0.1775
 7034SOL    HW121680   7.443   0.950   2.043 -0.2752  1.9247 -2.1963
 7034SOL    HW221681   7.500   0.811   2.023 -1.0508  0.7597  2.4859
 7035SOL     OW21682   4.353   3.344   4.255  0.4259  0.0188 -0.3285
 7035SOL    HW121683   4.327   3.257   4.286 -2.5522  0.6080 -0.8563
 7035SOL    HW221684   4.449   3.342   4.255  0.4642 -3.1238  0.0179
 7036SOL     OW21685   5.352   5.268   0.360 -0.0625  0.5495 -0.2638
 7036SOL    HW121686   5.286   5.210   0.398  0.7960 -0.0156  0.3987
 7036SOL    HW221687   5.422   5.272   0.426 -0.3985  2.9352  0.0632
 7037SOL     OW21688   0.776   3.764   2.480 -0.4167  0.4301 -0.0586
 7037SOL    HW121689   0.710   3.726   2.538 -0.8362  0.0268 -0.7911
 7037SOL    HW221690   0.747   3.854   2.465 -0.3761  0.4943  0.2500
 7038SOL     OW21691   7.773   2.341   8.754 -0.2669 -0.3628  0.2688
 7038SOL    HW121692   7.860   2.358   8.791  1.3080 -2.3997 -2.1749
 7038SOL    HW221693   7.729   2.426   8.759  2.7030  1.3943 -0.4724
 7039SOL     OW21694   5.084   1.013   5.856 -0.4593  0.3677 -0.3477
 7039SOL    HW121695   5.000   0.968   5.858  0.3105 -1.1088  1.7448
 7039SOL    HW221696   5.068   1.096   5.901 -0.4492 -0.6467  1.5914
 7040SOL     OW21697   6.261   2.223   2.087  0.3208  0.4331  0.7862
 7040SOL    HW121698   6.208   2.244   2.009 -0.1269  1.1502  1.2720
 7040SOL    HW221699   6.278   2.129   2.079 -1.3741  0.0837  0.8128
 7041SOL     OW21700   8.362   7.294   8.156 -0.0979 -0.2490 -0.0575
 7041SOL    HW121701   8.272   7.304   8.186  0.0563 -2.4309  1.4005
 7041SOL    HW221702   8.358   7.224   8.091  0.4555  0.1842 -0.5700
 7042SOL     OW21703   7.768   4.417   1.725  0.5514 -0.0880  0.1107
 7042SOL    HW121704   7.736   4.505   1.706  1.5016  0.6475  1.6751
 7042SOL    HW221705   7.857   4.416   1.691  0.3915 -0.6035 -0.2979
 7043SOL     OW21706   8.118   9.086   8.329 -0.1090  0.2011  0.3325
 7043SOL    HW121707   8.200   9.134   8.312 -0.0878  0.2418  0.5532
 7043SOL    HW221708   8.146   8.996   8.345 -0.1635  0.0661 -0.2902
 7044SOL     OW21709   5.461   8.715   5.006 -0.1201 -0.4119 -0.6560
 7044SOL    HW121710   5.402   8.661   5.059  1.0438 -0.5272  0.5879
 7044SOL    HW221711   5.546   8.673   5.016  1.0775  2.2268  1.3373
 7045SOL     OW21712   8.572   8.308   8.530 -0.0210  0.2804  0.4811
 7045SOL    HW121713   8.555   8.252   8.605  0.2171 -1.1275 -0.4761
 7045SOL    HW221714   8.590   8.394   8.568 -0.7358 -0.1959  1.9687
 7046SOL     OW21715   4.669   6.994   0.083  0.1710  0.0701  0.3958
 7046SOL    HW121716   4.725   7.045   0.140  1.1051  0.6562 -0.9854
 7046SOL    HW221717   4.630   7.058   0.023  0.9078 -0.7149 -0.9878
 7047SOL     OW21718   5.177   1.749   1.040  0.0932  0.2579 -0.2364
 7047SOL    HW121719   5.188   1.809   1.114  2.6851 -0.3407 -0.0172
 7047SOL    HW221720   5.129   1.800   0.975  0.0778  1.7304  0.8636
 7048SOL     OW21721   4.942   3.598   2.613  0.3156 -0.0443  0.0806
 7048SOL    HW121722   4.954   3.662   2.683 -0.0051 -0.7475  0.7857
 7048SOL    HW221723   4.851   3.611   2.584  0.2990 -0.0819  0.1167
 7049SOL     OW21724   3.098   4.164   5.484  0.2533 -0.0979  0.3607
 7049SOL    HW121725   3.152   4.193   5.410  0.4746 -1.5800 -0.0867
 7049SOL    HW221726   3.067   4.078   5.458  0.2891 -0.6261  1.9797
 7050SOL     OW21727   0.171   3.495   5.703 -0.4027  0.1880  0.1840
 7050SOL    HW121728   0.142   3.412   5.664  1.1944 -0.4262  0.2477
 7050SOL    HW221729   0.135   3.562   5.644 -1.0100 -0.5692 -0.3410
 7051SOL     OW21730   3.209   6.748   3.337  0.5737 -0.4923  0.1890
 7051SOL    HW121731   3.281   6.748   3.399  1.5042  3.3979 -0.6432
 7051SOL    HW221732   3.223   6.826   3.283 -2.8974 -0.9292 -1.6652
 7052SOL     OW21733   6.336   9.550   9.420  0.0308  0.7817  0.0553
 7052SOL    HW121734   6.327   9.471   9.473 -0.6785  0.0736 -1.0840
 7052SOL    HW221735   6.303   9.620   9.475 -0.0858  0.1703  0.7809
 7053SOL     OW21736   2.443   2.785   0.775 -0.0392  0.2593 -0.2782
 7053SOL    HW121737   2.382   2.730   0.824 -0.4536  1.1022  0.1838
 7053SOL    HW221738   2.394   2.865   0.757  1.1009  1.1919  0.5850
 7054SOL     OW21739   7.582   2.214   3.323 -0.1334 -0.0222  0.1937
 7054SOL    HW121740   7.598   2.308   3.318 -1.1338  0.0958 -2.0870
 7054SOL    HW221741   7.606   2.181   3.236 -0.9427 -1.6800  0.5538
 7055SOL     OW21742   3.559   2.556   3.337  0.2828  0.1034  0.4059
 7055SOL    HW121743   3.602   2.481   3.379  0.6565  0.2905  0.3661
 7055SOL    HW221744   3.628   2.622   3.331 -0.2913  0.8047  1.3216
 7056SOL     OW21745   1.552   5.309   2.363  0.5642 -0.2321 -0.2635
 7056SOL    HW121746   1.559   5.277   2.452  0.9690  2.2952  0.7104
 7056SOL    HW221747   1.487   5.253   2.322 -0.1331 -1.0311  1.8183
 7057SOL     OW21748   6.104   6.261   7.966 -0.7526  0.2490  0.0323
 7057SOL    HW121749   6.146   6.213   8.037 -2.5618 -1.2016  0.2040
 7057SOL    HW221750   6.109   6.353   7.992  0.8374 -0.0197  0.7781
 7058SOL     OW21751   8.045   8.011   9.026 -0.0720  0.1916  0.0713
 7058SOL    HW121752   8.090   8.082   8.980 -1.1933  0.3877 -0.7739
 7058SOL    HW221753   7.988   8.055   9.089  0.7708 -0.0491  1.0302
 7059SOL     OW21754   1.521   0.243   8.121  0.3931  0.7213 -0.1284
 7059SOL    HW121755   1.604   0.252   8.075 -0.2273 -0.2481 -1.4720
 7059SOL    HW221756   1.455   0.272   8.058 -0.3928  0.3362  0.4989
 7060SOL     OW21757   4.271   1.119   9.325  0.3452  0.4492  0.4886
 7060SOL    HW121758   4.359   1.156   9.320  0.6719 -0.4454 -0.7519
 7060SOL    HW221759   4.276   1.037   9.277 -1.2821  0.6094 -0.0326
 7061SOL     OW21760   1.569   5.783   4.598  0.5198 -0.6906 -0.5826
 7061SOL    HW121761   1.620   5.736   4.532  0.1161 -1.7526 -0.1674
 7061SOL    HW221762   1.610   5.869   4.604  1.6279 -1.1767 -0.9723
 7062SOL     OW21763   8.950   5.980   3.777  0.2534  0.0142  0.0554
 7062SOL    HW121764   8.899   6.049   3.821 -0.4607 -0.2027 -0.4133
 7062SOL    HW221765   9.041   6.004   3.794  0.0661  1.7912 -1.1477
 7063SOL     OW21766   8.362   2.757   7.274  0.7172 -0.6401  0.4460
 7063SOL    HW121767   8.310   2.838   7.272  1.6828  0.0065 -0.9864
 7063SOL    HW221768   8.343   2.717   7.358  0.4785  1.2724  1.3419
 7064SOL     OW21769   0.631   8.808   4.447  0.2648 -0.1660  0.3287
 7064SOL    HW121770   0.723   8.829   4.429  0.6022 -1.9958 -0.2043
 7064SOL    HW221771   0.607   8.869   4.517  1.2165  1.8236 -0.9722
 7065SOL     OW21772   1.492   3.355   3.696 -0.2074 -0.0584  0.0150
 7065SOL    HW121773   1.410   3.405   3.699 -0.1269  0.0657  0.1762
 7065SOL    HW221774   1.467   3.272   3.656 -0.3721  0.0539 -0.1215
 7066SOL     OW21775   2.015   9.207   3.897  0.2457  0.0136 -0.2189
 7066SOL    HW121776   2.022   9.194   3.802 -0.2457  0.3419 -0.3040
 7066SOL    HW221777   2.064   9.134   3.935  0.7354  0.0711 -0.7280
 7067SOL     OW21778   7.908   3.169   7.718 -0.7687  0.3366  0.0110
 7067SOL    HW121779   7.856   3.233   7.766 -2.2244  0.9559 -2.2592
 7067SOL    HW221780   7.997   3.204   7.719 -1.0860  1.1586  0.7798
 7068SOL     OW21781   6.972   3.229   0.570  0.3143 -0.0539 -0.0801
 7068SOL    HW121782   6.926   3.301   0.527 -0.6387 -0.3146  0.4713
 7068SOL    HW221783   7.057   3.224   0.526  0.6304  1.7709  0.2486
 7069SOL     OW21784   5.124   6.635   6.741 -1.0897 -0.6350  0.3697
 7069SOL    HW121785   5.100   6.675   6.824 -2.8659 -1.9908  0.5688
 7069SOL    HW221786   5.208   6.675   6.719 -1.5366  1.2347  1.7948
 7070SOL     OW21787   7.187   7.146   6.691 -0.3632  0.0089 -0.4320
 7070SOL    HW121788   7.252   7.075   6.688 -1.2345 -0.8588  0.4762
 7070SOL    HW221789   7.141   7.140   6.608  0.8536  0.7826 -1.1867
 7071SOL     OW21790   9.590   5.886   6.396  0.5235  0.3689 -0.1884
 7071SOL    HW121791   9.649   5.952   6.358  0.0527  0.7237 -0.2988
 7071SOL    HW221792   9.578   5.823   6.325  2.8416 -1.1200  0.6233
 7072SOL     OW21793   4.933   4.521   2.938 -0.1933  0.1893 -0.1767
 7072SOL    HW121794   4.961   4.562   3.020 -0.6770  0.3269 -0.0747
 7072SOL    HW221795   4.949   4.428   2.952  0.3874  0.2837 -0.1959
 7073SOL     OW21796   7.084   9.123   8.841 -0.5149  0.4939  0.4076
 7073SOL    HW121797   7.160   9.088   8.887  0.8246  2.6058 -0.0923
 7073SOL    HW221798   7.010   9.072   8.875  0.7671  0.1298  2.8616
 7074SOL     OW21799   0.544   7.339   0.429 -0.1906  0.1758 -0.1879
 7074SOL    HW121800   0.532   7.329   0.335 -0.9946  0.5007 -0.1291
 7074SOL    HW221801   0.532   7.250   0.464 -1.0511  0.2457 -0.2818
 7075SOL     OW21802   1.072   6.332   0.463  0.1001 -0.2023  0.2350
 7075SOL    HW121803   1.072   6.403   0.399  0.9215 -0.4237 -0.0363
 7075SOL    HW221804   0.981   6.305   0.471 -0.1616  0.6268  0.0553
 7076SOL     OW21805   7.225   1.319   8.857  0.0607 -0.0247 -0.1374
 7076SOL    HW121806   7.234   1.225   8.841 -2.0268  0.0836 -2.6596
 7076SOL    HW221807   7.292   1.359   8.802 -0.8838  0.0019 -1.3177
 7077SOL     OW21808   8.190   4.413   7.723  0.4713  0.6136 -0.1083
 7077SOL    HW121809   8.238   4.338   7.688  0.7693  0.4376  0.6508
 7077SOL    HW221810   8.103   4.406   7.685  0.8622  0.5892 -1.0248
 7078SOL     OW21811   6.865   1.194   2.832 -0.0598 -0.0203  0.1334
 7078SOL    HW121812   6.921   1.230   2.901  1.0192 -0.0096 -0.7246
 7078SOL    HW221813   6.888   1.101   2.829  1.1388  0.2817 -1.3102
 7079SOL     OW21814   7.789   3.160   4.683 -0.1934  0.0577  0.4256
 7079SOL    HW121815   7.799   3.087   4.622 -0.4266 -0.4664  1.0047
 7079SOL    HW221816   7.864   3.152   4.742 -0.9279 -0.5088  1.3002
 7080SOL     OW21817   3.254   7.083   3.656 -0.3276  0.4097 -0.1256
 7080SOL    HW121818   3.245   7.178   3.662  2.3986  0.8076 -0.7223
 7080SOL    HW221819   3.329   7.063   3.712  0.2555 -1.1109 -1.3684
 7081SOL     OW21820   1.286   3.670   5.726  0.1513 -0.4273 -0.4505
 7081SOL    HW121821   1.313   3.754   5.763 -0.3227 -0.8177  0.8300
 7081SOL    HW221822   1.347   3.656   5.653  0.8676  0.5556 -0.0725
 7082SOL     OW21823   1.693   7.261   8.606 -0.2223  0.0072  0.0087
 7082SOL    HW121824   1.701   7.208   8.527  1.9230  1.9787 -1.2095
 7082SOL    HW221825   1.663   7.346   8.574 -2.3960  0.0073  1.7642
 7083SOL     OW21826   7.293   8.436   5.316  0.0022  0.0947  0.1910
 7083SOL    HW121827   7.295   8.343   5.340 -0.2895  0.2010  0.6244
 7083SOL    HW221828   7.230   8.441   5.245  0.7379 -0.1908 -0.5043
 7084SOL     OW21829   6.321   6.964   2.567  0.0274  0.1098  0.2571
 7084SOL    HW121830   6.378   6.919   2.504 -0.5224  0.6630 -0.6609
 7084SOL    HW221831   6.332   6.914   2.648  1.3622 -0.1484 -0.0432
 7085SOL     OW21832   0.395   1.958   9.252  0.2680  0.8524  0.1428
 7085SOL    HW121833   0.364   1.881   9.299  1.1211  0.3978 -0.0204
 7085SOL    HW221834   0.335   1.968   9.179 -1.4034  1.8700  1.5673
 7086SOL     OW21835   2.880   1.112   0.542  0.7479  0.4976  0.6455
 7086SOL    HW121836   2.875   1.203   0.514  0.2848 -0.0045 -1.1084
 7086SOL    HW221837   2.880   1.115   0.637  0.3734  2.3081  0.6222
 7087SOL     OW21838   3.468   4.400   1.777 -0.7717 -0.0318  0.2878
 7087SOL    HW121839   3.396   4.453   1.811 -0.7075  0.1719  0.1076
 7087SOL    HW221840   3.433   4.359   1.699  0.0984  2.1679 -1.3643
 7088SOL     OW21841   8.667   5.245   0.263  0.6603  0.0315  0.0900
 7088SOL    HW121842   8.639   5.209   0.347 -0.0627 -1.0069 -0.5748
 7088SOL    HW221843   8.664   5.171   0.202 -0.7766  1.1713 -1.3116
 7089SOL     OW21844   2.274   1.691   7.974  0.1315 -0.4016 -0.2237
 7089SOL    HW121845   2.286   1.649   7.889  0.9729 -0.0013 -0.3114
 7089SOL    HW221846   2.297   1.782   7.959  0.3860 -0.3497  0.4611
 7090SOL     OW21847   3.014   7.089   5.802  0.2319  0.2902  0.6718
 7090SOL    HW121848   3.070   7.051   5.735 -0.0284  0.1426  0.5354
 7090SOL    HW221849   3.040   7.180   5.807 -0.0946  0.4247  0.0070
 7091SOL     OW21850   2.009   1.597   8.395 -0.5718 -0.0071  0.0125
 7091SOL    HW121851   2.054   1.655   8.334 -1.3749  0.5319 -0.0854
 7091SOL    HW221852   2.076   1.536   8.425 -0.1396 -0.2130 -1.3241
 7092SOL     OW21853   2.038   9.826   7.262 -0.4379  0.1568 -0.1403
 7092SOL    HW121854   1.951   9.863   7.272 -0.5161 -0.2017  0.5991
 7092SOL    HW221855   2.049   9.769   7.339 -0.0973 -0.8822 -0.9320
 7093SOL     OW21856   3.887   9.825   7.176  0.4063 -0.1054 -0.1143
 7093SOL    HW121857   3.828   9.824   7.252  2.0992 -0.5179  1.2704
 7093SOL    HW221858   3.861   9.748   7.125 -2.2135  1.4000 -1.2067
 7094SOL     OW21859   6.888   9.494   5.789  0.4866  0.4248 -0.5959
 7094SOL    HW121860   6.914   9.483   5.697  1.7711  1.4545 -0.3924
 7094SOL    HW221861   6.895   9.406   5.826  1.1175  0.2013 -1.2137
 7095SOL     OW21862   7.066   4.132   1.225  0.2730  0.6454  0.7572
 7095SOL    HW121863   7.097   4.215   1.262  2.7418  0.0875  0.1299
 7095SOL    HW221864   7.043   4.154   1.134  2.1029  0.4521  0.2191
 7096SOL     OW21865   9.423   6.472   4.694  0.4264 -0.3826 -0.0000
 7096SOL    HW121866   9.334   6.473   4.728  0.1943  0.0195 -0.6046
 7096SOL    HW221867   9.440   6.381   4.671  0.4873 -0.6108  0.9177
 7097SOL     OW21868   7.979   6.010   7.560 -0.0708  0.0364  0.1964
 7097SOL    HW121869   7.887   6.026   7.539  0.1366  1.2857  0.2041
 7097SOL    HW221870   7.989   5.915   7.548 -0.7805  0.1979 -2.0936
 7098SOL     OW21871   0.068   1.854   3.779 -0.4405 -0.3818 -0.3618
 7098SOL    HW121872   0.084   1.788   3.846  2.2268 -1.6529 -2.0757
 7098SOL    HW221873   0.151   1.903   3.773 -0.8737  0.2100 -2.1456
 7099SOL     OW21874   3.848   4.019   1.967  0.2156 -0.3922  0.1229
 7099SOL    HW121875   3.792   4.090   1.935  1.0650 -0.3193 -1.2585
 7099SOL    HW221876   3.912   4.005   1.898  1.5731 -0.8680  1.4095
 7100SOL     OW21877   2.271   6.636   9.945  0.0091 -0.4950 -0.1064
 7100SOL    HW121878   2.198   6.654  10.004  0.6903 -0.5677  0.7811
 7100SOL    HW221879   2.292   6.544   9.962  0.6236 -0.3349  0.0043
 7101SOL     OW21880   4.515   8.742   7.820  0.4938  0.5270  0.0637
 7101SOL    HW121881   4.422   8.718   7.816  1.0993 -1.7644 -2.9554
 7101SOL    HW221882   4.537   8.766   7.730  3.1164 -0.1888  0.4525
 7102SOL     OW21883   7.570   3.514   3.560 -0.0125  0.8920  0.1449
 7102SOL    HW121884   7.539   3.597   3.524  2.5691  1.3037 -1.3659
 7102SOL    HW221885   7.597   3.462   3.484  0.9680 -0.2290  1.2001
 7103SOL     OW21886   6.086   8.962   5.280  0.1447  0.0545  0.2779
 7103SOL    HW121887   6.041   9.047   5.279  0.4154  0.2759  2.3121
 7103SOL    HW221888   6.157   8.972   5.217  0.0385  1.2651  0.3261
 7104SOL     OW21889   0.469   3.110   4.288 -0.2366  0.1904  0.0953
 7104SOL    HW121890   0.541   3.065   4.331  0.5246  1.9522  0.7164
 7104SOL    HW221891   0.510   3.159   4.216 -0.9403  0.4820 -0.1227
 7105SOL     OW21892   1.565   9.530   7.877 -0.1621  0.3150 -0.0103
 7105SOL    HW121893   1.516   9.600   7.922 -1.4823  0.0641 -0.9765
 7105SOL    HW221894   1.554   9.551   7.784 -0.9517 -1.3850 -0.3425
 7106SOL     OW21895   1.335   0.541   3.642  0.0408 -0.5591 -0.0835
 7106SOL    HW121896   1.323   0.459   3.691 -2.1129 -0.9340 -1.0816
 7106SOL    HW221897   1.274   0.602   3.683  1.3707  0.4648  0.4179
 7107SOL     OW21898   5.129   8.551   9.899  0.4661  0.0560  0.7206
 7107SOL    HW121899   5.169   8.475   9.941  0.4951 -1.2875 -1.5998
 7107SOL    HW221900   5.041   8.555   9.938  0.0952 -1.8144  0.1800
 7108SOL     OW21901   5.191   4.454   7.035  0.0391 -0.1549 -0.0351
 7108SOL    HW121902   5.184   4.483   6.944 -0.6361 -1.2711 -0.3588
 7108SOL    HW221903   5.110   4.484   7.076 -0.1701 -0.6323 -0.0951
 7109SOL     OW21904   7.114   8.247   7.918 -0.8990  0.0830  0.5788
 7109SOL    HW121905   7.196   8.282   7.953 -1.7675  1.0802  1.6801
 7109SOL    HW221906   7.063   8.324   7.896 -0.6681 -0.4895 -2.3630
 7110SOL     OW21907   2.461   1.741   0.242 -0.5726 -0.0640 -0.0297
 7110SOL    HW121908   2.414   1.823   0.261 -2.2395 -0.3452 -2.5728
 7110SOL    HW221909   2.516   1.762   0.167  0.1735 -0.9131  0.2600
 7111SOL     OW21910   2.288   5.305   6.445  0.0931  0.7282  0.0200
 7111SOL    HW121911   2.373   5.280   6.407 -0.9361  0.5783 -2.3953
 7111SOL    HW221912   2.246   5.222   6.468  0.1556  0.7427  0.1901
 7112SOL     OW21913   0.284   6.753   0.930 -0.7955 -0.0616 -0.3210
 7112SOL    HW121914   0.357   6.775   0.871 -0.4143 -0.5431 -0.0435
 7112SOL    HW221915   0.238   6.836   0.944  1.4295  0.9395  1.8398
 7113SOL     OW21916   6.553   1.660   5.494 -0.5587 -1.0695  0.0766
 7113SOL    HW121917   6.567   1.754   5.482  2.1658 -1.3310  0.5619
 7113SOL    HW221918   6.510   1.632   5.414 -0.4265  0.4198 -0.5494
 7114SOL     OW21919   0.165   2.188   6.561 -0.7870  0.6169 -0.3072
 7114SOL    HW121920   0.181   2.180   6.655 -1.5092 -0.7505 -0.2678
 7114SOL    HW221921   0.250   2.171   6.521 -0.6706  0.2558  0.0840
 7115SOL     OW21922   0.477   5.141   1.635 -0.6924  0.0849 -0.1730
 7115SOL    HW121923   0.392   5.181   1.614 -0.3027  2.0002  1.5337
 7115SOL    HW221924   0.462   5.094   1.717  0.0439  1.1817  0.6234
 7116SOL     OW21925   9.222   5.434   9.048  0.3447  0.5278 -0.1547
 7116SOL    HW121926   9.192   5.515   9.089  2.6727  2.2635 -1.5754
 7116SOL    HW221927   9.294   5.462   8.991  2.0666 -2.7226  0.1823
 7117SOL     OW21928   7.828   0.950   8.530 -0.1819 -0.4027  0.7350
 7117SOL    HW121929   7.912   0.961   8.486  0.1526 -0.9245  1.2258
 7117SOL    HW221930   7.823   0.857   8.551 -0.5510 -0.2565  1.3623
 7118SOL     OW21931   9.211   5.273   7.360 -0.4163 -0.0922 -0.2021
 7118SOL    HW121932   9.292   5.317   7.385 -0.1717  0.8345 -2.4372
 7118SOL    HW221933   9.143   5.341   7.368 -1.0777 -0.9156  1.8618
 7119SOL     OW21934   8.143   6.721   6.207 -0.2954  0.2047  0.1781
 7119SOL    HW121935   8.094   6.781   6.264 -0.5819 -1.3688  1.6437
 7119SOL    HW221936   8.206   6.679   6.265 -1.1276 -2.0341 -0.4322
 7120SOL     OW21937   4.987   0.947   4.236  0.3678 -0.1975 -0.3212
 7120SOL    HW121938   4.930   0.951   4.312  0.0819  3.2862 -0.5502
 7120SOL    HW221939   4.934   0.906   4.168 -1.0608  0.8917  0.0939
 7121SOL     OW21940   3.420   4.360   6.333  0.4730 -0.2585 -0.0346
 7121SOL    HW121941   3.509   4.394   6.340  0.8178 -0.9756 -0.7760
 7121SOL    HW221942   3.423   4.299   6.258 -0.8489  0.4061 -0.6661
 7122SOL     OW21943   7.341   7.151   2.158 -0.5874 -0.4825 -0.2087
 7122SOL    HW121944   7.352   7.233   2.110  0.6514 -1.3525 -1.5183
 7122SOL    HW221945   7.390   7.163   2.239 -1.1272  0.3481  0.0085
 7123SOL     OW21946   0.678   5.880   0.776 -0.2425  0.0652 -0.6955
 7123SOL    HW121947   0.591   5.908   0.750  0.3569 -0.0148 -2.9723
 7123SOL    HW221948   0.693   5.799   0.727  0.1213 -1.4129  1.6996
 7124SOL     OW21949   8.278   1.389   7.095 -0.0415 -0.1547 -0.2797
 7124SOL    HW121950   8.293   1.415   7.186 -2.0693 -1.5810  0.5506
 7124SOL    HW221951   8.202   1.441   7.068 -0.5010 -0.9501 -0.5568
 7125SOL     OW21952   7.895   6.844   5.543 -0.1812  0.0637  0.6391
 7125SOL    HW121953   7.907   6.897   5.622 -0.0227 -0.2697  0.8433
 7125SOL    HW221954   7.980   6.845   5.500 -0.0995 -0.2499  0.7889
 7126SOL     OW21955   0.101   1.039   8.177 -0.2851 -0.2927  0.0327
 7126SOL    HW121956   0.177   1.057   8.231  0.0505 -1.1091 -0.1591
 7126SOL    HW221957   0.118   0.953   8.138 -0.2584  0.4891 -1.7915
 7127SOL     OW21958   0.914   3.676   3.511  0.1320 -0.6590 -0.3788
 7127SOL    HW121959   0.980   3.634   3.455 -0.3436 -0.5947 -1.0003
 7127SOL    HW221960   0.839   3.689   3.453 -0.4745 -0.8463  0.3602
 7128SOL     OW21961   7.091   0.060   0.793  0.1790 -0.3337 -0.5413
 7128SOL    HW121962   7.162   0.111   0.832  0.3811  1.4986 -3.0613
 7128SOL    HW221963   7.013   0.084   0.843  1.2855 -3.2452  3.0298
 7129SOL     OW21964   0.372   3.899   7.072 -0.5195 -0.3231  0.1402
 7129SOL    HW121965   0.319   3.844   7.015  0.1733  0.7839 -1.6475
 7129SOL    HW221966   0.438   3.839   7.109 -2.2056 -1.4690  1.4895
 7130SOL     OW21967   5.295   5.175   1.704  0.4827  0.2567 -0.1824
 7130SOL    HW121968   5.361   5.109   1.725 -0.5170 -0.0619  2.3621
 7130SOL    HW221969   5.322   5.253   1.752 -0.4193  0.4530  0.0284
 7131SOL     OW21970   7.208   2.190   8.536  0.2738 -0.0801 -0.0391
 7131SOL    HW121971   7.148   2.198   8.461 -2.3615 -0.4073  1.8969
 7131SOL    HW221972   7.151   2.196   8.613  2.6359 -1.4411  1.9460
 7132SOL     OW21973   9.328   7.817   0.545  0.5302 -0.7384  0.3050
 7132SOL    HW121974   9.322   7.779   0.633 -0.6600  0.2369  0.6716
 7132SOL    HW221975   9.422   7.820   0.527  0.7390 -1.9380  1.0976
 7133SOL     OW21976   1.623   6.244   2.653  0.2350  0.0080  0.4718
 7133SOL    HW121977   1.651   6.164   2.610 -1.6253 -0.2727 -0.3349
 7133SOL    HW221978   1.704   6.286   2.683  1.3358 -1.4395 -0.3703
 7134SOL     OW21979   4.363   7.594   2.842 -0.2716 -0.0281  0.3501
 7134SOL    HW121980   4.447   7.634   2.861  0.3999 -0.6176 -1.1597
 7134SOL    HW221981   4.349   7.530   2.912  1.6477 -1.5130 -0.5212
 7135SOL     OW21982   6.285   7.104   6.312 -0.4369  0.1786  0.3977
 7135SOL    HW121983   6.342   7.039   6.352 -2.6842 -0.7508  2.2847
 7135SOL    HW221984   6.198   7.064   6.312 -1.4222  2.1292 -0.9479
 7136SOL     OW21985   9.330   0.793   8.509  0.2505 -0.0037  0.2742
 7136SOL    HW121986   9.319   0.794   8.414 -0.5277 -2.0310  0.2982
 7136SOL    HW221987   9.273   0.722   8.539  1.4674 -0.2587  2.1254
 7137SOL     OW21988   2.627   9.890   7.465  0.5491  0.4267 -0.0803
 7137SOL    HW121989   2.607   9.943   7.387 -0.4883  0.9128  0.4905
 7137SOL    HW221990   2.569   9.925   7.533  0.5374 -0.8214  0.5776
 7138SOL     OW21991   1.373   4.864   9.021  0.3079 -0.1399  0.3228
 7138SOL    HW121992   1.339   4.799   9.084  0.1001 -0.3228  0.0240
 7138SOL    HW221993   1.410   4.933   9.076 -0.9666  0.3014  0.6761
 7139SOL     OW21994   5.216   3.060   1.714 -0.5489 -0.0682 -0.0126
 7139SOL    HW121995   5.266   3.134   1.748 -2.2219  1.3152 -0.4044
 7139SOL    HW221996   5.128   3.095   1.700 -1.2055 -1.9448 -0.9426
 7140SOL     OW21997   4.446   3.330   3.920  0.2219 -0.2726  0.0867
 7140SOL    HW121998   4.409   3.249   3.884 -0.7964  0.7314 -1.2555
 7140SOL    HW221999   4.540   3.315   3.921  0.0276 -1.6896  0.4664
 7141SOL     OW22000   5.547   0.552   4.416  1.0206  0.3841 -0.3129
 7141SOL    HW122001   5.633   0.558   4.457  0.3840 -3.6953  2.2821
 7141SOL    HW222002   5.541   0.460   4.388 -3.0738 -0.0905  1.4406
 7142SOL     OW22003   6.666   7.220   3.458 -0.0183  0.3196 -0.3768
 7142SOL    HW122004   6.594   7.282   3.471 -0.9349 -0.5056 -1.2954
 7142SOL    HW222005   6.626   7.134   3.472 -0.0203 -0.3611 -3.7865
 7143SOL     OW22006   4.988   8.404   5.805 -0.0077 -0.6111  0.4579
 7143SOL    HW122007   5.056   8.453   5.851 -1.2457  1.4950  0.1304
 7143SOL    HW222008   4.916   8.397   5.868 -0.6830 -0.0623 -0.2366
 7144SOL     OW22009   5.604   7.969   2.743 -0.2868  0.1374 -0.3056
 7144SOL    HW122010   5.570   7.944   2.657  0.4852 -1.9061 -0.0771
 7144SOL    HW222011   5.526   7.980   2.797 -0.7307 -1.5381 -0.5419
 7145SOL     OW22012   6.363   2.209   1.652  0.0348 -0.3317 -0.6140
 7145SOL    HW122013   6.391   2.153   1.579 -1.6080  0.4978 -1.9446
 7145SOL    HW222014   6.278   2.244   1.625 -0.4657  0.3246  1.5512
 7146SOL     OW22015   9.057   5.255   5.468  0.0017  0.2762  0.1191
 7146SOL    HW122016   9.057   5.318   5.540 -0.5302  0.0135  0.3585
 7146SOL    HW222017   9.111   5.296   5.400  0.0037  0.8013  0.4304
 7147SOL     OW22018   9.496   3.117   1.230 -0.2848 -0.2591  0.5388
 7147SOL    HW122019   9.418   3.150   1.274 -1.5520  0.8057 -2.2837
 7147SOL    HW222020   9.462   3.062   1.160  1.6141 -1.4148  0.4636
 7148SOL     OW22021   0.922   6.531   9.655 -0.7817 -0.4346 -0.8062
 7148SOL    HW122022   0.828   6.546   9.663 -0.4635  3.5146 -2.2762
 7148SOL    HW222023   0.959   6.563   9.737 -0.5560  0.3801 -1.2203
 7149SOL     OW22024   8.389   6.877   0.914  0.2029 -0.4232  0.4270
 7149SOL    HW122025   8.429   6.844   0.994  1.5750 -0.3351 -0.1992
 7149SOL    HW222026   8.443   6.952   0.890 -1.3052  0.6895  0.4034
 7150SOL     OW22027   8.918   6.710   1.416 -0.6548 -0.0011 -0.1515
 7150SOL    HW122028   8.901   6.616   1.407  0.5665 -0.2546  0.0460
 7150SOL    HW222029   8.939   6.740   1.327 -2.1985  0.3459 -0.4243
 7151SOL     OW22030   4.439   5.840   1.528 -0.1969 -0.0241 -0.0929
 7151SOL    HW122031   4.422   5.782   1.601 -0.3389  0.3292  0.1576
 7151SOL    HW222032   4.534   5.837   1.517 -0.3176 -1.3138 -0.9283
 7152SOL     OW22033   1.781   6.363   7.590  0.2323 -0.0565 -0.3517
 7152SOL    HW122034   1.710   6.339   7.650  0.6564 -0.2974  0.0625
 7152SOL    HW222035   1.803   6.453   7.615  1.4560 -0.6663  0.9361
 7153SOL     OW22036   8.643   1.008   4.924 -0.4904  0.4795 -0.0048
 7153SOL    HW122037   8.625   1.066   4.998 -0.4558 -1.2882  1.4611
 7153SOL    HW222038   8.564   0.955   4.917 -0.1991  0.1453 -0.7670
 7154SOL     OW22039   9.230   2.217   5.745 -1.1702 -0.3202  0.9185
 7154SOL    HW122040   9.173   2.154   5.789 -2.1269 -0.2106 -0.1291
 7154SOL    HW222041   9.188   2.301   5.760 -0.9525 -0.1646  0.6583
 7155SOL     OW22042   8.476   7.195   4.334  0.0544  0.2338  0.0875
 7155SOL    HW122043   8.486   7.287   4.310 -0.2288  0.3951  0.5784
 7155SOL    HW222044   8.545   7.150   4.284  0.5357  0.7793  0.2463
 7156SOL     OW22045   3.437   2.375   9.263 -0.0036 -0.2897  0.3335
 7156SOL    HW122046   3.512   2.433   9.274 -0.2583  0.1855 -0.3628
 7156SOL    HW222047   3.361   2.430   9.284 -0.3064 -0.1245 -1.1079
 7157SOL     OW22048   3.717   3.160   1.413 -0.6381 -0.1181 -0.0563
 7157SOL    HW122049   3.663   3.155   1.492 -1.0311 -1.4040 -0.3833
 7157SOL    HW222050   3.663   3.206   1.349 -0.4292  0.6689  0.3178
 7158SOL     OW22051   6.451   5.382   0.515  0.1835  0.1443 -0.3483
 7158SOL    HW122052   6.388   5.401   0.445  0.2085  0.9877 -0.1537
 7158SOL    HW222053   6.513   5.321   0.475 -0.5054 -0.3535 -0.6734
 7159SOL     OW22054   9.395   6.014   0.586 -0.6386  0.2443  0.0345
 7159SOL    HW122055   9.456   6.078   0.548 -0.6264  0.5032  0.4833
 7159SOL    HW222056   9.445   5.932   0.588 -0.7175  0.1742 -0.7147
 7160SOL     OW22057   6.841   0.052   9.879 -0.3249 -0.1599  0.0970
 7160SOL    HW122058   6.932   0.080   9.866 -0.1659 -0.9873 -0.7083
 7160SOL    HW222059   6.793   0.093   9.808 -0.0646 -1.9458 -1.1834
 7161SOL     OW22060   3.404   4.365   7.128  0.0579 -0.6035 -0.3599
 7161SOL    HW122061   3.498   4.378   7.139 -0.2002  1.0062  0.2476
 7161SOL    HW222062   3.369   4.371   7.217 -0.7065 -0.3638 -0.6704
 7162SOL     OW22063   4.251   1.602   8.473 -0.3298  0.2790 -0.0538
 7162SOL    HW122064   4.211   1.519   8.450  0.1159 -0.6078  2.1230
 7162SOL    HW222065   4.342   1.595   8.444 -0.4626  0.2935 -0.4792
 7163SOL     OW22066   8.176   3.658   0.362 -0.5771 -0.5973 -0.0494
 7163SOL    HW122067   8.125   3.685   0.438  0.4111  0.3287  0.3281
 7163SOL    HW222068   8.238   3.593   0.397  0.4398  0.4410  0.1588
 7164SOL     OW22069   5.695   3.901   3.063  0.1716  0.0704 -0.1818
 7164SOL    HW122070   5.748   3.923   3.140 -1.5052  0.2594  0.9697
 7164SOL    HW222071   5.692   3.981   3.012 -0.0823  0.4419  0.4089
 7165SOL     OW22072   1.424   7.414   6.714  0.4071  0.1343 -0.6571
 7165SOL    HW122073   1.426   7.379   6.804  0.5462 -0.5169 -0.9050
 7165SOL    HW222074   1.366   7.353   6.667  0.4665  0.3780 -1.0464
 7166SOL     OW22075   2.037   0.749   0.857 -0.0567  0.2913 -0.0576
 7166SOL    HW122076   2.037   0.770   0.950 -1.4342  1.3384 -0.2518
 7166SOL    HW222077   1.945   0.752   0.832  0.3686  1.2565 -1.6993
 7167SOL     OW22078   9.254   2.803   4.231  0.2507  0.8428 -0.3509
 7167SOL    HW122079   9.175   2.777   4.183  0.7059 -0.0899 -0.5981
 7167SOL    HW222080   9.291   2.875   4.179  0.6249 -0.0157 -1.3034
 7168SOL     OW22081   0.818   2.657   1.645  0.2487  0.3094  0.0413
 7168SOL    HW122082   0.881   2.606   1.696 -0.4816  0.0932  0.7569
 7168SOL    HW222083   0.869   2.727   1.605  0.7047  1.0757  1.8695
 7169SOL     OW22084   4.676   3.400   5.913 -0.8652 -0.0055  0.3549
 7169SOL    HW122085   4.637   3.419   5.828  1.1295  2.3785 -0.1456
 7169SOL    HW222086   4.603   3.397   5.974 -2.0620  1.9355 -0.8875
 7170SOL     OW22087   1.034   3.662   6.061  0.8437 -0.7518 -0.8021
 7170SOL    HW122088   1.101   3.726   6.084 -1.1291  1.7870 -1.5810
 7170SOL    HW222089   1.065   3.623   5.979  3.0058 -2.3476  0.6775
 7171SOL     OW22090   9.616   8.189   3.490  0.0512 -0.4374  0.1202
 7171SOL    HW122091   9.639   8.102   3.457 -0.2455 -0.9578  1.2652
 7171SOL    HW222092   9.527   8.180   3.524 -1.1614  1.0355 -2.3300
 7172SOL     OW22093   7.762   0.349   3.064 -0.1164 -0.0194 -0.2258
 7172SOL    HW122094   7.791   0.326   2.976  0.2094 -0.2622 -0.0563
 7172SOL    HW222095   7.695   0.416   3.051 -1.9823 -1.8935 -0.8167
 7173SOL     OW22096   1.188   2.277   3.648 -0.5839  0.5545 -0.6623
 7173SOL    HW122097   1.121   2.343   3.631  0.0513  1.4315  0.1026
 7173SOL    HW222098   1.250   2.321   3.707  0.7184 -0.1958 -1.4232
 7174SOL     OW22099   6.573   7.519   1.237 -0.5731 -0.1374 -0.0794
 7174SOL    HW122100   6.516   7.594   1.220 -1.9097 -1.0581  0.2393
 7174SOL    HW222101   6.514   7.449   1.263  0.7637 -0.9761  0.7898
 7175SOL     OW22102   6.177   6.949   4.728 -0.1526 -0.3186  0.3830
 7175SOL    HW122103   6.178   6.958   4.633  1.7538  1.9622  0.5352
 7175SOL    HW222104   6.092   6.986   4.754 -1.4864 -2.5653 -0.4405
 7176SOL     OW22105   7.230   0.842   0.983 -0.3101 -0.0591 -0.1195
 7176SOL    HW122106   7.285   0.868   0.908 -0.2265  1.1089  0.3208
 7176SOL    HW222107   7.291   0.837   1.057 -0.6948  0.6863  0.2573
 7177SOL     OW22108   8.280   7.621   0.184  0.4347  0.1471  0.1290
 7177SOL    HW122109   8.325   7.559   0.127  0.0189 -0.8426  0.8556
 7177SOL    HW222110   8.265   7.698   0.129 -0.8460 -1.1331 -1.4063
 7178SOL     OW22111   1.638   4.822   7.945  0.4191  0.3465 -0.2039
 7178SOL    HW122112   1.703   4.886   7.917  0.0679  0.4299 -0.8419
 7178SOL    HW222113   1.646   4.820   8.041  0.8073  0.9362 -0.2195
 7179SOL     OW22114   9.255   9.321   9.855 -0.2538 -0.0910  0.2286
 7179SOL    HW122115   9.245   9.410   9.889 -0.0746 -0.0964  0.2944
 7179SOL    HW222116   9.196   9.318   9.779  1.7298  0.9610 -1.4412
 7180SOL     OW22117   9.114   8.116   9.126  0.1563  0.2900  0.0322
 7180SOL    HW122118   9.191   8.168   9.149  0.6646 -0.4828  0.1135
 7180SOL    HW222119   9.058   8.120   9.204  1.5885 -1.8006  1.2862
 7181SOL     OW22120   9.508   8.703   0.838 -0.6820 -0.0981  0.3557
 7181SOL    HW122121   9.429   8.656   0.812 -0.0521 -0.7257 -0.4866
 7181SOL    HW222122   9.536   8.749   0.758  0.2486 -0.5446  0.4105
 7182SOL     OW22123   9.740   2.726   1.045  0.1132 -0.3156 -0.4036
 7182SOL    HW122124   9.680   2.751   0.975 -0.6904 -1.0556  0.0012
 7182SOL    HW222125   9.737   2.799   1.107 -1.6952 -1.0300  0.4347
 7183SOL     OW22126   3.782   6.879   0.041 -0.4676  0.2970  0.1221
 7183SOL    HW122127   3.814   6.969   0.046  1.7214 -0.4434  0.7789
 7183SOL    HW222128   3.807   6.849  -0.046  0.8058 -0.3134  0.6680
 7184SOL     OW22129   4.935   1.747   4.719  0.5760  0.5356  0.3102
 7184SOL    HW122130   4.905   1.657   4.734  0.8156  0.3287 -0.4043
 7184SOL    HW222131   5.027   1.737   4.694  0.2658  0.8647 -1.0331
 7185SOL     OW22132   4.942   7.550   1.964 -0.1708  0.2298  0.5108
 7185SOL    HW122133   4.987   7.466   1.963 -0.9526 -0.1995 -0.5214
 7185SOL    HW222134   5.003   7.609   2.008  1.7035 -0.1784 -1.3741
 7186SOL     OW22135   3.425   0.681   7.342 -0.0494  0.0653  0.1358
 7186SOL    HW122136   3.364   0.638   7.282  2.1508 -1.2518 -1.2942
 7186SOL    HW222137   3.481   0.735   7.286  1.0575  0.0426  1.1759
 7187SOL     OW22138   6.280   7.938   0.586 -0.0443 -0.6504 -0.2359
 7187SOL    HW122139   6.330   7.951   0.667 -0.4242 -1.3700  0.1214
 7187SOL    HW222140   6.242   8.024   0.568  0.2484 -0.4214  0.2165
 7188SOL     OW22141   7.265   5.842   7.664  0.4729  0.3874  0.1478
 7188SOL    HW122142   7.216   5.923   7.676  2.0909  1.6270 -1.1841
 7188SOL    HW222143   7.208   5.788   7.609 -0.5632  0.6384  0.9335
 7189SOL     OW22144   9.705   2.152   0.181 -0.8669  0.5675 -0.3319
 7189SOL    HW122145   9.697   2.244   0.159 -0.0540  0.3968 -1.4316
 7189SOL    HW222146   9.683   2.106   0.099 -0.5497 -0.1914 -0.0026
 7190SOL     OW22147   7.611   8.861   1.421 -0.3688  0.4609 -0.3059
 7190SOL    HW122148   7.618   8.955   1.407 -0.8136  0.8727  1.8389
 7190SOL    HW222149   7.535   8.851   1.479  0.0540 -1.1609  0.0242
 7191SOL     OW22150   7.776   9.951   4.648 -0.3009 -0.3227  0.2014
 7191SOL    HW122151   7.808   9.870   4.688  1.0743 -0.3777 -0.9273
 7191SOL    HW222152   7.791  10.019   4.714 -0.1120 -0.7574  0.6085
 7192SOL     OW22153   8.728   5.344   0.650  0.0059 -0.3462  0.0913
 7192SOL    HW122154   8.795   5.331   0.583  0.0077  1.1783 -0.2445
 7192SOL    HW222155   8.646   5.355   0.601 -0.2234 -0.6320  0.4091
 7193SOL     OW22156   5.501   5.886   3.924  0.2270  0.4545 -0.4383
 7193SOL    HW122157   5.540   5.798   3.920  1.0679  0.8274 -0.7917
 7193SOL    HW222158   5.443   5.890   3.848 -0.0926  0.0826 -0.2176
 7194SOL     OW22159   1.869   7.928   4.578  0.4016 -0.1258  0.0783
 7194SOL    HW122160   1.939   7.991   4.597  0.4729 -0.6288  1.6821
 7194SOL    HW222161   1.883   7.858   4.642 -0.0727 -1.4574 -1.2362
 7195SOL     OW22162   9.427   5.740   5.065 -0.5933 -0.2042 -0.6503
 7195SOL    HW122163   9.472   5.755   5.148 -2.6230  2.3434  0.1055
 7195SOL    HW222164   9.375   5.661   5.081  1.4661 -1.6767 -0.7023
 7196SOL     OW22165   9.560   0.814   7.533 -0.2832 -0.6194 -0.0008
 7196SOL    HW122166   9.597   0.890   7.488 -2.2675  0.4050 -0.0190
 7196SOL    HW222167   9.544   0.750   7.463  1.1593 -0.9988 -0.0200
 7197SOL     OW22168   4.955   0.729   6.099  0.1803  0.3977  0.2000
 7197SOL    HW122169   5.029   0.692   6.052  0.4465  1.7929 -0.5545
 7197SOL    HW222170   4.900   0.767   6.030 -1.0199 -0.2102  0.7810
 7198SOL     OW22171   9.399   3.747   1.469 -0.4019  0.1710  0.5863
 7198SOL    HW122172   9.422   3.799   1.545  1.0515  1.2046 -0.4985
 7198SOL    HW222173   9.479   3.700   1.447 -0.4476  0.7567 -0.9494
 7199SOL     OW22174   9.485   9.431   8.616  0.0994  0.4096  0.3171
 7199SOL    HW122175   9.465   9.522   8.595  3.1504  1.1626  0.1230
 7199SOL    HW222176   9.523   9.435   8.704 -0.6381 -0.8395  0.7094
 7200SOL     OW22177   5.065   4.864   7.395  0.1071 -0.1510 -0.4143
 7200SOL    HW122178   5.117   4.829   7.322 -1.1167 -1.2342 -0.8189
 7200SOL    HW222179   5.075   4.799   7.464  0.3921  0.3324  0.0033
 7201SOL     OW22180   9.556   1.644   3.836  0.0024 -0.0402 -0.0274
 7201SOL    HW122181   9.644   1.611   3.815 -0.3618 -0.5204 -0.8440
 7201SOL    HW222182   9.547   1.722   3.782 -0.6290 -0.8265 -1.1002
 7202SOL     OW22183   4.915   5.931   5.348 -0.0763  0.4784  0.1134
 7202SOL    HW122184   4.906   5.962   5.258  0.5588 -0.4267 -0.2788
 7202SOL    HW222185   4.875   5.844   5.347 -1.7704  1.2044  1.1720
 7203SOL     OW22186   1.273   4.702   7.188 -0.0587  0.4480  0.4519
 7203SOL    HW122187   1.183   4.676   7.208 -0.4684 -1.6683 -3.1027
 7203SOL    HW222188   1.264   4.786   7.144 -0.5739 -0.3500 -1.0699
 7204SOL     OW22189   6.488   2.332   0.194 -0.1591  0.0613 -0.2323
 7204SOL    HW122190   6.484   2.252   0.141 -0.4503 -0.1109  0.0492
 7204SOL    HW222191   6.397   2.359   0.204 -0.1619 -0.2460  0.6877
 7205SOL     OW22192   9.056   7.996   4.567  0.6996 -0.2086  0.1566
 7205SOL    HW122193   9.110   8.051   4.510 -1.4271  0.8231 -1.0106
 7205SOL    HW222194   9.040   8.051   4.645 -0.2097  0.2911 -0.3603
 7206SOL     OW22195   6.764   7.147   8.437 -0.9357 -0.0174 -0.3862
 7206SOL    HW122196   6.786   7.167   8.528 -0.3979  2.0658 -0.9182
 7206SOL    HW222197   6.829   7.082   8.411 -1.2763 -0.8543  0.7866
 7207SOL     OW22198   6.386   8.148   5.029  1.1066  0.1350 -0.6068
 7207SOL    HW122199   6.395   8.234   4.989  1.6758 -0.5566 -2.0084
 7207SOL    HW222200   6.425   8.088   4.966 -0.0501 -1.2588 -0.0392
 7208SOL     OW22201   0.377   2.153   8.424 -0.2721 -0.2331  0.4796
 7208SOL    HW122202   0.430   2.125   8.350 -1.9028 -0.0909 -0.7884
 7208SOL    HW222203   0.410   2.241   8.445 -0.2243 -0.0063 -0.4998
 7209SOL     OW22204   9.004   3.207   2.483 -0.2651 -0.1648  0.7641
 7209SOL    HW122205   9.004   3.253   2.567 -0.1902  2.0760 -0.3934
 7209SOL    HW222206   9.095   3.210   2.455 -0.3336 -0.6925  0.4828
 7210SOL     OW22207   9.306   9.446   6.849 -0.2493  0.3880 -0.2370
 7210SOL    HW122208   9.290   9.379   6.916 -0.2272  2.2746  1.7440
 7210SOL    HW222209   9.229   9.441   6.792 -1.7979  0.7646  1.7216
 7211SOL     OW22210   8.868   0.097   5.656 -0.1095 -0.3677 -0.0227
 7211SOL    HW122211   8.801   0.094   5.587  0.3483  1.5999 -0.6201
 7211SOL    HW222212   8.949   0.116   5.610  0.4425 -0.3491  0.9298
 7212SOL     OW22213   2.164   3.232   2.850  0.0105  0.0152 -0.4863
 7212SOL    HW122214   2.252   3.201   2.868 -0.2613  0.1153  1.1356
 7212SOL    HW222215   2.160   3.320   2.888 -0.9792 -0.2413  0.0542
 7213SOL     OW22216   1.234   8.328   7.673  0.0339 -0.4018  0.5011
 7213SOL    HW122217   1.248   8.376   7.591  0.3806 -0.7522  0.3548
 7213SOL    HW222218   1.229   8.396   7.740  1.2423 -0.1875  0.3975
 7214SOL     OW22219   8.969   1.589   5.857 -0.1664  0.7180 -0.4213
 7214SOL    HW122220   8.958   1.681   5.831 -1.3199  1.0633  1.1129
 7214SOL    HW222221   8.906   1.541   5.804  0.4628  0.7936 -1.2519
 7215SOL     OW22222   5.979   0.449   1.131  0.3653  0.3421 -0.7675
 7215SOL    HW122223   6.065   0.476   1.165 -0.4425  1.4240  0.5201
 7215SOL    HW222224   5.970   0.496   1.049  0.9669  0.2819 -0.8746
 7216SOL     OW22225   1.567   4.642   5.247 -0.1000 -0.0456 -0.5758
 7216SOL    HW122226   1.596   4.641   5.155 -1.2232 -1.3433 -0.9591
 7216SOL    HW222227   1.481   4.684   5.244 -0.1028 -0.0225 -0.1137
 7217SOL     OW22228   3.710   2.476   1.891 -0.0755  0.1367  0.0692
 7217SOL    HW122229   3.695   2.381   1.889  0.1706  0.0388 -2.9933
 7217SOL    HW222230   3.805   2.486   1.891 -0.0999  0.4086  0.7488
 7218SOL     OW22231   8.022   1.068   9.562  0.0696  0.4603 -0.1430
 7218SOL    HW122232   8.011   1.011   9.486  0.9238 -1.7245  1.2857
 7218SOL    HW222233   7.936   1.109   9.574 -0.4665 -0.2202 -1.4481
 7219SOL     OW22234   5.583   6.846   9.332  0.6721 -0.1807 -0.2613
 7219SOL    HW122235   5.494   6.831   9.299  0.5356 -0.2593  0.1354
 7219SOL    HW222236   5.571   6.867   9.424  1.0295  0.2847 -0.3119
 7220SOL     OW22237   9.907   8.784   0.658 -0.5639 -0.2498  0.3527
 7220SOL    HW122238   9.900   8.864   0.606  1.9090 -1.0099 -1.3075
 7220SOL    HW222239   9.837   8.728   0.625 -0.6587  0.2495 -0.3118
 7221SOL     OW22240   5.204   5.102   7.520  0.1105 -0.3578  0.2926
 7221SOL    HW122241   5.182   5.029   7.462  0.0892  1.3288 -1.9587
 7221SOL    HW222242   5.127   5.159   7.518  0.5624  0.2995  1.0517
 7222SOL     OW22243   9.073   3.395   5.932  0.3059  1.0498  0.2725
 7222SOL    HW122244   9.075   3.354   6.019 -1.3393  0.1139 -0.0957
 7222SOL    HW222245   9.055   3.488   5.949 -0.2076  0.8348  0.9210
 7223SOL     OW22246   0.307   6.732   5.151 -0.0604  0.2104  0.7956
 7223SOL    HW122247   0.347   6.755   5.067 -2.9285 -0.0731 -0.7806
 7223SOL    HW222248   0.285   6.639   5.142 -1.6156  0.5019  1.2954
 7224SOL     OW22249   4.891   9.381   8.355  0.3034  0.3297  0.4265
 7224SOL    HW122250   4.980   9.351   8.374  1.2429 -0.8402 -4.5432
 7224SOL    HW222251   4.849   9.305   8.314 -2.1322  1.6797  0.2537
 7225SOL     OW22252   5.131   6.995   7.119 -0.2883 -0.5584  0.6034
 7225SOL    HW122253   5.190   6.942   7.173  0.1179  0.3970  1.1229
 7225SOL    HW222254   5.129   7.080   7.163 -0.5257  0.0164 -0.4944
 7226SOL     OW22255   0.468   7.348   3.122  0.3575 -0.0663  0.0505
 7226SOL    HW122256   0.455   7.283   3.053  1.3276  1.2576 -1.4627
 7226SOL    HW222257   0.386   7.398   3.124 -0.3112 -1.1612  1.0756
 7227SOL     OW22258   6.186   1.688   9.266 -0.1015  0.3881 -0.4576
 7227SOL    HW122259   6.185   1.593   9.276  0.6046  0.4906  0.7022
 7227SOL    HW222260   6.263   1.706   9.213  0.2315  0.3618  0.0086
 7228SOL     OW22261   4.109  -0.013   6.105 -0.2251 -0.2672 -0.8686
 7228SOL    HW122262   4.053   0.020   6.035  0.3195  0.9918 -0.7366
 7228SOL    HW222263   4.137   0.065   6.152 -1.7259 -1.1598  1.6803
 7229SOL     OW22264   3.409   8.082   5.314 -0.5031  0.3373  0.5399
 7229SOL    HW122265   3.474   8.035   5.262 -0.0023  2.3887 -0.7970
 7229SOL    HW222266   3.448   8.089   5.401  0.9792  1.2548 -0.1592
 7230SOL     OW22267   5.747   0.611   2.333  0.3848 -0.0485  0.2398
 7230SOL    HW122268   5.721   0.619   2.425 -0.2397  0.9259 -0.0145
 7230SOL    HW222269   5.668   0.631   2.283  1.3100  1.9160 -0.5405
 7231SOL     OW22270   9.104   2.315   7.092 -0.4677  0.0622 -0.4390
 7231SOL    HW122271   9.061   2.301   7.176 -0.9393 -0.2701 -0.7321
 7231SOL    HW222272   9.191   2.279   7.103 -0.4868  0.1263 -0.0551
 7232SOL     OW22273   7.172   0.035   6.569  0.2053  0.1243 -0.1510
 7232SOL    HW122274   7.155   0.006   6.659  0.4416 -2.9267 -0.9783
 7232SOL    HW222275   7.251   0.088   6.576 -0.5025  1.0402  1.5842
 7233SOL     OW22276   7.219   3.484   3.003 -0.1442 -0.0105 -0.1677
 7233SOL    HW122277   7.142   3.470   2.948  0.1623  0.6583 -0.7782
 7233SOL    HW222278   7.250   3.572   2.980 -1.0505  1.0656  2.3626
 7234SOL     OW22279   9.956   8.462   3.923 -0.3337 -0.4785 -0.2249
 7234SOL    HW122280   9.861   8.473   3.923 -0.3069 -0.2145 -0.3120
 7234SOL    HW222281   9.988   8.540   3.878 -0.1738 -1.3634 -1.7152
 7235SOL     OW22282   0.037   4.916   1.691  0.0295  0.3665 -0.1593
 7235SOL    HW122283   0.092   4.846   1.728 -0.3474 -0.1630 -0.5821
 7235SOL    HW222284   0.094   4.993   1.691  0.6346 -0.0647 -0.1861
 7236SOL     OW22285   1.725   1.664   8.962  0.0382  0.3837 -0.5538
 7236SOL    HW122286   1.681   1.620   8.890  0.7131 -3.7078  1.2490
 7236SOL    HW222287   1.654   1.699   9.016 -0.5912  0.7485 -1.5860
 7237SOL     OW22288   5.925   6.818   5.680 -0.3893 -0.1375  0.4733
 7237SOL    HW122289   5.845   6.788   5.637  0.3959 -0.1776 -1.0059
 7237SOL    HW222290   5.933   6.761   5.757 -2.3748  0.6371  1.3207
 7238SOL     OW22291   1.880   5.602   4.649 -0.1469 -0.3418 -0.3154
 7238SOL    HW122292   1.967   5.565   4.663  0.3142  0.8834  0.1981
 7238SOL    HW222293   1.890   5.695   4.670 -1.1014  0.2229 -2.1339
 7239SOL     OW22294   9.922   2.972   2.895  0.2265 -0.0795  0.2929
 7239SOL    HW122295   9.981   3.019   2.836 -0.0069  1.9067  1.5508
 7239SOL    HW222296   9.866   2.920   2.837 -0.0042  1.8081 -1.2503
 7240SOL     OW22297   3.812   0.418   0.472 -0.2113  0.3298 -0.2134
 7240SOL    HW122298   3.789   0.470   0.395 -0.3564  0.8167  0.1532
 7240SOL    HW222299   3.857   0.480   0.530  2.3713 -0.6356 -1.0183
 7241SOL     OW22300   7.197   8.621   0.688  0.0240  0.3879 -0.5855
 7241SOL    HW122301   7.175   8.714   0.685 -2.1912 -0.0370  0.3257
 7241SOL    HW222302   7.149   8.582   0.615 -0.4473 -0.2566  0.0485
 7242SOL     OW22303   2.334   5.285   1.421  0.1966  0.0024 -0.2999
 7242SOL    HW122304   2.377   5.370   1.429  1.5820 -0.2442 -3.4571
 7242SOL    HW222305   2.250   5.305   1.380  0.0456 -0.0652 -0.0252
 7243SOL     OW22306   7.567   5.558   4.863  0.0069  0.2094 -0.0364
 7243SOL    HW122307   7.555   5.464   4.877  0.7477  0.0754 -0.2347
 7243SOL    HW222308   7.557   5.569   4.768 -3.7429  0.9192  0.3056
 7244SOL     OW22309   3.680   7.240   4.541 -0.6507  0.0608 -0.2802
 7244SOL    HW122310   3.772   7.217   4.528 -0.0868  1.1712  1.4243
 7244SOL    HW222311   3.657   7.292   4.465  0.0505 -0.4507 -0.8538
 7245SOL     OW22312   7.678   8.044   8.809 -0.7366  0.3304  0.2885
 7245SOL    HW122313   7.675   7.996   8.726  0.0175  0.7703 -0.0004
 7245SOL    HW222314   7.587   8.045   8.839 -0.6838 -1.9965  0.7276
 7246SOL     OW22315   8.133   8.804   6.090 -0.2353  0.0542 -0.6295
 7246SOL    HW122316   8.128   8.886   6.041  3.0722  0.1047 -1.1169
 7246SOL    HW222317   8.047   8.795   6.131 -0.5369  4.1166  0.0102
 7247SOL     OW22318   9.491   8.340   0.475  0.3012  0.3387 -0.0747
 7247SOL    HW122319   9.451   8.280   0.538  0.3521  0.2855 -0.0939
 7247SOL    HW222320   9.579   8.356   0.509 -0.1663  1.4897  0.6896
 7248SOL     OW22321   0.964   7.013   8.522  0.1188  0.0974  0.4733
 7248SOL    HW122322   0.874   7.040   8.502  0.0733  0.5062  1.1872
 7248SOL    HW222323   1.000   7.085   8.574  0.3552 -0.7244  1.4859
 7249SOL     OW22324   5.953   1.743   8.629  0.0638  0.0051  0.7229
 7249SOL    HW122325   5.935   1.658   8.588 -1.9495  1.3736 -1.4715
 7249SOL    HW222326   6.025   1.779   8.577 -0.6053  0.5562  0.1569
 7250SOL     OW22327   2.498   9.657   7.536 -0.2360  0.0080  0.3115
 7250SOL    HW122328   2.546   9.727   7.491 -1.0151 -0.4541 -1.3429
 7250SOL    HW222329   2.420   9.699   7.571 -0.1446  0.1836  0.3053
 7251SOL     OW22330   2.540   0.574   5.928 -0.1726 -0.5988  0.2967
 7251SOL    HW122331   2.578   0.636   5.865 -1.4772 -0.5663 -0.4895
 7251SOL    HW222332   2.559   0.612   6.013 -1.3769  1.1916 -0.1677
 7252SOL     OW22333   8.424   9.203   1.602 -0.0717 -0.2200  0.6016
 7252SOL    HW122334   8.481   9.263   1.553  1.8175 -1.9728  0.5089
 7252SOL    HW222335   8.397   9.253   1.679  1.3863  0.7784  0.4997
 7253SOL     OW22336   9.490   3.690   1.804  0.1404 -0.3861 -0.6512
 7253SOL    HW122337   9.545   3.688   1.883 -0.1083 -0.8367 -0.4867
 7253SOL    HW222338   9.476   3.783   1.788  0.1340 -0.2880 -0.1159
 7254SOL     OW22339   6.434   9.540   0.663 -0.2162 -0.1839 -0.6823
 7254SOL    HW122340   6.381   9.607   0.705 -0.6724 -0.1679 -1.2726
 7254SOL    HW222341   6.427   9.558   0.569 -1.4954 -1.8803 -0.9588
 7255SOL     OW22342   5.515   2.323   8.166 -0.1699 -0.0298 -0.2364
 7255SOL    HW122343   5.606   2.344   8.185 -0.4744 -0.1717  1.5301
 7255SOL    HW222344   5.499   2.241   8.213 -2.3691  2.1515  3.2904
 7256SOL     OW22345   5.115   1.996   5.228 -0.0447  0.1724  0.1854
 7256SOL    HW122346   5.153   1.910   5.244 -0.3489  0.2733  1.5820
 7256SOL    HW222347   5.172   2.057   5.274 -0.0746  0.6797 -0.4320
 7257SOL     OW22348   6.207   4.123   3.805 -0.8309 -0.6795 -0.7065
 7257SOL    HW122349   6.247   4.209   3.812 -1.6782 -0.4232  2.0245
 7257SOL    HW222350   6.194   4.110   3.711 -1.0970  2.3406 -1.1676
 7258SOL     OW22351   4.090   2.580   3.196 -0.5214  0.3149 -0.8350
 7258SOL    HW122352   4.129   2.668   3.197  2.6217 -0.9609 -0.9754
 7258SOL    HW222353   4.067   2.563   3.288 -1.0788  1.2253 -0.7937
 7259SOL     OW22354   2.934   2.549   6.011  0.2447 -0.1885 -0.0556
 7259SOL    HW122355   2.976   2.536   5.926  1.7719 -1.0456  0.7843
 7259SOL    HW222356   2.910   2.460   6.040 -0.1261  0.0813  0.4869
 7260SOL     OW22357   8.279   8.380   0.075  0.1602 -0.2652 -0.6944
 7260SOL    HW122358   8.303   8.293   0.106 -0.8529  0.1620  1.5411
 7260SOL    HW222359   8.273   8.372  -0.020  2.3238 -2.0273 -0.7428
 7261SOL     OW22360   2.766   0.396   6.941  0.3657 -0.6523 -0.1157
 7261SOL    HW122361   2.854   0.434   6.937 -0.1242  0.4148 -1.3651
 7261SOL    HW222362   2.762   0.337   6.867 -0.7558  1.1464 -1.5578
 7262SOL     OW22363   1.328   2.924   1.410  0.0127  0.5978 -0.2560
 7262SOL    HW122364   1.342   2.994   1.347 -1.8083  0.8328 -0.4606
 7262SOL    HW222365   1.335   2.966   1.496  3.1678  0.1515 -0.1752
 7263SOL     OW22366   3.400   3.642   8.847 -0.4370 -0.0220  1.0225
 7263SOL    HW122367   3.468   3.665   8.911 -0.6254  3.1799  0.2198
 7263SOL    HW222368   3.440   3.575   8.792  1.6506  0.9832  1.2498
 7264SOL     OW22369   0.137   1.174   3.474  0.4867  0.2698 -0.7146
 7264SOL    HW122370   0.078   1.223   3.417  0.0933 -1.1866 -1.6168
 7264SOL    HW222371   0.221   1.218   3.466  0.1053  0.9025 -1.3491
 7265SOL     OW22372   7.915   0.601   0.081  0.0618  0.4819  0.0438
 7265SOL    HW122373   7.821   0.605   0.099  0.0305 -0.4564  0.1339
 7265SOL    HW222374   7.945   0.524   0.129  0.8981  0.8293  0.0923
 7266SOL     OW22375   4.760   6.515   7.889  0.1036  0.0587 -0.0411
 7266SOL    HW122376   4.730   6.505   7.980  0.3446  0.0720  0.0387
 7266SOL    HW222377   4.679   6.528   7.840  0.0616  1.4839  0.3580
 7267SOL     OW22378   3.862   5.425   9.455 -0.0934 -0.1467  0.5858
 7267SOL    HW122379   3.830   5.371   9.383 -0.6772 -0.1642  0.8523
 7267SOL    HW222380   3.957   5.424   9.446 -0.1911  0.9090 -0.9621
 7268SOL     OW22381   4.655   9.540   2.892 -0.0109  0.0858 -0.0385
 7268SOL    HW122382   4.680   9.476   2.825  1.3748  0.7874 -0.2359
 7268SOL    HW222383   4.720   9.529   2.961 -1.2314 -0.3922  1.0569
 7269SOL     OW22384   8.109   4.065   0.322  0.4106  0.5466  0.1998
 7269SOL    HW122385   8.163   4.051   0.400  1.5076 -1.3501 -0.8305
 7269SOL    HW222386   8.165   4.116   0.263 -0.2238  1.5223  0.4129
 7270SOL     OW22387   2.076   6.607   2.637 -0.1461  0.5370  0.3737
 7270SOL    HW122388   2.149   6.544   2.635 -0.6866 -0.1713  1.6964
 7270SOL    HW222389   2.112   6.686   2.596  0.9464 -0.2178 -0.1805
 7271SOL     OW22390   1.336   6.564   2.604 -0.1267 -0.1589  0.1576
 7271SOL    HW122391   1.371   6.647   2.572  0.1966 -0.2323  0.3154
 7271SOL    HW222392   1.245   6.583   2.624  0.4472  0.7127  2.1533
 7272SOL     OW22393   3.224   2.421   6.029 -0.0261  0.3758 -0.5346
 7272SOL    HW122394   3.147   2.464   5.991 -0.5243 -0.7276 -0.8405
 7272SOL    HW222395   3.252   2.479   6.100  0.1997  1.8751 -1.8133
 7273SOL     OW22396   3.803   1.929   1.884 -0.1976 -0.4886  0.3187
 7273SOL    HW122397   3.876   1.924   1.823 -0.4591 -0.0779 -0.0398
 7273SOL    HW222398   3.767   1.840   1.887  0.3075 -0.6879  0.4913
 7274SOL     OW22399   1.874   5.338   8.001 -0.2578 -0.0891  0.0939
 7274SOL    HW122400   1.859   5.291   7.918 -2.5776  1.3330 -0.3712
 7274SOL    HW222401   1.915   5.420   7.974 -0.6382  0.1993  0.3935
 7275SOL     OW22402   7.463   2.137   0.725 -0.1971 -0.1105 -0.5779
 7275SOL    HW122403   7.370   2.118   0.733 -0.0060 -1.4747 -1.2537
 7275SOL    HW222404   7.471   2.231   0.743 -1.8146  0.2151 -1.4024
 7276SOL     OW22405   2.005   6.253   4.336 -0.1002  0.8987  0.1359
 7276SOL    HW122406   1.969   6.253   4.425  1.0922  0.9795  0.6242
 7276SOL    HW222407   2.098   6.234   4.347 -0.2170 -0.8004 -1.2162
 7277SOL     OW22408   8.741   3.344   0.887  0.0931 -0.4343  0.2384
 7277SOL    HW122409   8.770   3.299   0.808  0.5577 -0.7064  0.5585
 7277SOL    HW222410   8.645   3.339   0.884 -0.0658  1.8362 -1.6383
 7278SOL     OW22411   9.606   3.221   2.226  0.1398 -0.4637  0.1334
 7278SOL    HW122412   9.624   3.263   2.311  0.3861  0.3586 -0.3138
 7278SOL    HW222413   9.510   3.218   2.221  0.1175  0.1792  0.1115
 7279SOL     OW22414   1.024   3.349   7.307  0.0385 -0.4103 -0.1515
 7279SOL    HW122415   1.077   3.317   7.380 -1.4719 -1.8257  0.3783
 7279SOL    HW222416   1.004   3.270   7.255 -2.1910 -0.0906  0.1217
 7280SOL     OW22417   5.013   8.273   7.309  0.4156 -0.1136 -0.5011
 7280SOL    HW122418   4.978   8.328   7.379 -0.2235 -0.8302 -0.2507
 7280SOL    HW222419   4.946   8.277   7.240  1.0282  0.5726 -1.0790
 7281SOL     OW22420   8.603   1.578   5.903 -0.3718 -0.0409 -1.0024
 7281SOL    HW122421   8.648   1.655   5.936  0.6632 -1.7311  1.8521
 7281SOL    HW222422   8.659   1.546   5.832  1.2447 -0.2746  0.3360
 7282SOL     OW22423   0.640   2.979   7.649 -0.6386  0.8640 -0.0623
 7282SOL    HW122424   0.579   2.926   7.700 -0.3109  1.9645  1.5569
 7282SOL    HW222425   0.727   2.950   7.678 -0.3517 -0.1178 -1.7428
 7283SOL     OW22426   8.926   5.302   2.284  0.5476  0.0946 -0.5400
 7283SOL    HW122427   8.911   5.301   2.378  3.7627 -0.4566  0.0697
 7283SOL    HW222428   8.956   5.390   2.264 -0.1237  0.2131 -1.0678
 7284SOL     OW22429   8.932   8.863   2.361  0.4567 -0.1762 -0.4096
 7284SOL    HW122430   9.011   8.809   2.363  1.2082  0.8196 -1.6470
 7284SOL    HW222431   8.861   8.803   2.387  1.5053 -1.2775 -0.0231
 7285SOL     OW22432   5.267   2.850   1.282 -0.1110 -0.1491  0.6790
 7285SOL    HW122433   5.310   2.877   1.363  0.7839  0.1641  0.1180
 7285SOL    HW222434   5.318   2.892   1.212 -1.3363  0.2281 -0.0207
 7286SOL     OW22435   0.183   6.324   0.519 -0.1239 -0.2053 -0.0473
 7286SOL    HW122436   0.202   6.318   0.425 -1.1409 -0.3371 -0.2469
 7286SOL    HW222437   0.118   6.394   0.526 -1.1846 -1.2097  0.3841
 7287SOL     OW22438   6.756   6.982   3.968  0.3056  0.1245 -0.7596
 7287SOL    HW122439   6.754   7.028   4.052  1.1941 -0.1923 -0.5597
 7287SOL    HW222440   6.677   6.928   3.968  0.4048 -0.0303 -0.0347
 7288SOL     OW22441   6.234   6.419   6.934 -0.2205  0.1249  0.1282
 7288SOL    HW122442   6.189   6.372   6.864 -0.7386 -2.2186  1.8899
 7288SOL    HW222443   6.327   6.413   6.911 -0.3709 -0.7964 -0.2797
 7289SOL     OW22444   3.555   7.250   2.778  0.1231  0.4845  0.0753
 7289SOL    HW122445   3.635   7.297   2.751  0.0413  1.0597  0.8222
 7289SOL    HW222446   3.500   7.252   2.700  0.7987  0.1407 -0.4325
 7290SOL     OW22447   2.578   3.549   8.553 -0.0311  0.4325  0.0058
 7290SOL    HW122448   2.515   3.543   8.482  0.3923  0.4013 -0.3716
 7290SOL    HW222449   2.643   3.481   8.534 -0.0368  0.2712  0.5426
 7291SOL     OW22450   4.232   3.478   4.025 -0.1541  0.0239  0.0859
 7291SOL    HW122451   4.242   3.442   4.113  1.8085  0.3286  0.0131
 7291SOL    HW222452   4.309   3.450   3.978 -0.6866  0.7221 -1.2548
 7292SOL     OW22453   2.302   6.007   0.939  0.3643 -0.6510 -0.3531
 7292SOL    HW122454   2.275   5.925   0.980  1.5087 -1.8033 -1.8111
 7292SOL    HW222455   2.219   6.054   0.926 -0.2942 -1.4520  0.6848
 7293SOL     OW22456   8.406   5.275   5.738 -0.0930  0.0478 -0.8488
 7293SOL    HW122457   8.425   5.254   5.830  1.1928 -0.8306 -1.2762
 7293SOL    HW222458   8.386   5.368   5.738 -1.6071 -0.2338  0.5283
 7294SOL     OW22459   0.718   6.324   6.408 -0.3029  0.1490 -0.1418
 7294SOL    HW122460   0.721   6.392   6.476  0.7907  1.7062 -1.6399
 7294SOL    HW222461   0.722   6.242   6.456  2.7558  1.1819  1.6555
 7295SOL     OW22462   4.450   7.761   3.702  0.2832  0.5529  0.3073
 7295SOL    HW122463   4.458   7.673   3.664 -1.6752  1.2863 -2.0459
 7295SOL    HW222464   4.396   7.749   3.780 -0.3720 -0.2857 -0.2642
 7296SOL     OW22465   3.180   6.791   0.684 -0.1426  0.4052 -0.4272
 7296SOL    HW122466   3.109   6.726   0.687 -1.1903  1.5025 -0.5396
 7296SOL    HW222467   3.231   6.775   0.764  0.4433 -1.4190 -1.1275
 7297SOL     OW22468   9.066   0.797   5.935 -0.1997 -0.3773 -0.1297
 7297SOL    HW122469   8.996   0.770   5.994 -1.1798  0.9541 -0.6360
 7297SOL    HW222470   9.146   0.784   5.986 -0.8927 -0.8546  0.8780
 7298SOL     OW22471   2.177   0.558   6.747 -0.4966 -0.2994  0.0824
 7298SOL    HW122472   2.234   0.578   6.673 -0.9896 -2.4829 -0.9439
 7298SOL    HW222473   2.090   0.586   6.719 -0.7437 -1.4397 -0.3353
 7299SOL     OW22474   0.167   1.050   2.368 -1.0755  0.4238 -0.0595
 7299SOL    HW122475   0.256   1.024   2.344 -0.9613  0.1458  0.6190
 7299SOL    HW222476   0.175   1.141   2.396 -1.0767  0.5179 -0.3620
 7300SOL     OW22477   7.342   9.562   8.367  0.6792  0.2962 -0.1742
 7300SOL    HW122478   7.327   9.645   8.322  1.0454 -0.1310 -1.0950
 7300SOL    HW222479   7.396   9.585   8.442 -0.0521  1.0338  0.1469
 7301SOL     OW22480   2.951   6.311   5.672 -0.2862 -0.2796  0.5754
 7301SOL    HW122481   2.950   6.404   5.694 -0.6760 -0.6266  2.1435
 7301SOL    HW222482   2.864   6.279   5.696  0.0787 -1.1893  0.7342
 7302SOL     OW22483   9.738   8.290   3.725  0.2971 -0.6656  0.2844
 7302SOL    HW122484   9.697   8.274   3.640  0.6717 -2.4188  0.3916
 7302SOL    HW222485   9.748   8.203   3.763  1.4160 -0.0257  1.5252
 7303SOL     OW22486   4.593   7.083   8.978 -0.1345  0.0230 -0.2030
 7303SOL    HW122487   4.623   7.000   9.017 -0.2724  0.9252  1.9453
 7303SOL    HW222488   4.670   7.115   8.931  0.6669 -0.2326  0.8796
 7304SOL     OW22489   7.240   9.338   1.493  0.3474  0.3560 -0.5567
 7304SOL    HW122490   7.153   9.301   1.478  0.6615  0.3638 -2.6989
 7304SOL    HW222491   7.239   9.366   1.585 -1.8918  0.3225 -0.5219
 7305SOL     OW22492   8.407   6.671   2.868  0.1399  0.0843 -0.6467
 7305SOL    HW122493   8.498   6.676   2.839  0.3725 -1.2347 -0.2052
 7305SOL    HW222494   8.413   6.649   2.961 -0.6269  1.7057 -0.1891
 7306SOL     OW22495   5.757   7.951   0.152 -0.1697 -0.1820 -0.5076
 7306SOL    HW122496   5.834   7.932   0.207 -0.1659  2.6116  0.6468
 7306SOL    HW222497   5.682   7.934   0.209 -0.3343 -1.1105 -0.9998
 7307SOL     OW22498   1.070   1.062   1.832 -0.1568  0.2134 -0.7274
 7307SOL    HW122499   1.040   1.022   1.914  0.0231  2.8230  0.7074
 7307SOL    HW222500   0.992   1.099   1.793 -0.3126 -1.3615 -2.0294
 7308SOL     OW22501   4.003   3.101   8.828 -0.0280  0.4872 -0.1551
 7308SOL    HW122502   4.012   3.006   8.822  2.1916  0.6697 -0.6732
 7308SOL    HW222503   3.966   3.127   8.744 -2.0475  0.0132  0.5222
 7309SOL     OW22504   5.958   0.217   3.195 -0.2810  0.3719  0.9666
 7309SOL    HW122505   5.990   0.212   3.105 -0.2148 -1.6609  1.0610
 7309SOL    HW222506   5.986   0.303   3.226  1.6410  0.2383 -0.2361
 7310SOL     OW22507   5.767   3.068   9.871 -0.7709  0.3172 -0.0048
 7310SOL    HW122508   5.769   2.973   9.884  1.4734  0.1787 -0.8608
 7310SOL    HW222509   5.678   3.086   9.839 -0.9593 -1.6478 -0.7409
 7311SOL     OW22510   7.869   4.350   1.994 -0.3448 -0.4644 -0.3492
 7311SOL    HW122511   7.859   4.432   2.043 -1.1156 -0.3192 -0.7303
 7311SOL    HW222512   7.861   4.376   1.902 -1.4128 -1.0698 -0.4384
 7312SOL     OW22513   8.254   0.226   3.287  0.1245  0.1121 -0.1087
 7312SOL    HW122514   8.162   0.251   3.284  0.2573  0.6441  0.2143
 7312SOL    HW222515   8.295   0.276   3.216  0.1309 -0.2854 -0.3910
 7313SOL     OW22516   4.425   7.443   5.265  0.1029  0.1381 -0.1644
 7313SOL    HW122517   4.509   7.486   5.280  0.0563 -0.1146  0.9103
 7313SOL    HW222518   4.396   7.417   5.353  0.2655 -2.3194 -0.7852
 7314SOL     OW22519   1.227   6.828   0.636 -0.6265 -1.0672  0.5417
 7314SOL    HW122520   1.259   6.751   0.590 -0.9023 -0.8958  0.0608
 7314SOL    HW222521   1.289   6.897   0.613 -0.2381 -1.1950  1.1679
 7315SOL     OW22522   2.406   6.860   9.839  0.1168  0.3759 -0.0377
 7315SOL    HW122523   2.432   6.849   9.748  1.5307  0.1020  0.3759
 7315SOL    HW222524   2.336   6.797   9.852  0.3799 -0.0729 -0.7583
 7316SOL     OW22525   6.610   8.101   9.420  0.1321  0.0222 -0.0086
 7316SOL    HW122526   6.658   8.169   9.373 -1.4642 -0.0573 -1.8691
 7316SOL    HW222527   6.678   8.041   9.452  1.3918  1.1116 -0.5657
 7317SOL     OW22528   1.140   8.684   3.667 -0.6787 -0.2885 -0.3584
 7317SOL    HW122529   1.087   8.707   3.591 -0.7122  0.6435 -0.0766
 7317SOL    HW222530   1.085   8.706   3.742 -0.7528 -1.4541 -0.0500
 7318SOL     OW22531   7.333   5.931   1.625  0.1728 -0.1336  0.4450
 7318SOL    HW122532   7.298   5.936   1.536 -0.5265  0.0341  0.7194
 7318SOL    HW222533   7.358   6.021   1.645  2.8392 -0.5671 -0.5319
 7319SOL     OW22534   8.448   3.290   7.957 -0.3118 -0.6159  0.0231
 7319SOL    HW122535   8.365   3.333   7.937  0.0194  0.7517  1.3853
 7319SOL    HW222536   8.510   3.328   7.895 -0.4641 -0.8091 -0.2516
 7320SOL     OW22537   7.199   3.669   4.316 -0.0959 -0.2459 -0.0952
 7320SOL    HW122538   7.226   3.749   4.361  1.2691  0.2645 -1.7323
 7320SOL    HW222539   7.151   3.699   4.239  0.4806 -0.9885 -0.7563
 7321SOL     OW22540   6.069   7.614   5.794  0.2720 -0.0669  0.5471
 7321SOL    HW122541   6.076   7.707   5.771  1.8103 -0.8726 -2.9185
 7321SOL    HW222542   6.145   7.596   5.849 -0.4793  0.8058  1.9461
 7322SOL     OW22543   3.868   9.112   2.555 -0.3077 -0.1912 -0.1869
 7322SOL    HW122544   3.957   9.078   2.563 -0.5401 -0.6787  0.3952
 7322SOL    HW222545   3.815   9.035   2.534 -0.5368  0.1642 -0.9258
 7323SOL     OW22546   8.751   3.441   5.962  0.1834  0.0905 -0.1047
 7323SOL    HW122547   8.708   3.501   5.902 -1.6081  1.4155  2.3556
 7323SOL    HW222548   8.828   3.488   5.993  1.0857 -0.5769 -1.2662
 7324SOL     OW22549   3.277   2.804   7.362 -0.0007 -0.5492 -0.1664
 7324SOL    HW122550   3.218   2.755   7.305  0.2643  0.2594 -1.1493
 7324SOL    HW222551   3.347   2.835   7.304  0.1362  0.5108  0.5479
 7325SOL     OW22552   9.342   1.782   1.010 -0.1834  0.3692 -0.7734
 7325SOL    HW122553   9.260   1.831   1.008 -0.0586  0.5587 -1.4198
 7325SOL    HW222554   9.321   1.702   1.060 -0.8849  0.1915 -1.3346
 7326SOL     OW22555   4.216   9.083   3.727 -0.4379 -0.2311  0.0633
 7326SOL    HW122556   4.274   9.133   3.669  0.1544 -1.8764 -0.8108
 7326SOL    HW222557   4.253   9.098   3.815  0.8247 -0.5581 -0.3836
 7327SOL     OW22558   7.501   2.949   3.304  0.1072  0.7273 -0.4024
 7327SOL    HW122559   7.467   3.031   3.340 -1.2127 -0.0712  0.2616
 7327SOL    HW222560   7.468   2.946   3.215  0.5761  1.1368 -0.5965
 7328SOL     OW22561   5.217   9.613   0.906 -0.1187 -0.3449  0.0122
 7328SOL    HW122562   5.185   9.552   0.972  1.2868 -0.4021  0.6711
 7328SOL    HW222563   5.147   9.679   0.900  0.5109  0.7997  3.0835
 7329SOL     OW22564   9.441   4.061   6.048 -0.5154 -0.6534  0.2203
 7329SOL    HW122565   9.519   4.006   6.053 -0.4105 -0.7642 -1.7777
 7329SOL    HW222566   9.369   4.004   6.076  0.2045 -0.1231  3.5527
 7330SOL     OW22567   5.967   7.053   5.126  0.2123  0.7685 -0.0298
 7330SOL    HW122568   5.934   7.139   5.100 -2.1548  0.2763  1.0752
 7330SOL    HW222569   5.903   7.021   5.190  1.2024 -1.6690 -0.1480
 7331SOL     OW22570   3.072   3.208   1.561  0.3298 -0.1020  0.0786
 7331SOL    HW122571   3.144   3.155   1.596 -0.6696 -0.7134  1.2640
 7331SOL    HW222572   3.026   3.241   1.638 -2.2979 -1.9749 -0.5690
 7332SOL     OW22573   6.476   4.930   6.467  0.0063  0.4944  0.0096
 7332SOL    HW122574   6.477   5.025   6.483 -0.3422  0.4424  0.3690
 7332SOL    HW222575   6.394   4.916   6.419  0.3097  0.4422 -0.4968
 7333SOL     OW22576   0.907   3.669   8.956  0.4021  0.2808  0.6271
 7333SOL    HW122577   0.830   3.612   8.961  0.1461  0.5927  0.2921
 7333SOL    HW222578   0.982   3.609   8.958  0.1785  0.0165  1.7887
 7334SOL     OW22579   4.950   6.219   8.176  0.5011  0.0078  0.0202
 7334SOL    HW122580   5.015   6.290   8.183  2.0069 -1.4097  1.3798
 7334SOL    HW222581   5.003   6.140   8.168 -1.0943 -1.1548  0.6042
 7335SOL     OW22582   0.240   8.151   8.163 -0.8717 -0.6242 -0.3649
 7335SOL    HW122583   0.314   8.140   8.104  0.6157  1.1571  1.0382
 7335SOL    HW222584   0.245   8.076   8.222  0.5899  0.0702  0.4500
 7336SOL     OW22585   0.956   9.776   8.094 -0.4959  0.0252  0.5963
 7336SOL    HW122586   0.923   9.686   8.089 -0.0705 -0.0539 -2.2819
 7336SOL    HW222587   1.050   9.768   8.082 -0.6133  0.8917 -1.3576
 7337SOL     OW22588   8.470   2.524   2.256 -0.2048 -0.0480 -0.0017
 7337SOL    HW122589   8.419   2.598   2.223  1.3073  0.2000 -1.8940
 7337SOL    HW222590   8.561   2.545   2.234  0.4638 -1.6015  1.1208
 7338SOL     OW22591   7.590   9.466   2.393 -0.6697  0.0884  0.1171
 7338SOL    HW122592   7.622   9.437   2.479 -0.7515  0.4219  0.2613
 7338SOL    HW222593   7.663   9.452   2.333 -0.5667 -0.0183  0.2684
 7339SOL     OW22594   6.496   2.162   1.894  0.3913  0.2579  0.0223
 7339SOL    HW122595   6.420   2.155   1.836  1.2710  0.1143 -1.1690
 7339SOL    HW222596   6.494   2.081   1.946 -0.2846  0.2748  0.0349
 7340SOL     OW22597   6.926   8.100   6.059 -0.8157 -0.0128 -0.2802
 7340SOL    HW122598   6.891   8.042   5.992 -2.5435  0.7137 -0.0585
 7340SOL    HW222599   6.989   8.045   6.108  0.1555 -0.6675 -2.1615
 7341SOL     OW22600   4.625   1.718   3.425  0.1680  0.0352  0.0332
 7341SOL    HW122601   4.584   1.684   3.504 -0.7381  1.2194  0.1007
 7341SOL    HW222602   4.559   1.776   3.387  0.1418 -1.3012 -2.1809
 7342SOL     OW22603   0.609   2.697   4.260 -0.1867 -0.1455  0.4111
 7342SOL    HW122604   0.645   2.781   4.233 -1.9426 -0.0724 -1.9795
 7342SOL    HW222605   0.527   2.718   4.304  0.0645 -0.5841  1.1262
 7343SOL     OW22606   4.846   7.000   4.724  0.2027 -0.0624 -0.1906
 7343SOL    HW122607   4.764   6.952   4.713 -0.6149  0.9801  0.9806
 7343SOL    HW222608   4.888   6.995   4.639 -1.6904  0.4337 -1.2218
 7344SOL     OW22609   7.337   2.780   0.676 -0.0065  0.3634 -0.5933
 7344SOL    HW122610   7.242   2.794   0.685 -0.5217 -2.1475 -1.3209
 7344SOL    HW222611   7.375   2.866   0.694 -2.4065  1.4573 -0.2447
 7345SOL     OW22612   6.251   9.541   7.398  0.2752  0.5327 -0.4037
 7345SOL    HW122613   6.284   9.593   7.326  0.3084  0.1164 -0.6943
 7345SOL    HW222614   6.304   9.461   7.397 -0.4343  0.0525 -0.6026
 7346SOL     OW22615   7.074   7.659   4.525 -0.4184 -0.1721  0.3213
 7346SOL    HW122616   7.142   7.689   4.465 -0.3247 -0.7409  0.1373
 7346SOL    HW222617   7.052   7.571   4.494 -0.7427 -0.2625  0.7990
 7347SOL     OW22618   6.740   2.019   0.023  0.3352  0.9861  0.4860
 7347SOL    HW122619   6.825   2.064   0.021  0.4670  0.7710  1.1560
 7347SOL    HW222620   6.754   1.943   0.080  0.0438  0.2306 -0.4059
 7348SOL     OW22621   3.911   7.593   2.816 -0.3466 -0.1426 -0.3987
 7348SOL    HW122622   3.841   7.536   2.783  0.3842 -1.1073 -0.3231
 7348SOL    HW222623   3.974   7.597   2.744 -0.1168  0.1029 -0.1845
 7349SOL     OW22624   7.756   9.957   9.533  0.3218 -0.5357  0.2623
 7349SOL    HW122625   7.717  10.029   9.583  1.2388 -0.4615  0.9029
 7349SOL    HW222626   7.699   9.947   9.457  0.4256  1.1776 -0.0765
 7350SOL     OW22627   4.526   7.102   4.825  0.1759 -0.2495  0.2869
 7350SOL    HW122628   4.549   7.066   4.910  1.5640 -2.5244 -0.9878
 7350SOL    HW222629   4.557   7.038   4.761 -0.2783  1.6518 -1.9929
 7351SOL     OW22630   0.451   5.835   4.008 -0.5369  0.1703 -0.5071
 7351SOL    HW122631   0.500   5.753   4.019 -0.1801  0.2176 -1.5853
 7351SOL    HW222632   0.505   5.886   3.948 -1.3592  0.7032 -0.7996
 7352SOL     OW22633   3.534   4.575   3.799 -0.0035 -0.5308 -0.4130
 7352SOL    HW122634   3.508   4.612   3.884  0.7464 -0.4632 -0.2047
 7352SOL    HW222635   3.616   4.621   3.778 -1.2125  0.9632 -2.1642
 7353SOL     OW22636   3.224   6.961   3.169 -0.0222 -0.2840 -0.7551
 7353SOL    HW122637   3.139   7.001   3.183  0.2884  0.2173 -0.2864
 7353SOL    HW222638   3.288   7.029   3.190  0.5142 -1.0111  0.0718
 7354SOL     OW22639   6.320   7.882   1.400 -0.3530  0.3903  0.5125
 7354SOL    HW122640   6.306   7.849   1.488  1.7869  3.0646  1.9983
 7354SOL    HW222641   6.268   7.962   1.395  0.6652  1.0402 -0.1087
 7355SOL     OW22642   8.583   7.497   0.960  0.5287 -0.4131 -0.1837
 7355SOL    HW122643   8.580   7.590   0.936  0.2814 -0.4768 -0.4054
 7355SOL    HW222644   8.535   7.453   0.890  0.5753 -0.7003 -0.0354
 7356SOL     OW22645   8.750   6.272   9.355 -0.2391 -0.1710  0.2561
 7356SOL    HW122646   8.787   6.203   9.411  0.0670  0.8168  1.3061
 7356SOL    HW222647   8.748   6.349   9.411  0.6053  1.0081 -1.2662
 7357SOL     OW22648   4.091   0.732   8.725 -0.1301  0.2020 -0.3762
 7357SOL    HW122649   4.179   0.718   8.761 -0.3237  1.3296  0.6112
 7357SOL    HW222650   4.059   0.644   8.705  0.2915 -0.4532  1.5820
 7358SOL     OW22651   1.163   1.625   8.053 -0.2473 -0.0216  0.1603
 7358SOL    HW122652   1.129   1.714   8.054  2.2082  1.0273 -0.9521
 7358SOL    HW222653   1.090   1.572   8.021 -1.0513  1.9827 -1.5978
 7359SOL     OW22654   6.796   5.075   9.846 -0.0452 -0.5066  0.7521
 7359SOL    HW122655   6.815   5.003   9.786  1.6742 -0.4305  1.1344
 7359SOL    HW222656   6.825   5.044   9.931  2.6766  1.2725  0.6064
 7360SOL     OW22657   5.421   5.898   5.991 -0.3194  0.2792  0.2658
 7360SOL    HW122658   5.411   5.873   5.899 -2.2286  0.4824  0.3720
 7360SOL    HW222659   5.350   5.961   6.006 -0.3860 -0.1600  2.0174
 7361SOL     OW22660   8.210   1.172   9.126  0.1026  0.3561  0.5080
 7361SOL    HW122661   8.123   1.150   9.160 -0.0838 -0.5894 -0.5041
 7361SOL    HW222662   8.210   1.137   9.037  1.6979 -0.1077  0.6613
 7362SOL     OW22663   2.558   3.675   0.585  0.2811  0.2443  0.2326
 7362SOL    HW122664   2.583   3.584   0.575 -0.0271  0.2862 -1.1474
 7362SOL    HW222665   2.468   3.672   0.617  0.9590  0.0989  2.2818
 7363SOL     OW22666   1.109   7.244   1.784  0.1689  0.8007 -0.7429
 7363SOL    HW122667   1.103   7.219   1.692  0.0210  1.1419 -0.8287
 7363SOL    HW222668   1.201   7.232   1.807  0.1681  0.5268 -0.8784
 7364SOL     OW22669   4.539   9.816   3.406  0.0922  0.2547 -0.3270
 7364SOL    HW122670   4.535   9.724   3.382 -1.6759  0.2737 -0.1884
 7364SOL    HW222671   4.584   9.858   3.332 -1.1918 -0.3834 -1.5056
 7365SOL     OW22672   0.133   2.783   1.910 -0.4858  0.6289 -0.3167
 7365SOL    HW122673   0.100   2.816   1.994  0.9068  0.0935  0.4892
 7365SOL    HW222674   0.137   2.859   1.853 -0.8664  1.1235  0.3087
 7366SOL     OW22675   2.603   4.457   6.995 -0.3308 -0.3691  0.1857
 7366SOL    HW122676   2.687   4.468   6.950  0.0927  0.7025  1.1750
 7366SOL    HW222677   2.624   4.464   7.088 -1.7957  2.5092  0.4141
 7367SOL     OW22678   9.301   1.018   2.295 -0.1136 -0.7522  0.3968
 7367SOL    HW122679   9.350   1.003   2.214  0.5681 -0.4186  0.7397
 7367SOL    HW222680   9.297   0.931   2.337 -1.2425 -1.1049 -0.4102
 7368SOL     OW22681   0.440   9.089   6.022  0.3135  0.5592  0.3168
 7368SOL    HW122682   0.487   9.008   6.044  0.6859  0.5292 -0.5390
 7368SOL    HW222683   0.371   9.096   6.089  0.3839 -0.3733  0.4996
 7369SOL     OW22684   2.126   2.213   1.124  0.0047  0.1489 -0.3158
 7369SOL    HW122685   2.097   2.197   1.034 -1.4049 -0.5886  0.2315
 7369SOL    HW222686   2.070   2.156   1.178  0.4403  0.9757  1.0716
 7370SOL     OW22687   3.730   3.786   7.684 -0.1479  0.3219 -0.1078
 7370SOL    HW122688   3.686   3.777   7.768  3.0050 -0.0572  1.6285
 7370SOL    HW222689   3.702   3.872   7.652 -2.3422 -0.0395  0.6675
 7371SOL     OW22690   3.202   9.109   3.716 -0.3932 -0.3823 -0.0380
 7371SOL    HW122691   3.188   9.044   3.647  0.9515  0.5455 -1.2652
 7371SOL    HW222692   3.164   9.189   3.680  1.1678  0.3411 -0.1472
 7372SOL     OW22693   7.373   1.095   5.514 -0.0393 -0.5696 -0.1341
 7372SOL    HW122694   7.337   1.012   5.544 -1.8215  0.2022 -0.0136
 7372SOL    HW222695   7.455   1.105   5.564  0.1473 -2.1765 -0.0840
 7373SOL     OW22696   9.438   9.694   4.241 -0.3717  0.4959  0.0312
 7373SOL    HW122697   9.518   9.706   4.190 -0.3556  0.4603  0.0471
 7373SOL    HW222698   9.389   9.775   4.229  1.3319  2.1032  2.9979
 7374SOL     OW22699   3.608   2.832   5.802 -0.3446 -0.1230  0.9644
 7374SOL    HW122700   3.595   2.877   5.885  0.8332  1.9463  0.0861
 7374SOL    HW222701   3.519   2.817   5.769 -0.7840  1.7299  1.2237
 7375SOL     OW22702   5.737   8.634   4.601 -0.0350 -0.2038 -0.3088
 7375SOL    HW122703   5.646   8.607   4.590  0.6217 -1.9260 -2.2581
 7375SOL    HW222704   5.754   8.692   4.526 -0.1341  2.1876  1.3800
 7376SOL     OW22705   4.368   8.050   1.579  0.1173 -0.1731 -0.8888
 7376SOL    HW122706   4.305   7.985   1.549  1.2240 -2.3738  1.1730
 7376SOL    HW222707   4.350   8.059   1.673  1.2888  1.0081 -0.7508
 7377SOL     OW22708   4.400   1.347   5.151 -0.5658 -0.3101 -0.0914
 7377SOL    HW122709   4.417   1.416   5.087  1.0939 -0.7631 -0.1939
 7377SOL    HW222710   4.487   1.313   5.173 -1.2872 -1.8814  0.4876
 7378SOL     OW22711   4.786   9.416   6.870 -0.3117  0.2063 -0.4953
 7378SOL    HW122712   4.775   9.321   6.865  2.3208 -0.1258 -1.6258
 7378SOL    HW222713   4.735   9.450   6.797 -1.3074 -0.3052 -0.0580
 7379SOL     OW22714   8.665   4.977   0.160  0.1417  0.1179  0.1448
 7379SOL    HW122715   8.574   4.988   0.132 -0.2744 -0.6590  1.1171
 7379SOL    HW222716   8.674   4.883   0.175  0.8426  0.2927  0.8992
 7380SOL     OW22717   4.800   6.395   1.789  0.5172 -0.9486  0.0260
 7380SOL    HW122718   4.868   6.445   1.745  2.0794 -1.3469  1.8596
 7380SOL    HW222719   4.823   6.304   1.773  1.2077 -1.1070  1.7020
 7381SOL     OW22720   2.143   8.990   0.565  0.3498  0.0790 -0.9828
 7381SOL    HW122721   2.131   8.911   0.618  0.8328  0.4165 -0.3570
 7381SOL    HW222722   2.107   9.061   0.619  0.3439  0.3466 -1.3387
 7382SOL     OW22723   8.459   1.024   4.265  0.2470  0.1323 -0.4107
 7382SOL    HW122724   8.474   0.966   4.340  0.0914  0.6071 -0.0051
 7382SOL    HW222725   8.545   1.063   4.247 -0.0075  1.1624  0.4938
 7383SOL     OW22726   6.430   2.506   0.715 -0.2077  0.1838 -0.6526
 7383SOL    HW122727   6.502   2.461   0.761 -0.1768  1.5693  0.7175
 7383SOL    HW222728   6.387   2.436   0.665  1.7811 -0.7742 -1.1362
 7384SOL     OW22729   0.986   9.808   7.347 -0.2445  0.1956  0.2675
 7384SOL    HW122730   1.055   9.748   7.320 -1.5524 -1.7051  0.9345
 7384SOL    HW222731   0.924   9.807   7.274 -0.2441  0.8352  0.2513
 7385SOL     OW22732   6.810   9.632   0.113  0.0666  0.1884  0.5395
 7385SOL    HW122733   6.861   9.713   0.123  1.2172 -0.1502 -1.9486
 7385SOL    HW222734   6.875   9.565   0.092 -1.2105 -0.6446 -0.8983
 7386SOL     OW22735   1.928   4.060   8.008 -0.3037  0.1426 -0.2365
 7386SOL    HW122736   1.882   4.124   7.954  1.2590  1.7411  0.2231
 7386SOL    HW222737   1.980   4.010   7.946  2.0859  2.4749 -0.2997
 7387SOL     OW22738   3.899   9.227   8.304  0.3538  0.0117 -0.2700
 7387SOL    HW122739   3.856   9.174   8.237 -0.7793  2.8160 -1.9371
 7387SOL    HW222740   3.922   9.309   8.260  3.8303  0.2466  1.6314
 7388SOL     OW22741   8.209   9.705   9.401 -0.5080  0.1648 -0.1274
 7388SOL    HW122742   8.122   9.742   9.384 -0.2259  1.2326  0.6488
 7388SOL    HW222743   8.251   9.769   9.458  1.7790  1.0178 -2.5849
 7389SOL     OW22744   9.502   7.367   8.305 -0.3699 -0.0124  0.0556
 7389SOL    HW122745   9.459   7.403   8.228  0.6445 -0.4373 -0.7432
 7389SOL    HW222746   9.534   7.443   8.353 -1.6155  0.2861  0.4401
 7390SOL     OW22747   0.036   1.783   0.311  0.5240 -0.3947  0.2759
 7390SOL    HW122748   0.107   1.803   0.373  1.2708  1.3057 -1.0556
 7390SOL    HW222749  -0.038   1.836   0.341 -0.3410 -2.3174  1.7826
 7391SOL     OW22750   2.768   1.482   7.621 -0.2976  0.3125 -0.0991
 7391SOL    HW122751   2.834   1.545   7.648  1.6634 -2.0803  1.1510
 7391SOL    HW222752   2.710   1.474   7.697 -1.1498  1.2837 -0.6272
 7392SOL     OW22753   3.859   7.731   9.855  0.0365  0.4616 -0.1138
 7392SOL    HW122754   3.943   7.701   9.889  0.2927  1.2436 -0.0314
 7392SOL    HW222755   3.881   7.801   9.794 -0.5073  0.0842 -0.7661
 7393SOL     OW22756   8.758   2.604   6.723  0.2426  0.0427  0.0279
 7393SOL    HW122757   8.758   2.580   6.816  0.4604  0.5674  0.1697
 7393SOL    HW222758   8.685   2.556   6.685  0.5071 -0.6303  0.3522
 7394SOL     OW22759   4.148   3.501   9.012  0.4431 -0.0056  0.1941
 7394SOL    HW122760   4.187   3.556   9.079 -0.3053 -1.0047  1.4988
 7394SOL    HW222761   4.189   3.416   9.023  0.5571 -0.1030 -0.8570
 7395SOL     OW22762   3.747   1.673   4.104 -0.4874  0.3713  0.2324
 7395SOL    HW122763   3.785   1.746   4.152  0.6657 -0.8186  1.1850
 7395SOL    HW222764   3.657   1.668   4.134  0.1136 -0.1337  2.0716
 7396SOL     OW22765   8.839   8.898   1.035  0.2555  0.2963  0.1004
 7396SOL    HW122766   8.810   8.808   1.016  0.1984 -0.3346  2.7387
 7396SOL    HW222767   8.906   8.916   0.970 -0.6297 -1.1507 -1.3066
 7397SOL     OW22768   3.176   2.501   9.266  0.1627 -0.4547  0.2811
 7397SOL    HW122769   3.080   2.503   9.261  0.1399 -0.9761  0.4389
 7397SOL    HW222770   3.205   2.519   9.177 -0.0785 -0.2234  0.2458
 7398SOL     OW22771   4.461   8.935   7.559 -0.2099  0.2103 -0.0124
 7398SOL    HW122772   4.517   8.984   7.620  1.0654 -2.0708  0.7622
 7398SOL    HW222773   4.378   8.926   7.606 -0.5441  1.7422 -0.2530
 7399SOL     OW22774   8.785   6.786   8.169  0.1459 -0.4052 -0.0923
 7399SOL    HW122775   8.729   6.716   8.135 -0.2543 -0.4052  0.5488
 7399SOL    HW222776   8.867   6.777   8.121  0.5572 -2.1156  0.8797
 7400SOL     OW22777   5.612   6.512   0.084 -0.2667  0.3403 -0.1176
 7400SOL    HW122778   5.636   6.419   0.087  1.0231  0.6744  0.5138
 7400SOL    HW222779   5.592   6.529  -0.008  0.6599 -0.2756 -0.4415
 7401SOL     OW22780   9.039   5.402   3.479  0.5781  0.3841 -0.3450
 7401SOL    HW122781   8.961   5.346   3.470  0.4372  0.4610  0.3640
 7401SOL    HW222782   9.112   5.345   3.458  0.4171 -0.0110  0.1502
 7402SOL     OW22783   8.881   0.505   5.645 -0.2335 -0.0800  0.2232
 7402SOL    HW122784   8.816   0.474   5.708 -0.2195 -0.4030  0.0841
 7402SOL    HW222785   8.834   0.507   5.562 -0.4997  1.2165  0.3957
 7403SOL     OW22786   6.372   9.242   3.141 -0.0445  0.1104  0.4679
 7403SOL    HW122787   6.333   9.215   3.224  0.5950  0.7591  0.9850
 7403SOL    HW222788   6.462   9.267   3.164  0.2813 -0.1431 -0.4947
 7404SOL     OW22789   9.457   8.784   8.654  0.1568 -0.5795  0.0770
 7404SOL    HW122790   9.486   8.866   8.693 -1.1866  0.0786 -0.2354
 7404SOL    HW222791   9.365   8.776   8.681 -0.8378 -0.1258 -2.8072
 7405SOL     OW22792   5.228   4.755   4.577 -0.1773 -0.7097  0.0770
 7405SOL    HW122793   5.173   4.737   4.653 -1.1417 -1.8087 -0.8357
 7405SOL    HW222794   5.180   4.822   4.528  0.1579 -0.4158  0.1469
 7406SOL     OW22795   3.781   7.708   0.604 -0.0050  0.0537 -0.3978
 7406SOL    HW122796   3.858   7.661   0.634  0.7526  0.8021 -1.1175
 7406SOL    HW222797   3.789   7.795   0.642 -0.0024  0.4256 -1.2312
 7407SOL     OW22798   7.598   9.866   9.344  0.1308 -0.0498 -0.2177
 7407SOL    HW122799   7.603   9.887   9.250  1.2511 -0.0857 -0.1816
 7407SOL    HW222800   7.615   9.772   9.348 -2.3721 -0.5519 -0.1656
 7408SOL     OW22801   7.721   6.776   8.540  0.4694  0.4534  0.1468
 7408SOL    HW122802   7.745   6.689   8.571 -0.7111 -0.6452 -1.7898
 7408SOL    HW222803   7.638   6.795   8.583  0.2819  0.2145 -0.1059
 7409SOL     OW22804   0.114   4.311   0.413 -0.2790  0.1122 -0.3332
 7409SOL    HW122805   0.168   4.245   0.372 -1.3670 -1.3575  0.5096
 7409SOL    HW222806   0.174   4.382   0.435  1.2317 -1.3042  0.2473
 7410SOL     OW22807   9.393   3.069   9.447  0.1351  0.5016  0.4096
 7410SOL    HW122808   9.307   3.063   9.405  0.5103  0.8076 -0.4318
 7410SOL    HW222809   9.419   3.160   9.436  1.9224 -0.1844 -2.2186
 7411SOL     OW22810   9.792   8.560   1.124  0.1478  0.1600 -0.5090
 7411SOL    HW122811   9.879   8.563   1.085  0.7684 -0.4471  0.7547
 7411SOL    HW222812   9.785   8.641   1.174  0.8453 -0.7040  1.0599
 7412SOL     OW22813   9.314   0.763   7.378 -0.0825  0.0207 -0.2924
 7412SOL    HW122814   9.328   0.792   7.468  0.4637  1.0686 -0.7024
 7412SOL    HW222815   9.391   0.710   7.357 -0.3948 -0.5486 -0.0224
 7413SOL     OW22816   9.699   5.266   7.009 -0.1818  0.1672  0.8475
 7413SOL    HW122817   9.794   5.261   7.022 -0.0056  0.8205 -0.0904
 7413SOL    HW222818   9.662   5.220   7.084  0.9360 -3.5051 -0.6390
 7414SOL     OW22819   4.962   7.341   0.331  0.2479  0.6315  0.5725
 7414SOL    HW122820   5.009   7.363   0.250  0.0744 -0.4313  0.1782
 7414SOL    HW222821   5.031   7.325   0.395  0.3991  0.6179  0.4075
 7415SOL     OW22822   4.699   8.935   1.759  0.2886 -0.3152  0.0676
 7415SOL    HW122823   4.713   8.922   1.852 -0.9419  2.4765  0.7508
 7415SOL    HW222824   4.783   8.966   1.726  0.5535 -0.7078  0.3668
 7416SOL     OW22825   3.367   6.381   5.027 -0.6148 -0.4048 -0.3503
 7416SOL    HW122826   3.374   6.312   5.093  0.5766 -1.3835 -1.4569
 7416SOL    HW222827   3.351   6.335   4.945  0.5908  0.5934 -1.1886
 7417SOL     OW22828   3.442   4.720   6.865  0.1750  0.2643  0.2239
 7417SOL    HW122829   3.537   4.722   6.870  0.1628  3.7443  1.5508
 7417SOL    HW222830   3.421   4.761   6.781 -0.1915 -0.2035  0.0800
 7418SOL     OW22831   6.776   5.643   0.915  0.7604  0.2622  0.5543
 7418SOL    HW122832   6.748   5.735   0.907  0.6919  0.2065  0.1429
 7418SOL    HW222833   6.815   5.638   1.003  0.7672  0.6872  0.5804
 7419SOL     OW22834   3.601   5.932   3.095  0.4492  0.4598 -0.1448
 7419SOL    HW122835   3.679   5.957   3.145 -0.7343  1.2508  1.3687
 7419SOL    HW222836   3.563   5.860   3.143 -0.7878  1.3235  0.2125
 7420SOL     OW22837   3.150   0.927   5.612 -0.5452  0.1463 -0.1983
 7420SOL    HW122838   3.083   0.930   5.545  1.1677 -0.5367 -2.0472
 7420SOL    HW222839   3.197   0.845   5.596  0.1835  0.1507  1.6004
 7421SOL     OW22840   2.170   3.888   5.995  0.3230 -0.1342  0.4748
 7421SOL    HW122841   2.158   3.963   6.052  0.0762  0.9672 -0.9681
 7421SOL    HW222842   2.084   3.875   5.954  0.3450 -1.2485  0.7409
 7422SOL     OW22843   8.901   1.446   4.371  0.2791 -0.0398  0.1668
 7422SOL    HW122844   8.835   1.469   4.437  0.3819  0.0925  0.2238
 7422SOL    HW222845   8.889   1.511   4.302  0.2596 -0.0974  0.1157
 7423SOL     OW22846   7.769   8.484   4.885  0.4883 -0.4137 -0.0815
 7423SOL    HW122847   7.772   8.441   4.970 -2.8258  2.2782  1.6270
 7423SOL    HW222848   7.684   8.459   4.848 -0.0005  1.7536 -0.5825
 7424SOL     OW22849   0.027   4.930   1.420 -0.1252 -0.2105  0.4690
 7424SOL    HW122850   0.034   4.932   1.515  1.6479  0.9771  0.3613
 7424SOL    HW222851  -0.018   5.011   1.397 -0.1748 -0.2910  0.2790
 7425SOL     OW22852   7.252   7.439   8.956  0.2873 -0.9210 -0.2363
 7425SOL    HW122853   7.293   7.354   8.973 -0.9619 -1.4336  0.2672
 7425SOL    HW222854   7.324   7.493   8.922  2.1754 -0.8957  3.2999
 7426SOL     OW22855   2.570   8.789   8.588 -0.1940 -0.2440  0.1801
 7426SOL    HW122856   2.609   8.702   8.593  0.2984  0.0369  1.4438
 7426SOL    HW222857   2.607   8.826   8.508  0.2400 -0.8773  0.0762
 7427SOL     OW22858   3.311   3.881   4.817 -0.0071 -0.4283  0.0278
 7427SOL    HW122859   3.333   3.967   4.780 -0.9785 -1.1572 -2.4660
 7427SOL    HW222860   3.371   3.871   4.891  0.5889  2.0890  0.0013
 7428SOL     OW22861   9.016   6.170   5.468  0.4953  0.2608  0.3224
 7428SOL    HW122862   9.012   6.191   5.374  1.9158  0.4946  0.2980
 7428SOL    HW222863   9.081   6.100   5.475 -2.7264 -3.0017  0.6570
 7429SOL     OW22864   8.828   5.143   1.145 -0.6491  0.0663  0.0051
 7429SOL    HW122865   8.918   5.153   1.112  0.2253 -0.4462  2.0894
 7429SOL    HW222866   8.791   5.073   1.092  1.1527 -1.6647  0.9092
 7430SOL     OW22867   6.490   4.110   9.024  0.1801  0.3366 -0.0944
 7430SOL    HW122868   6.488   4.051   8.949 -0.2144  2.0979 -1.5502
 7430SOL    HW222869   6.398   4.134   9.038  0.3415  0.6816  0.4069
 7431SOL     OW22870   3.745   5.887   4.918 -0.0667 -0.1658 -0.0027
 7431SOL    HW122871   3.700   5.942   4.982  0.6469 -2.1049  2.3288
 7431SOL    HW222872   3.755   5.942   4.841 -1.6903  2.0396  1.2708
 7432SOL     OW22873   0.511   6.699   4.962 -0.2955 -0.5081  0.4275
 7432SOL    HW122874   0.458   6.701   4.883  0.0935  1.4083  0.1537
 7432SOL    HW222875   0.557   6.615   4.959 -3.0041 -2.1114  0.5298
 7433SOL     OW22876   6.260   3.035   1.172 -0.0176 -0.4095 -0.4474
 7433SOL    HW122877   6.250   2.973   1.099  1.5467 -1.3180  0.0751
 7433SOL    HW222878   6.285   3.117   1.129 -1.0376 -0.3830 -1.0555
 7434SOL     OW22879   3.252   0.439   0.418 -0.4522 -0.0204 -0.4926
 7434SOL    HW122880   3.224   0.520   0.376 -0.0719 -0.0052 -0.7177
 7434SOL    HW222881   3.337   0.460   0.457 -0.6386 -0.1343 -0.0171
 7435SOL     OW22882   7.124   1.881   1.218  0.0964 -0.7682 -0.1525
 7435SOL    HW122883   7.030   1.863   1.224 -0.0903  0.3525  0.5781
 7435SOL    HW222884   7.145   1.924   1.301  1.1689 -0.6290 -0.4868
 7436SOL     OW22885   2.135   9.723   2.235  0.5730  0.1661  0.0479
 7436SOL    HW122886   2.088   9.806   2.226  2.6850  1.3963 -0.2802
 7436SOL    HW222887   2.171   9.706   2.149 -0.0158 -1.2523  0.0575
 7437SOL     OW22888   1.205   3.040   2.221  0.7050  0.1845 -0.1681
 7437SOL    HW122889   1.282   3.081   2.182 -0.3405  2.9185  0.4313
 7437SOL    HW222890   1.130   3.083   2.180 -0.4448  0.4208  2.0026
 7438SOL     OW22891   3.712   1.183   6.502  0.4697  0.2062  0.0059
 7438SOL    HW122892   3.724   1.164   6.595  0.3375  1.2324  0.2430
 7438SOL    HW222893   3.621   1.159   6.484 -0.0343  1.5962  0.5677
 7439SOL     OW22894   6.440   8.661   5.178 -0.3700  0.0883 -0.2306
 7439SOL    HW122895   6.534   8.671   5.197 -0.4308  0.8062 -0.2810
 7439SOL    HW222896   6.408   8.751   5.169 -0.6799 -0.1860 -2.1030
 7440SOL     OW22897   9.465   4.545   0.471  0.2190  0.1870  0.3400
 7440SOL    HW122898   9.410   4.575   0.543  1.2371 -0.6281  1.5079
 7440SOL    HW222899   9.512   4.624   0.443 -1.4584  0.8798 -0.6496
 7441SOL     OW22900   9.313   1.696   3.403  0.4580 -0.2017 -0.0592
 7441SOL    HW122901   9.236   1.673   3.352  0.6005 -0.1075 -0.3189
 7441SOL    HW222902   9.289   1.679   3.494  0.2618 -0.5252 -0.1750
 7442SOL     OW22903   8.694   5.661   5.772  0.8392 -0.6737 -0.1203
 7442SOL    HW122904   8.758   5.732   5.761  0.8422 -0.3298  1.8024
 7442SOL    HW222905   8.743   5.592   5.817 -0.3406 -0.0290  2.2678
 7443SOL     OW22906   0.661   5.617   5.431 -0.6384  0.6287 -0.4023
 7443SOL    HW122907   0.607   5.662   5.496 -0.8987  1.4153 -1.1318
 7443SOL    HW222908   0.625   5.529   5.426  0.6740 -0.1419  1.9866
 7444SOL     OW22909   4.333   4.504   7.059  0.0420  0.2356  0.5775
 7444SOL    HW122910   4.311   4.595   7.041 -0.3350  0.4411  2.0178
 7444SOL    HW222911   4.367   4.504   7.148 -1.3373 -1.2516  1.1393
 7445SOL     OW22912   6.041   9.295   3.247  0.5595 -0.0930 -0.3464
 7445SOL    HW122913   5.999   9.380   3.258  0.0898 -0.0777 -1.9986
 7445SOL    HW222914   6.065   9.292   3.155  2.1975 -1.0341  0.0776
 7446SOL     OW22915   0.774   6.915   0.209 -0.1084  0.4675  0.3276
 7446SOL    HW122916   0.720   6.862   0.267  0.1287  0.0729  0.1959
 7446SOL    HW222917   0.859   6.871   0.210 -0.2145  0.2171 -0.6353
 7447SOL     OW22918   8.843   0.725   4.622  0.0191 -0.1011  0.4159
 7447SOL    HW122919   8.849   0.754   4.531 -0.2762 -2.5762 -0.4714
 7447SOL    HW222920   8.851   0.805   4.674  2.3439  1.1611 -1.6940
 7448SOL     OW22921   5.163   3.426   2.263 -0.4778 -0.4036 -0.2572
 7448SOL    HW122922   5.141   3.508   2.307 -0.6231 -1.0445  0.9149
 7448SOL    HW222923   5.135   3.358   2.325 -0.0544 -1.3290 -1.0613
 7449SOL     OW22924   6.998   5.162   7.297  0.6457 -0.0157  0.4978
 7449SOL    HW122925   6.935   5.130   7.232  1.2301  0.0361 -0.1060
 7449SOL    HW222926   6.979   5.255   7.305  1.9571  0.4501 -1.2353
 7450SOL     OW22927   2.319   2.929   1.268 -0.2528 -0.5397 -0.6526
 7450SOL    HW122928   2.374   2.984   1.212 -0.1087 -0.2164 -0.1998
 7450SOL    HW222929   2.230   2.960   1.249 -0.0809  0.9266  0.7026
 7451SOL     OW22930   7.815   0.760   2.988 -0.4154 -0.1458 -0.0382
 7451SOL    HW122931   7.837   0.748   2.896 -1.4487  0.2291 -0.3460
 7451SOL    HW222932   7.847   0.847   3.010  0.4076 -0.4815  0.1510
 7452SOL     OW22933   4.965   9.241   3.547  0.4056 -0.4517  0.7323
 7452SOL    HW122934   5.041   9.279   3.591  0.0622 -0.8191  1.6887
 7452SOL    HW222935   4.947   9.300   3.474 -0.3039  1.4319  2.3418
 7453SOL     OW22936   3.332   7.824   7.231  0.3003  0.4596 -0.5213
 7453SOL    HW122937   3.238   7.809   7.220  0.1711  0.2052  0.7878
 7453SOL    HW222938   3.372   7.738   7.220  0.5635  0.7907 -2.5393
 7454SOL     OW22939   6.468   5.870   2.897  0.7813 -0.6562  0.0389
 7454SOL    HW122940   6.433   5.782   2.910 -0.8121 -0.5309 -2.5805
 7454SOL    HW222941   6.408   5.927   2.944  0.1886 -0.7917 -0.5410
 7455SOL     OW22942   3.823   4.649   3.055 -0.1601  0.2654 -0.4034
 7455SOL    HW122943   3.835   4.635   2.962  0.2235 -1.3305 -0.1314
 7455SOL    HW222944   3.910   4.674   3.087  0.0746 -0.7666 -0.2161
 7456SOL     OW22945   2.578   7.658   5.026 -0.5490  0.2101 -0.0138
 7456SOL    HW122946   2.636   7.646   4.951 -1.1246 -1.0313 -0.2897
 7456SOL    HW222947   2.513   7.721   4.997 -0.3585  0.2730 -0.3091
 7457SOL     OW22948   8.966   8.162   9.632  0.1335  0.1851  0.5001
 7457SOL    HW122949   8.953   8.200   9.545  1.8025 -3.6163 -1.6648
 7457SOL    HW222950   9.049   8.200   9.662  0.6207  0.0094 -0.5698
 7458SOL     OW22951   1.868   9.851   4.635  0.4217 -0.5703  0.1756
 7458SOL    HW122952   1.899   9.937   4.608  0.9339 -0.6952  0.3426
 7458SOL    HW222953   1.838   9.864   4.725 -0.6400 -0.3053 -0.2061
 7459SOL     OW22954   8.664   0.800   8.310 -0.3390  0.7529  0.3232
 7459SOL    HW122955   8.667   0.896   8.303  0.5938  0.6530 -1.1179
 7459SOL    HW222956   8.625   0.771   8.227  0.8608 -0.1705  0.0588
 7460SOL     OW22957   1.076   5.429   6.000  0.0162 -0.4071  0.1516
 7460SOL    HW122958   1.044   5.474   5.921  0.0780  0.1789  0.4578
 7460SOL    HW222959   0.996   5.400   6.044 -0.2920  2.4676  1.7630
 7461SOL     OW22960   8.020   4.849   6.898 -0.2765 -0.4631 -0.0524
 7461SOL    HW122961   8.085   4.919   6.906 -0.7762 -0.0327  0.3361
 7461SOL    HW222962   7.941   4.885   6.939 -0.6484 -1.1191 -0.1788
 7462SOL     OW22963   7.676   2.835   3.975  0.3027 -0.2662 -0.0745
 7462SOL    HW122964   7.658   2.853   3.883  1.0845  0.9831 -0.0024
 7462SOL    HW222965   7.697   2.742   3.978 -0.0946 -0.3936 -1.0903
 7463SOL     OW22966   0.233   6.975   4.681 -0.0421 -0.3373  0.0982
 7463SOL    HW122967   0.144   6.987   4.715 -0.5006 -1.9838 -0.3785
 7463SOL    HW222968   0.229   7.010   4.592  0.5605  2.0081  0.9431
 7464SOL     OW22969   2.629   0.626   8.243  0.2692 -0.1456 -0.1163
 7464SOL    HW122970   2.621   0.718   8.215  2.2418  0.4584  1.1303
 7464SOL    HW222971   2.689   0.629   8.317 -1.8083 -2.1447  1.7751
 7465SOL     OW22972   1.946   7.615   9.963  0.1658 -0.4681 -0.0179
 7465SOL    HW122973   1.979   7.530   9.935  0.3252 -0.2856 -0.3900
 7465SOL    HW222974   2.024   7.665   9.988  0.2030  0.0139 -1.0347
 7466SOL     OW22975   2.591   7.814   6.589 -0.4033  0.0828  0.4193
 7466SOL    HW122976   2.597   7.730   6.545 -1.1802 -0.0231  0.5055
 7466SOL    HW222977   2.618   7.796   6.679  0.3791  0.1316  0.1999
 7467SOL     OW22978   5.584   1.626   5.202  0.2310  0.6236  0.0302
 7467SOL    HW122979   5.616   1.639   5.291 -1.2695 -0.2358  0.7405
 7467SOL    HW222980   5.497   1.667   5.202 -1.4905 -2.6856  0.1964
 7468SOL     OW22981   1.332   3.790   0.037 -0.0208  0.2595 -0.4076
 7468SOL    HW122982   1.251   3.822   0.078 -0.2497 -1.5071  0.6163
 7468SOL    HW222983   1.331   3.827  -0.051 -0.8706  1.9829  0.2899
 7469SOL     OW22984   6.824   4.542   8.761  0.7483 -0.2502 -0.0954
 7469SOL    HW122985   6.834   4.533   8.666  1.3328 -0.9318  0.0236
 7469SOL    HW222986   6.914   4.544   8.794  0.5444 -1.8672  0.6075
 7470SOL     OW22987   5.609   4.889   8.456 -0.1952  0.4266  0.0612
 7470SOL    HW122988   5.518   4.869   8.437 -0.2729  1.6901 -1.0597
 7470SOL    HW222989   5.656   4.807   8.439 -0.8190  0.4018 -1.7448
 7471SOL     OW22990   0.409   8.723   9.397 -0.8842 -0.2255 -0.1974
 7471SOL    HW122991   0.431   8.630   9.403 -0.4214 -0.0958  0.2057
 7471SOL    HW222992   0.492   8.768   9.412 -0.6571  0.2414 -2.5752
 7472SOL     OW22993   8.895   9.629   5.951 -0.6890 -0.3035  0.0328
 7472SOL    HW122994   8.856   9.654   6.035  2.2863 -0.8866  1.7124
 7472SOL    HW222995   8.926   9.711   5.915  0.9695 -0.3870  1.1663
 7473SOL     OW22996   3.419   5.466   8.220  0.0573 -0.0105  0.3892
 7473SOL    HW122997   3.376   5.389   8.258 -0.1946  0.1659  0.4672
 7473SOL    HW222998   3.471   5.502   8.291  1.4727 -1.0316 -0.0909
 7474SOL     OW22999   6.730   8.105   6.447  0.2743 -0.2466 -0.0117
 7474SOL    HW123000   6.792   8.040   6.480  0.0655  0.2811  1.5078
 7474SOL    HW223001   6.645   8.059   6.447  0.0749  0.0686  1.3411
 7475SOL     OW23002   2.446   5.098   7.713 -0.0505 -0.7176 -0.4776
 7475SOL    HW123003   2.455   5.022   7.656  1.1062 -1.6092  0.8301
 7475SOL    HW223004   2.468   5.173   7.658  1.6894 -1.6110 -1.0519
 7476SOL     OW23005   7.828   3.932   9.080 -0.5492  0.7830  0.2565
 7476SOL    HW123006   7.844   4.016   9.035  2.4206  0.1697 -0.0682
 7476SOL    HW223007   7.906   3.920   9.135 -0.1154 -2.4658 -0.8876
 7477SOL     OW23008   1.172   5.612   4.659  0.1581  0.7920  0.2963
 7477SOL    HW123009   1.160   5.616   4.754 -1.2936 -0.1679  0.1940
 7477SOL    HW223010   1.154   5.701   4.629 -2.6177  0.4404  0.6547
 7478SOL     OW23011   8.908   3.398   9.883 -0.1250 -0.1756 -0.2723
 7478SOL    HW123012   8.971   3.382   9.953 -0.9887 -0.7412  0.3941
 7478SOL    HW223013   8.961   3.406   9.803  0.7012 -1.7616  0.0908
 7479SOL     OW23014   9.079   5.130   8.006  0.2225 -0.3520 -0.8364
 7479SOL    HW123015   9.120   5.217   8.001 -0.1265 -0.1832 -0.7532
 7479SOL    HW223016   9.029   5.131   8.087  0.7977 -0.8878 -0.4705
 7480SOL     OW23017   0.216   2.220   7.132 -0.6950 -0.2142  0.3339
 7480SOL    HW123018   0.308   2.239   7.152 -0.0735 -0.1759 -2.2742
 7480SOL    HW223019   0.205   2.129   7.160  0.8271 -0.9668 -1.2776
 7481SOL     OW23020   8.916   8.235   2.534 -0.3309 -0.6411 -0.1351
 7481SOL    HW123021   8.832   8.194   2.554 -0.0730 -1.0376  0.1474
 7481SOL    HW223022   8.971   8.215   2.610 -0.7599  1.8693  0.9483
 7482SOL     OW23023   5.118   2.200   2.760  0.2113  0.2886  0.0581
 7482SOL    HW123024   5.205   2.193   2.720  0.1634  0.3203 -0.0526
 7482SOL    HW223025   5.096   2.111   2.786 -0.1750  0.0929 -0.8836
 7483SOL     OW23026   1.794   6.136   7.274  0.0449  0.2656 -0.1572
 7483SOL    HW123027   1.827   6.144   7.364  0.2273  1.7597 -0.3429
 7483SOL    HW223028   1.754   6.049   7.272  1.6895 -0.5855  0.8252
 7484SOL     OW23029   2.922   0.281   8.550 -0.1388 -0.1540  0.4616
 7484SOL    HW123030   2.975   0.279   8.630 -0.1073  0.4499  0.4644
 7484SOL    HW223031   2.985   0.291   8.479 -0.2563  1.0300  0.4989
 7485SOL     OW23032   6.711   9.930   0.629 -0.1830  0.0244 -0.4783
 7485SOL    HW123033   6.627   9.935   0.585 -0.9398  0.8781  0.9820
 7485SOL    HW223034   6.757  10.010   0.604 -1.1775  1.2191  1.2805
 7486SOL     OW23035   6.116   5.720   5.546  0.3741  0.0272 -0.0950
 7486SOL    HW123036   6.080   5.675   5.469  0.2730  0.1611 -0.1251
 7486SOL    HW223037   6.040   5.742   5.599  0.3341  1.0367 -0.5504
 7487SOL     OW23038   4.732   5.963   4.641 -0.0068  0.4404 -0.0967
 7487SOL    HW123039   4.737   5.868   4.633  1.1313  0.3942  0.9191
 7487SOL    HW223040   4.647   5.979   4.683 -0.8452  0.0004 -1.5241
 7488SOL     OW23041   4.214   4.062   1.416 -0.1953  0.1911 -0.1680
 7488SOL    HW123042   4.162   4.060   1.335 -1.0227  0.6840  0.3365
 7488SOL    HW223043   4.277   4.132   1.402  0.3571 -0.4137 -0.7885
 7489SOL     OW23044   7.133   3.799   9.961  0.0964 -0.1275  0.4975
 7489SOL    HW123045   7.226   3.790   9.982  0.4474 -0.0367 -0.8637
 7489SOL    HW223046   7.103   3.710   9.946  0.0532 -0.1319  0.6143
 7490SOL     OW23047   0.518   8.130   0.120  0.2776  0.0303  0.4213
 7490SOL    HW123048   0.543   8.053   0.171  1.1469  1.4504  2.2368
 7490SOL    HW223049   0.432   8.154   0.153 -0.4114 -0.6307 -0.7889
 7491SOL     OW23050   6.811   2.813   7.749 -0.0003  0.4397 -0.0267
 7491SOL    HW123051   6.750   2.885   7.764 -1.1299 -0.7544  1.3965
 7491SOL    HW223052   6.893   2.855   7.726 -1.1088  2.1217 -1.1005
 7492SOL     OW23053   0.107   6.753   9.289 -0.2861 -0.5579 -0.4729
 7492SOL    HW123054   0.063   6.698   9.354 -1.4435  0.5445 -0.2794
 7492SOL    HW223055   0.038   6.776   9.227  0.4310 -0.2237 -1.1568
 7493SOL     OW23056   7.787   9.909   0.234 -0.0044 -0.1622  0.4352
 7493SOL    HW123057   7.825   9.874   0.315 -1.8162 -0.6436  1.1368
 7493SOL    HW223058   7.767   9.832   0.182  2.2270  0.1829 -1.0647
 7494SOL     OW23059   9.409   1.988   7.972 -0.2498 -0.0950 -0.1487
 7494SOL    HW123060   9.363   1.920   8.021 -1.7646  0.8432 -0.2051
 7494SOL    HW223061   9.364   1.992   7.887  0.4396  0.3301 -0.5083
 7495SOL     OW23062   8.573   0.942   5.229  0.7199 -0.1033 -0.1531
 7495SOL    HW123063   8.590   1.022   5.278  0.0760  0.5550 -0.9754
 7495SOL    HW223064   8.478   0.940   5.217  0.9799  1.0886 -3.4677
 7496SOL     OW23065   3.565   1.039   4.459  0.6815  0.2724 -0.6180
 7496SOL    HW123066   3.598   1.102   4.524 -1.6840 -0.0534  1.0225
 7496SOL    HW223067   3.511   1.090   4.400 -0.1901  0.0138 -0.0614
 7497SOL     OW23068   7.469   3.107   5.197  0.9140  0.2724 -0.0810
 7497SOL    HW123069   7.534   3.037   5.193  0.0218 -0.6974  1.5344
 7497SOL    HW223070   7.396   3.070   5.247 -0.9756  1.2770 -1.9126
 7498SOL     OW23071   0.560   5.647   7.834  0.1675  0.3978 -0.5871
 7498SOL    HW123072   0.488   5.703   7.805 -0.6128 -0.2737 -0.0183
 7498SOL    HW223073   0.617   5.639   7.758 -0.8870  0.1260 -1.3831
 7499SOL     OW23074   6.267   6.259   0.154 -0.5170 -0.0684  0.1069
 7499SOL    HW123075   6.199   6.245   0.088 -0.8564 -0.6738  0.5824
 7499SOL    HW223076   6.296   6.349   0.139 -1.7330  0.3511  0.1879
 7500SOL     OW23077   7.161   6.406   4.799  0.2735  0.5051 -0.4010
 7500SOL    HW123078   7.224   6.439   4.863  0.0766  0.2635 -0.0804
 7500SOL    HW223079   7.188   6.315   4.784  0.8299  0.8031 -1.3006
 7501SOL     OW23080   5.465   8.230   2.281 -0.0714  0.0409  0.8850
 7501SOL    HW123081   5.491   8.278   2.202 -1.2663 -0.7144  0.0052
 7501SOL    HW223082   5.521   8.153   2.282  0.7230  0.6003  1.4191
 7502SOL     OW23083   1.262   5.721   8.566 -0.0800  0.0346  0.0847
 7502SOL    HW123084   1.317   5.778   8.512  1.2640  0.3443  1.7088
 7502SOL    HW223085   1.315   5.644   8.583  0.0063  0.4223  1.8379
 7503SOL     OW23086   8.259   7.081   8.009  0.2664 -0.2582 -0.2164
 7503SOL    HW123087   8.170   7.055   8.032  0.0145  0.1999 -0.6507
 7503SOL    HW223088   8.256   7.096   7.914  1.3482 -2.4165 -0.6763
 7504SOL     OW23089   4.181   0.565   0.879  0.9070  1.3999  0.2333
 7504SOL    HW123090   4.176   0.592   0.788  0.5241  0.9199  0.1089
 7504SOL    HW223091   4.112   0.500   0.889  2.3212 -0.1610  0.3027
 7505SOL     OW23092   7.478   9.580   4.326 -0.2695  0.0353 -0.0128
 7505SOL    HW123093   7.425   9.501   4.341  0.2285 -0.7512 -2.1092
 7505SOL    HW223094   7.415   9.652   4.336 -1.6812 -0.8447 -1.9076
 7506SOL     OW23095   2.039   5.097   9.311  0.2701  0.6641  0.2957
 7506SOL    HW123096   2.068   5.074   9.400 -0.2968  2.3207  0.9510
 7506SOL    HW223097   1.957   5.050   9.300  0.0068  0.9633  0.9171
 7507SOL     OW23098   8.853   7.744   9.133  0.2501 -0.3943  0.0393
 7507SOL    HW123099   8.775   7.695   9.108  0.1519 -1.3334  2.0655
 7507SOL    HW223100   8.847   7.755   9.227  1.9231  0.6746  0.0764
 7508SOL     OW23101   2.803   2.213   0.619 -0.4438 -0.5569  0.5721
 7508SOL    HW123102   2.781   2.299   0.584  2.3034  0.1839  0.4478
 7508SOL    HW223103   2.799   2.223   0.714  0.5943 -0.0479  0.5733
 7509SOL     OW23104   5.326   7.978   1.316 -0.4449 -0.0248  0.6894
 7509SOL    HW123105   5.293   8.068   1.315  0.1517  0.2152  1.3734
 7509SOL    HW223106   5.247   7.924   1.308 -0.6791  0.5530 -1.3992
 7510SOL     OW23107   5.603   2.906   4.247  0.1939  0.1592 -0.7078
 7510SOL    HW123108   5.547   2.983   4.256  0.0927 -0.0327  0.4762
 7510SOL    HW223109   5.683   2.940   4.207  0.9396  1.3007  1.5853
 7511SOL     OW23110   0.668   8.292   0.637  0.4121  0.6360 -0.0402
 7511SOL    HW123111   0.626   8.337   0.564 -0.5357  0.1537  0.1978
 7511SOL    HW223112   0.737   8.353   0.666 -0.0706  1.4077 -0.4799
 7512SOL     OW23113   8.172   6.092   1.834 -0.3681  0.4820  0.6411
 7512SOL    HW123114   8.264   6.064   1.831 -0.3099  0.5975  1.2397
 7512SOL    HW223115   8.172   6.169   1.890 -0.7451  0.8496  0.1391
 7513SOL     OW23116   4.069   5.809   3.672  0.1830 -0.0443  0.0003
 7513SOL    HW123117   4.161   5.814   3.699  0.8872 -2.2132 -1.6627
 7513SOL    HW223118   4.020   5.817   3.754  1.8515  0.7025  0.9902
 7514SOL     OW23119   6.141   4.104   5.535 -0.2026  0.1060  0.5905
 7514SOL    HW123120   6.201   4.100   5.609 -1.9248 -0.4432  2.0388
 7514SOL    HW223121   6.187   4.061   5.463  2.5532  2.8718  0.4911
 7515SOL     OW23122   9.939   6.404   8.498 -0.2180 -0.2008 -0.1727
 7515SOL    HW123123   9.963   6.341   8.567 -0.4495 -0.8276 -0.6524
 7515SOL    HW223124  10.001   6.386   8.427 -0.1574  0.2584 -0.2396
 7516SOL     OW23125   5.102   6.853   2.730  0.6821 -0.0730  0.1135
 7516SOL    HW123126   5.053   6.932   2.752  1.6381  0.6864 -0.3753
 7516SOL    HW223127   5.053   6.782   2.770  0.0866  0.8209  1.0168
 7517SOL     OW23128   6.238   2.162   7.770  0.1446  0.2890 -0.4970
 7517SOL    HW123129   6.279   2.153   7.684  0.6560  1.2066 -0.3684
 7517SOL    HW223130   6.186   2.242   7.763  0.2471  0.4081  0.0644
 7518SOL     OW23131   8.453   1.328   6.923  0.7984  0.2255 -0.0676
 7518SOL    HW123132   8.382   1.360   6.977 -0.6427  1.3699 -2.5100
 7518SOL    HW223133   8.533   1.351   6.971 -0.3915 -0.1242  2.1931
 7519SOL     OW23134   3.648   6.010   5.139 -0.1245  0.1785  0.0822
 7519SOL    HW123135   3.668   6.101   5.162  1.5709  0.0367 -0.6549
 7519SOL    HW223136   3.685   5.959   5.211  0.9068 -0.0173 -0.5659
 7520SOL     OW23137   6.874   5.157   2.151 -0.3751  0.0470 -0.2760
 7520SOL    HW123138   6.893   5.170   2.244 -1.4534  0.7846 -0.1392
 7520SOL    HW223139   6.824   5.075   2.148 -1.3930  0.6380 -0.0379
 7521SOL     OW23140   7.139   8.204   5.211  0.0277  0.8960  0.0427
 7521SOL    HW123141   7.051   8.242   5.211 -0.8290 -0.9786  0.8440
 7521SOL    HW223142   7.129   8.119   5.253  1.7938 -0.3894 -1.9293
 7522SOL     OW23143   7.708   3.626   6.986 -0.9567 -0.4923 -0.4634
 7522SOL    HW123144   7.668   3.540   6.972 -0.4511 -0.6656 -0.8900
 7522SOL    HW223145   7.667   3.683   6.922 -1.2102 -0.4406 -0.2568
 7523SOL     OW23146   6.196   2.743   8.669 -0.1865 -0.0761  0.0667
 7523SOL    HW123147   6.150   2.735   8.753  0.5201  0.9747  0.5854
 7523SOL    HW223148   6.271   2.800   8.689 -0.1147  0.3413 -1.3241
 7524SOL     OW23149   1.987   4.080   2.468 -0.3747 -0.3217  0.0383
 7524SOL    HW123150   1.985   4.046   2.557 -2.5899 -0.0669  0.1468
 7524SOL    HW223151   2.075   4.116   2.457  0.4619 -1.7849  1.5406
 7525SOL     OW23152   5.145   7.416   8.325  0.1427  0.9116  0.0117
 7525SOL    HW123153   5.234   7.441   8.350 -0.0486  2.1811 -0.5061
 7525SOL    HW223154   5.094   7.425   8.406  0.4442  0.3510  0.2676
 7526SOL     OW23155   5.758   1.272   7.950 -0.1067  0.3073 -0.1684
 7526SOL    HW123156   5.831   1.212   7.934  0.2574  0.9901 -1.2099
 7526SOL    HW223157   5.786   1.324   8.026 -0.7802 -1.3436  1.2790
 7527SOL     OW23158   5.498   8.631   2.814 -0.1613 -0.1142 -0.6181
 7527SOL    HW123159   5.543   8.562   2.862  1.8922  1.1757 -0.5606
 7527SOL    HW223160   5.471   8.590   2.732 -0.5896 -1.4284  0.1544
 7528SOL     OW23161   3.229   2.120   1.317 -0.0202  0.0434 -0.0066
 7528SOL    HW123162   3.286   2.189   1.351  0.2411 -0.4189  0.5039
 7528SOL    HW223163   3.264   2.101   1.230 -0.0763  0.5292 -0.1403
 7529SOL     OW23164   8.855   4.451   6.826  0.2930  0.5672  0.3520
 7529SOL    HW123165   8.813   4.383   6.773 -0.3635  0.6061  0.8061
 7529SOL    HW223166   8.793   4.524   6.823  1.4911  1.5812 -1.0530
 7530SOL     OW23167   1.983   3.209   9.839  0.4470 -0.4423 -0.3238
 7530SOL    HW123168   1.916   3.144   9.819 -0.6108  0.8421 -1.1723
 7530SOL    HW223169   2.062   3.178   9.794  0.8607 -2.6197  1.6852
 7531SOL     OW23170   9.539   2.062   9.385  0.0633 -0.0666 -0.6617
 7531SOL    HW123171   9.566   2.069   9.294  0.6274  0.6140 -0.4536
 7531SOL    HW223172   9.475   2.132   9.397  0.9034  0.6599 -0.2371
 7532SOL     OW23173   2.859   8.919   2.251 -0.6559  0.2087  0.2571
 7532SOL    HW123174   2.878   8.917   2.345 -2.1018 -0.3853  0.5535
 7532SOL    HW223175   2.808   8.840   2.235 -0.9555  0.6251 -0.9244
 7533SOL     OW23176   2.074   7.542   8.665  0.3102 -0.4276 -0.2707
 7533SOL    HW123177   2.020   7.581   8.596  1.2248  1.2816 -0.0785
 7533SOL    HW223178   2.100   7.456   8.629 -0.8140 -0.4062 -1.2090
 7534SOL     OW23179   5.292   8.492   1.112 -0.3040 -0.0743 -0.4319
 7534SOL    HW123180   5.206   8.511   1.149  0.3588 -1.5998  2.0906
 7534SOL    HW223181   5.326   8.420   1.165  2.1963 -0.0884 -1.8961
 7535SOL     OW23182   0.679   3.622   8.719 -0.0596  0.2414  0.0211
 7535SOL    HW123183   0.760   3.669   8.700  0.6404 -1.2350 -0.7860
 7535SOL    HW223184   0.612   3.672   8.672  0.5134  0.9670 -0.0458
 7536SOL     OW23185   7.031   2.558   2.614  0.1771 -0.3683 -0.3467
 7536SOL    HW123186   6.953   2.612   2.627 -1.6229 -2.5055 -1.6838
 7536SOL    HW223187   7.015   2.479   2.665  2.0976 -0.3445  0.3951
 7537SOL     OW23188   3.062   6.552   3.204  0.5420  0.0682  0.3335
 7537SOL    HW123189   3.078   6.646   3.201 -0.3958  0.2508  0.4835
 7537SOL    HW223190   3.098   6.518   3.122  2.6979  0.2273  1.1720
 7538SOL     OW23191   7.387   6.097   2.668  0.1260 -0.0919  0.0876
 7538SOL    HW123192   7.354   6.013   2.636 -0.2137 -0.2139  0.7319
 7538SOL    HW223193   7.376   6.157   2.595 -0.1621 -0.4784 -0.1895
 7539SOL     OW23194   4.292   4.975   1.461 -0.1203 -0.4057  0.1253
 7539SOL    HW123195   4.289   4.963   1.556 -1.6951  1.3916  0.3718
 7539SOL    HW223196   4.363   5.037   1.447 -0.5044  0.0757  0.2612
 7540SOL     OW23197   0.691   1.791   3.269  0.0247  0.0026  0.2460
 7540SOL    HW123198   0.696   1.872   3.319 -1.5018  0.2785  0.0207
 7540SOL    HW223199   0.643   1.731   3.327 -0.3263 -0.1957 -0.2493
 7541SOL     OW23200   0.051   7.499   5.470  0.1404  0.1024  0.1927
 7541SOL    HW123201   0.090   7.448   5.399  1.1846  0.8308  0.2341
 7541SOL    HW223202  -0.000   7.566   5.426  0.6941  0.4820  0.1227
 7542SOL     OW23203   3.483   2.949   2.456  0.0830 -0.1488 -0.6529
 7542SOL    HW123204   3.470   3.007   2.380 -0.3647 -0.9920 -1.2410
 7542SOL    HW223205   3.436   2.869   2.432 -0.9525 -0.0668  0.9535
 7543SOL     OW23206   7.253   5.626   5.976 -0.8293  0.5917 -0.1273
 7543SOL    HW123207   7.164   5.657   5.960 -0.3789  1.3248 -1.2713
 7543SOL    HW223208   7.304   5.658   5.902  0.1623 -0.8097 -0.0940
 7544SOL     OW23209   2.418   4.125   9.001  0.4621 -0.0163  0.0037
 7544SOL    HW123210   2.330   4.087   9.003  0.5011 -0.1165 -0.1474
 7544SOL    HW223211   2.407   4.212   9.039  0.0923  0.3710 -0.9302
 7545SOL     OW23212   9.665   8.792   2.765  0.2686 -0.5369 -0.2966
 7545SOL    HW123213   9.580   8.791   2.721  0.3448 -0.8375 -0.4332
 7545SOL    HW223214   9.664   8.874   2.816  0.0625 -0.3372 -0.6183
 7546SOL     OW23215   4.796   3.243   3.087 -0.5321  1.0543  0.1272
 7546SOL    HW123216   4.823   3.240   3.179  2.6219  1.4039 -0.6413
 7546SOL    HW223217   4.755   3.329   3.076 -1.2249  0.8831  1.2469
 7547SOL     OW23218   7.800   1.602   7.232  0.1021 -0.0588 -0.4807
 7547SOL    HW123219   7.788   1.624   7.325  0.8160  1.4572 -0.7118
 7547SOL    HW223220   7.771   1.680   7.185 -2.3815 -1.5946 -1.6966
 7548SOL     OW23221   6.000   2.071   0.562  1.2993 -0.5218  0.0611
 7548SOL    HW123222   6.038   2.159   0.570  0.4028 -0.0121 -0.9487
 7548SOL    HW223223   5.905   2.087   0.558  1.1917 -1.3837 -1.7588
 7549SOL     OW23224   4.729   3.605   9.530  0.1715  0.7032 -0.1224
 7549SOL    HW123225   4.768   3.682   9.571  2.7679 -1.0541  0.9385
 7549SOL    HW223226   4.759   3.608   9.439  2.0567 -0.0517  0.4214
 7550SOL     OW23227   0.663   8.038   3.009 -0.3902 -0.1359  0.4043
 7550SOL    HW123228   0.592   8.101   3.001  0.2388  0.3511 -2.3595
 7550SOL    HW223229   0.628   7.958   2.970 -0.0587 -0.4850  0.8134
 7551SOL     OW23230   8.845   3.194   2.999  0.3367 -0.0522  0.1724
 7551SOL    HW123231   8.773   3.228   2.946 -0.2275  0.0204  0.9705
 7551SOL    HW223232   8.824   3.220   3.088  2.0892  1.2673  0.2678
 7552SOL     OW23233   8.277   4.669   5.975  0.1699 -0.0210 -0.7113
 7552SOL    HW123234   8.255   4.759   5.952  0.0439  0.3184  0.6818
 7552SOL    HW223235   8.201   4.618   5.946  1.0605 -0.0277 -3.3603
 7553SOL     OW23236   2.418   3.745   5.242 -0.3633  0.2276 -0.3487
 7553SOL    HW123237   2.496   3.723   5.191 -0.5265  0.7656 -0.8445
 7553SOL    HW223238   2.346   3.741   5.179 -0.9792 -1.7691  0.4268
 7554SOL     OW23239   9.830   8.719   9.120  0.6543 -0.2376 -0.3681
 7554SOL    HW123240   9.779   8.711   9.039  0.2905 -1.9997 -0.0142
 7554SOL    HW223241   9.779   8.779   9.175 -0.9257 -1.7175 -0.1429
 7555SOL     OW23242   6.378   4.936   1.730  0.4659 -0.2745 -0.1066
 7555SOL    HW123243   6.387   4.860   1.672 -1.6199 -0.2832 -0.5129
 7555SOL    HW223244   6.375   5.011   1.670 -2.3672 -0.3323 -0.1955
 7556SOL     OW23245   5.891   2.663   3.062 -0.5288  0.3291 -0.3143
 7556SOL    HW123246   5.844   2.698   3.137  1.7916 -0.8523  1.8252
 7556SOL    HW223247   5.949   2.734   3.034  0.2533  0.0315  0.5179
 7557SOL     OW23248   2.461   2.794   4.301  0.3590  0.1932 -0.5162
 7557SOL    HW123249   2.462   2.868   4.239 -0.1568  0.4288 -0.2483
 7557SOL    HW223250   2.448   2.717   4.245 -3.0875  0.6474 -0.5168
 7558SOL     OW23251   5.964   0.862   4.780  0.5173 -0.3312  0.5200
 7558SOL    HW123252   5.905   0.793   4.809 -0.4283  0.6997  1.1354
 7558SOL    HW223253   5.928   0.889   4.695  0.9351 -0.6335  0.2407
 7559SOL     OW23254   9.439   7.778   1.775  0.5636  0.2197 -0.2449
 7559SOL    HW123255   9.503   7.707   1.775  1.2917  0.8584  0.8961
 7559SOL    HW223256   9.354   7.733   1.776  1.0094 -0.6367  0.1593
 7560SOL     OW23257   0.569   2.372   6.001  0.1038 -0.1893  0.3310
 7560SOL    HW123258   0.558   2.395   6.094 -0.6035  0.7870  0.0154
 7560SOL    HW223259   0.479   2.364   5.968  0.3463  0.5271 -0.5255
 7561SOL     OW23260   7.876   0.685   2.351  0.1274 -0.3585 -0.6822
 7561SOL    HW123261   7.789   0.670   2.315  0.8158 -0.4227 -2.3819
 7561SOL    HW223262   7.894   0.777   2.332  1.2793 -0.8829 -2.3217
 7562SOL     OW23263   6.237   5.092   3.332  0.3649  1.0788 -0.0384
 7562SOL    HW123264   6.300   5.073   3.263  0.3681  2.1350 -0.3408
 7562SOL    HW223265   6.238   5.187   3.340  0.4193  0.9627  1.4800
 7563SOL     OW23266   3.615   3.195   7.422 -0.0113 -0.4781  0.4868
 7563SOL    HW123267   3.598   3.285   7.451 -1.2440 -0.6496  0.3295
 7563SOL    HW223268   3.675   3.160   7.489 -1.6434 -0.3889  2.0761
 7564SOL     OW23269   7.858   0.657   8.945 -0.0363 -0.5323 -0.1854
 7564SOL    HW123270   7.875   0.741   8.904 -1.6659 -0.1478 -0.1297
 7564SOL    HW223271   7.936   0.604   8.925  0.1150  0.3113 -1.9723
 7565SOL     OW23272   7.888   6.039   9.764 -0.1159  0.7509  0.0970
 7565SOL    HW123273   7.958   6.104   9.768 -0.1411  0.9508 -1.8761
 7565SOL    HW223274   7.809   6.086   9.792  0.0686  1.2578 -0.2331
 7566SOL     OW23275   2.188   9.752   1.782 -0.1819 -0.1234 -0.0932
 7566SOL    HW123276   2.229   9.753   1.868 -0.6271 -2.1065  0.1953
 7566SOL    HW223277   2.203   9.839   1.747  1.9610  0.0325  1.0600
 7567SOL     OW23278   8.594   3.567   1.659 -0.5568 -0.1375 -0.1853
 7567SOL    HW123279   8.652   3.643   1.666  0.7180 -1.1517  0.6630
 7567SOL    HW223280   8.505   3.604   1.665  0.0514  1.1808  1.4198
 7568SOL     OW23281   0.917   3.807   8.687 -0.4123 -0.0441 -0.1075
 7568SOL    HW123282   0.977   3.750   8.639 -0.2415  0.5564 -0.6187
 7568SOL    HW223283   0.941   3.794   8.779  0.0706 -0.2963 -0.2629
 7569SOL     OW23284   9.398   3.625   3.636  0.1483 -0.1712  0.8255
 7569SOL    HW123285   9.465   3.558   3.624  2.4931  2.3527 -1.4416
 7569SOL    HW223286   9.446   3.702   3.668 -2.0370  1.1403  1.2031
 7570SOL     OW23287   9.431   7.984   2.173 -0.6895 -0.1009 -0.0911
 7570SOL    HW123288   9.421   7.978   2.078 -0.6286  0.0526 -0.1072
 7570SOL    HW223289   9.403   8.073   2.195 -0.1625  0.0527 -0.0312
 7571SOL     OW23290   5.893   2.791   8.415 -0.3197  0.1494 -0.1382
 7571SOL    HW123291   5.986   2.776   8.402 -0.5249 -0.2072 -1.3446
 7571SOL    HW223292   5.888   2.870   8.468  0.6747 -0.3083  0.6729
 7572SOL     OW23293   5.992   3.998   9.294  0.1834  0.4800  0.7136
 7572SOL    HW123294   6.064   4.048   9.332 -2.3035  2.9471  2.5977
 7572SOL    HW223295   5.914   4.032   9.336 -2.0418 -3.2134  0.0661
 7573SOL     OW23296   2.459   6.676   9.439  0.2146 -0.3595  0.2252
 7573SOL    HW123297   2.535   6.652   9.385  0.3197  0.3849  0.0381
 7573SOL    HW223298   2.420   6.592   9.463  0.2518 -0.7090 -0.8856
 7574SOL     OW23299   4.370   1.877   9.922  0.1456 -0.1562  0.4278
 7574SOL    HW123300   4.425   1.808   9.958  0.4881  0.1705  0.5378
 7574SOL    HW223301   4.380   1.870   9.828 -0.3911 -0.7187  0.4058
 7575SOL     OW23302   8.504   2.655   7.845  0.6140  1.1628  0.0224
 7575SOL    HW123303   8.421   2.703   7.842 -1.5189 -2.1494  0.4570
 7575SOL    HW223304   8.515   2.633   7.938 -0.8538 -2.5660 -0.4812
 7576SOL     OW23305   2.533   7.955   5.425 -0.2053 -0.4850  0.3560
 7576SOL    HW123306   2.572   7.881   5.378 -2.0209 -0.9694 -0.4747
 7576SOL    HW223307   2.559   7.941   5.516  1.3672 -0.8660 -0.1223
 7577SOL     OW23308   9.334   1.281   6.624 -0.2830 -0.1401  0.1560
 7577SOL    HW123309   9.363   1.366   6.657  3.7055 -0.7238 -1.2140
 7577SOL    HW223310   9.267   1.301   6.560 -0.6343  1.8054  1.0665
 7578SOL     OW23311   9.816   3.705   0.090 -0.5577  0.3371 -0.1739
 7578SOL    HW123312   9.881   3.667   0.032 -0.7994  0.4851 -0.5492
 7578SOL    HW223313   9.778   3.777   0.039 -0.9382  0.3182  0.0775
 7579SOL     OW23314   5.325   6.634   1.551 -0.2636 -0.1525  0.1747
 7579SOL    HW123315   5.369   6.600   1.629  0.5475 -0.5773 -0.4620
 7579SOL    HW223316   5.342   6.569   1.483 -1.2223  0.0617 -0.2910
 7580SOL     OW23317   5.046   7.698   5.248  0.1122  0.0791  0.3252
 7580SOL    HW123318   5.081   7.621   5.203 -2.2426 -2.4968  2.4789
 7580SOL    HW223319   4.975   7.729   5.191 -0.6756 -1.0950  0.6199
 7581SOL     OW23320   7.516   1.601   3.187  0.1252 -0.2884  0.1641
 7581SOL    HW123321   7.523   1.690   3.222 -0.2390  0.2704 -1.1385
 7581SOL    HW223322   7.430   1.571   3.218 -0.5008  0.4576 -0.7796
 7582SOL     OW23323   7.955   8.858   3.066  0.0408 -0.2848  0.5553
 7582SOL    HW123324   7.965   8.950   3.090 -1.9875 -0.6303  3.2370
 7582SOL    HW223325   7.912   8.861   2.980  0.6368  1.2491  0.2726
 7583SOL     OW23326   8.033   4.232   8.403 -0.1802 -0.1343  0.1660
 7583SOL    HW123327   7.995   4.146   8.423  0.5653 -0.5939 -0.3712
 7583SOL    HW223328   7.962   4.280   8.361 -1.4889  0.5033  2.8637
 7584SOL     OW23329   9.218   2.959   0.726 -0.2292 -0.2237  0.4879
 7584SOL    HW123330   9.126   2.985   0.726 -0.0280  0.5375 -0.2463
 7584SOL    HW223331   9.266   3.041   0.737  0.3679 -0.5612  0.4211
 7585SOL     OW23332   1.669   6.524   6.593 -0.4528 -0.4553  0.2185
 7585SOL    HW123333   1.662   6.447   6.537 -0.2265 -0.1538 -0.2414
 7585SOL    HW223334   1.682   6.597   6.531  3.4103 -0.5043  0.7220
 7586SOL     OW23335   7.628   5.683   6.932 -0.1152 -0.1927  0.0183
 7586SOL    HW123336   7.558   5.728   6.885 -1.3964 -0.6048  1.4514
 7586SOL    HW223337   7.646   5.605   6.879 -1.2642 -0.4622 -0.0033
 7587SOL     OW23338   7.322   6.427   5.325 -0.1525  0.1427  0.0763
 7587SOL    HW123339   7.344   6.383   5.406  1.9274 -0.7212 -0.8826
 7587SOL    HW223340   7.406   6.443   5.282 -1.2072 -0.6616 -2.5353
 7588SOL     OW23341   6.120   1.027   2.752  0.6227  0.2214  0.0847
 7588SOL    HW123342   6.208   1.004   2.724  0.2303 -0.9585 -0.2278
 7588SOL    HW223343   6.067   1.022   2.672  0.0591 -0.2212  0.4747
 7589SOL     OW23344   0.350   0.445   2.087 -0.1684  0.7985  0.1961
 7589SOL    HW123345   0.266   0.492   2.090  0.2036  1.7038 -1.9496
 7589SOL    HW223346   0.332   0.368   2.033  0.2712  0.7628  0.1000
 7590SOL     OW23347   3.030   3.419   0.127 -0.0372 -0.1391 -0.2172
 7590SOL    HW123348   3.047   3.326   0.112  1.8182 -0.0034  0.8089
 7590SOL    HW223349   3.032   3.458   0.039 -0.9558 -1.0469 -0.6706
 7591SOL     OW23350   8.702   5.063   4.631 -0.0370  0.1095  0.3283
 7591SOL    HW123351   8.763   5.095   4.698 -2.2620  0.2924  2.3713
 7591SOL    HW223352   8.630   5.025   4.680 -0.3741 -2.6123 -2.0111
 7592SOL     OW23353   5.471   9.005   7.354 -0.2452 -0.0114  0.1083
 7592SOL    HW123354   5.505   8.934   7.408 -0.0834 -0.3064 -0.3694
 7592SOL    HW223355   5.376   9.000   7.364 -0.2587 -0.5842 -0.2785
 7593SOL     OW23356   7.752   8.684   7.162  0.0115 -0.0362 -0.0461
 7593SOL    HW123357   7.843   8.677   7.192 -0.5647  0.0531  1.8332
 7593SOL    HW223358   7.759   8.695   7.067  1.8611 -2.3885 -0.2748
 7594SOL     OW23359   5.354   1.760   3.357  0.0425  0.8282 -0.3215
 7594SOL    HW123360   5.338   1.747   3.263  0.8321  0.3261 -0.3969
 7594SOL    HW223361   5.449   1.755   3.366 -0.0302  0.8102  0.5168
 7595SOL     OW23362   5.840   6.741   3.311 -0.1145  0.1535  0.0052
 7595SOL    HW123363   5.840   6.711   3.220  1.8376  1.4263 -0.4673
 7595SOL    HW223364   5.754   6.715   3.344 -0.1545 -2.1070 -1.5822
 7596SOL     OW23365   9.599   1.223   8.286 -0.4304 -0.0044  0.6969
 7596SOL    HW123366   9.555   1.177   8.214 -0.7541  0.3365  0.6764
 7596SOL    HW223367   9.689   1.189   8.284 -0.5129 -0.2098  0.3140
 7597SOL     OW23368   1.522   0.141   1.052 -0.4935  0.1261  0.3017
 7597SOL    HW123369   1.483   0.055   1.031  1.9301 -0.8403 -0.5664
 7597SOL    HW223370   1.596   0.149   0.992  0.9902  1.6084  2.2065
 7598SOL     OW23371   8.173   7.954   6.678 -0.0044  0.2594  0.7327
 7598SOL    HW123372   8.180   7.890   6.607 -2.5156  0.7704 -0.1103
 7598SOL    HW223373   8.215   8.033   6.643  0.0031  0.0956  0.3712
 7599SOL     OW23374   3.001   0.970   6.517  0.5244  0.5806 -0.4041
 7599SOL    HW123375   2.958   1.055   6.521 -0.3615  0.2437 -1.9522
 7599SOL    HW223376   2.951   0.915   6.578  1.6708  1.3544  1.3134
 7600SOL     OW23377   2.489   4.593   0.317 -0.2020 -0.0227  0.2178
 7600SOL    HW123378   2.443   4.668   0.280 -1.2520 -0.0282  1.4444
 7600SOL    HW223379   2.582   4.615   0.307 -0.4848  1.5043  0.6719
 7601SOL     OW23380   1.032   6.676   4.833  0.4143  0.4096 -0.0291
 7601SOL    HW123381   1.060   6.759   4.872  1.6439 -0.0386  0.0933
 7601SOL    HW223382   1.018   6.617   4.907  2.6948 -0.4240 -0.1734
 7602SOL     OW23383   4.255   0.547   6.724  0.1023  0.1670 -0.5379
 7602SOL    HW123384   4.286   0.486   6.790 -0.7848 -0.4818 -0.6961
 7602SOL    HW223385   4.228   0.492   6.650  2.2612  0.9434 -1.9964
 7603SOL     OW23386   9.800   2.097   5.995 -0.2769 -0.5148  0.1946
 7603SOL    HW123387   9.708   2.098   6.021 -0.3246 -0.1664  0.0174
 7603SOL    HW223388   9.838   2.023   6.043 -0.8492 -1.2290 -0.4505
 7604SOL     OW23389   9.122   1.804   7.199 -0.3355 -0.2374  0.0402
 7604SOL    HW123390   9.182   1.774   7.267 -0.3274 -0.2480  0.0282
 7604SOL    HW223391   9.166   1.877   7.157  1.1155 -2.2028 -2.1185
 7605SOL     OW23392   2.620   6.638   4.270  0.2495 -0.5043  0.1467
 7605SOL    HW123393   2.550   6.638   4.334 -0.0644 -0.7790 -0.1913
 7605SOL    HW223394   2.579   6.669   4.189  0.9529  1.2403  0.4083
 7606SOL     OW23395   2.395   2.486   9.551  0.6070 -0.3718 -0.2274
 7606SOL    HW123396   2.405   2.397   9.519  0.4182 -0.3748 -0.2773
 7606SOL    HW223397   2.301   2.503   9.549  0.5886 -0.3732  0.3259
 7607SOL     OW23398   9.671   9.009   2.144 -0.2698 -0.4310  0.2324
 7607SOL    HW123399   9.621   9.034   2.067 -1.8115 -2.2345  0.5471
 7607SOL    HW223400   9.758   9.046   2.130 -0.6363 -0.3079 -2.1371
 7608SOL     OW23401   8.047   6.390   6.574  0.4898 -0.3528  0.8319
 7608SOL    HW123402   8.038   6.346   6.658 -1.3726  2.0138  2.0179
 7608SOL    HW223403   8.013   6.479   6.590  0.4973  0.3297 -2.2930
 7609SOL     OW23404   3.679   6.726   3.324 -0.0451 -0.3612  0.0076
 7609SOL    HW123405   3.657   6.764   3.239  2.2055 -0.4482 -0.6796
 7609SOL    HW223406   3.728   6.795   3.369  0.5537 -1.0082  0.3766
 7610SOL     OW23407   5.189   6.340   4.937  0.1897  0.1004  0.0800
 7610SOL    HW123408   5.199   6.314   4.845  1.7141 -2.1085  0.7806
 7610SOL    HW223409   5.095   6.332   4.953 -0.1192  0.6065 -1.2922
 7611SOL     OW23410   0.317   4.504   1.857 -0.0849  0.0384  0.4639
 7611SOL    HW123411   0.349   4.478   1.944 -0.6612  1.3347  1.0901
 7611SOL    HW223412   0.393   4.496   1.800  0.7009  0.6022  1.3967
 7612SOL     OW23413   5.866   5.772   5.659  0.1447 -0.3345  0.2151
 7612SOL    HW123414   5.807   5.719   5.605 -0.7002  0.8969 -0.1474
 7612SOL    HW223415   5.836   5.862   5.644  2.5557  0.4228 -0.4940
 7613SOL     OW23416   1.739   8.242   4.441  0.3236  0.3749 -0.0410
 7613SOL    HW123417   1.793   8.206   4.511  0.2890 -0.4160 -0.4138
 7613SOL    HW223418   1.776   8.329   4.424 -0.4806  1.1303  1.8454
 7614SOL     OW23419   2.637   9.459   6.266 -0.3316 -0.0063 -0.3233
 7614SOL    HW123420   2.561   9.416   6.306  0.6186 -1.3165  0.1373
 7614SOL    HW223421   2.684   9.498   6.339  0.8805 -1.5578 -0.2391
 7615SOL     OW23422   3.706   4.189   7.286 -0.6294  0.2583 -0.6235
 7615SOL    HW123423   3.792   4.229   7.303 -0.4429 -1.2756  2.9122
 7615SOL    HW223424   3.643   4.249   7.325 -0.7708 -0.4798  0.3216
 7616SOL     OW23425   5.990   9.521   1.738  0.1010 -0.0274  0.0925
 7616SOL    HW123426   5.979   9.428   1.717  0.5340 -0.1720  0.4850
 7616SOL    HW223427   6.048   9.555   1.670 -0.8889  0.2016 -0.6510
 7617SOL     OW23428   5.135   6.474   0.745  0.0576 -0.0633  0.1724
 7617SOL    HW123429   5.065   6.503   0.687 -1.3469  0.9971  2.2274
 7617SOL    HW223430   5.142   6.380   0.731 -2.0698 -0.2529  0.1553
 7618SOL     OW23431   3.844   7.702   7.336  0.2315  0.4042  0.3367
 7618SOL    HW123432   3.895   7.762   7.390 -0.8448  0.5180  1.2784
 7618SOL    HW223433   3.768   7.680   7.390 -1.0779  0.7766 -1.2607
 7619SOL     OW23434   7.134   9.037   3.374 -0.0359 -0.2114  0.4953
 7619SOL    HW123435   7.223   9.070   3.383  0.5350 -1.8140  1.1364
 7619SOL    HW223436   7.122   8.980   3.450 -1.5900 -0.0945  0.3787
 7620SOL     OW23437   2.861   5.502   0.817  0.3104  0.1259  0.3810
 7620SOL    HW123438   2.889   5.532   0.904 -1.7322 -0.3737  1.2892
 7620SOL    HW223439   2.790   5.441   0.836  0.1087 -0.3139 -1.6564
 7621SOL     OW23440   5.167   8.221   5.941 -0.6381  0.2375 -0.1209
 7621SOL    HW123441   5.249   8.177   5.964 -1.5413 -1.7159 -0.3751
 7621SOL    HW223442   5.193   8.292   5.882  0.7475 -1.6233 -1.8980
 7622SOL     OW23443   1.645   8.766   1.833  0.2436 -0.4573  0.2093
 7622SOL    HW123444   1.718   8.828   1.824 -0.1413  0.0078  0.2493
 7622SOL    HW223445   1.683   8.692   1.880  0.6823 -0.1961  0.2788
 7623SOL     OW23446   8.647   9.741   7.283 -0.3952 -0.4513  0.1396
 7623SOL    HW123447   8.643   9.830   7.247 -1.6149 -1.2942 -2.0084
 7623SOL    HW223448   8.555   9.713   7.287 -0.4232 -0.3568  4.3802
 7624SOL     OW23449   5.742   7.943   8.555 -0.5991 -0.4243  0.2209
 7624SOL    HW123450   5.786   7.904   8.631 -0.2502 -0.8989 -0.2152
 7624SOL    HW223451   5.795   8.020   8.534 -0.6933 -0.2939  0.4485
 7625SOL     OW23452   0.887   8.754   0.214  0.3115 -0.3933 -0.4477
 7625SOL    HW123453   0.805   8.721   0.251  0.8826 -0.6620  0.5898
 7625SOL    HW223454   0.860   8.797   0.132 -0.5871 -2.4815 -1.3221
 7626SOL     OW23455   5.749   6.770   2.673  0.3778 -0.4522 -0.1233
 7626SOL    HW123456   5.842   6.759   2.691  0.3159 -1.4224 -0.3473
 7626SOL    HW223457   5.737   6.865   2.666  0.5393  0.1331  4.3257
 7627SOL     OW23458   6.594   3.787   7.458 -0.1571 -0.1707 -0.5419
 7627SOL    HW123459   6.610   3.704   7.412  0.6173 -0.3000 -0.0605
 7627SOL    HW223460   6.499   3.794   7.462 -0.2909 -1.9078  0.8861
 7628SOL     OW23461   9.700   6.916   5.927 -0.4493 -1.0287  0.1613
 7628SOL    HW123462   9.707   6.970   6.006 -0.5827 -1.5650  0.5441
 7628SOL    HW223463   9.674   6.977   5.858 -0.0338 -0.5004  0.4641
 7629SOL     OW23464   1.689   4.893   6.328 -0.3966 -0.1398 -0.6085
 7629SOL    HW123465   1.748   4.827   6.364  1.1900  1.3395 -0.3657
 7629SOL    HW223466   1.627   4.910   6.398  0.1586 -0.2400 -0.0773
 7630SOL     OW23467   7.961   7.020   0.927 -0.6980  0.6489  0.0890
 7630SOL    HW123468   8.012   6.941   0.943 -1.9495 -0.2921 -0.4457
 7630SOL    HW223469   8.010   7.067   0.859  0.3018  0.6070  0.7494
 7631SOL     OW23470   0.610   2.038   9.010 -0.3910 -0.2525 -0.0576
 7631SOL    HW123471   0.521   2.053   9.044 -0.9021 -2.1975 -0.4438
 7631SOL    HW223472   0.596   2.002   8.922  0.6487 -3.0805  0.8418
 7632SOL     OW23473   0.266   5.070   3.459 -0.1173  0.3403  0.1245
 7632SOL    HW123474   0.206   5.080   3.533  1.6603  0.2585  1.6824
 7632SOL    HW223475   0.212   5.036   3.388 -1.9873  0.7744  1.2673
 7633SOL     OW23476   4.023   0.505   9.589 -0.3996 -0.0034 -0.5639
 7633SOL    HW123477   4.046   0.544   9.504 -3.9371  2.4317 -0.6214
 7633SOL    HW223478   3.983   0.577   9.638  0.2444 -1.6852  2.7045
 7634SOL     OW23479   6.257   5.205   4.734  0.2209 -0.0587 -0.0828
 7634SOL    HW123480   6.193   5.194   4.804  1.2035 -0.9005  0.7115
 7634SOL    HW223481   6.297   5.119   4.723  0.6028  0.2378 -1.1715
 7635SOL     OW23482   4.785   4.782   0.433 -0.7098  0.2454  0.1350
 7635SOL    HW123483   4.879   4.783   0.418 -0.8575 -0.1461 -0.9582
 7635SOL    HW223484   4.773   4.728   0.511  0.1697  2.9362  2.2750
 7636SOL     OW23485   3.948   7.434   5.973 -0.2412  0.5824  0.2410
 7636SOL    HW123486   3.998   7.394   5.901 -1.2565 -0.2945 -0.0065
 7636SOL    HW223487   3.991   7.403   6.052 -0.3973 -0.1814  0.0332
 7637SOL     OW23488   4.775   9.741   7.260  0.2682 -0.1356  0.4697
 7637SOL    HW123489   4.752   9.657   7.219 -0.0897 -0.8978  2.1503
 7637SOL    HW223490   4.870   9.745   7.254  0.3438 -0.9885  0.9515
 7638SOL     OW23491   2.047   5.454   3.753  0.7123  0.0419 -0.4781
 7638SOL    HW123492   2.129   5.407   3.768  0.3881 -0.8557 -1.3569
 7638SOL    HW223493   1.979   5.397   3.791  0.4602  0.5934 -0.0927
 7639SOL     OW23494   7.773   4.151   7.139  0.1250 -0.2121  0.0731
 7639SOL    HW123495   7.749   4.183   7.226  0.0332 -0.3939  0.1162
 7639SOL    HW223496   7.718   4.074   7.126 -0.3338  0.1894 -0.4194
 7640SOL     OW23497   0.579   1.411   6.127 -0.2619 -0.7985  0.2079
 7640SOL    HW123498   0.501   1.431   6.177 -0.3678 -1.3237  0.2599
 7640SOL    HW223499   0.652   1.435   6.185 -0.3459  1.0966 -0.3925
 7641SOL     OW23500   9.807   2.508   0.386 -0.0590  0.1730  0.8708
 7641SOL    HW123501   9.807   2.590   0.436  0.4874  0.3678  0.5589
 7641SOL    HW223502   9.882   2.460   0.419 -0.8261 -0.5454  1.5946
 7642SOL     OW23503   5.622   7.713   1.867  0.0722  0.0341  0.0958
 7642SOL    HW123504   5.640   7.769   1.792  0.3346  0.5340  0.5180
 7642SOL    HW223505   5.573   7.639   1.832  0.6451 -0.0014 -0.6457
 7643SOL     OW23506   1.668   6.460   8.883  0.2910  0.1229  0.5426
 7643SOL    HW123507   1.622   6.520   8.825  0.7563 -0.4070 -0.3952
 7643SOL    HW223508   1.601   6.429   8.943 -0.2202  0.6184  0.2343
 7644SOL     OW23509   4.357   7.553   8.584  0.1842 -0.1296  0.4620
 7644SOL    HW123510   4.443   7.541   8.544 -0.2513  0.8438 -0.8198
 7644SOL    HW223511   4.375   7.599   8.666  0.8971 -0.1861  0.3473
 7645SOL     OW23512   8.787   6.822   4.256 -0.8146  0.0020 -0.2785
 7645SOL    HW123513   8.788   6.817   4.351 -2.5377 -1.8779 -0.3011
 7645SOL    HW223514   8.878   6.809   4.230 -0.7338 -2.4886  1.0411
 7646SOL     OW23515   7.087   1.224   3.562  0.4505  0.0428 -0.1535
 7646SOL    HW123516   7.157   1.247   3.623  1.0255 -0.1316 -0.7280
 7646SOL    HW223517   7.013   1.278   3.588  1.3267  1.5147 -0.5978
 7647SOL     OW23518   2.617   7.137   7.777 -1.1266 -0.2845  0.1990
 7647SOL    HW123519   2.684   7.183   7.726 -0.4961 -0.3902  0.9106
 7647SOL    HW223520   2.572   7.207   7.824  0.6305 -0.4122  2.2331
 7648SOL     OW23521   3.376   3.723   8.112 -0.2285 -0.2044 -0.2270
 7648SOL    HW123522   3.286   3.691   8.111 -0.2219 -0.2465  0.2560
 7648SOL    HW223523   3.429   3.644   8.122 -0.2384 -0.0266  1.6041
 7649SOL     OW23524   6.882   7.882   1.959  0.3849  0.0709 -0.1169
 7649SOL    HW123525   6.795   7.844   1.950  0.2050  0.8171 -1.8796
 7649SOL    HW223526   6.931   7.818   2.011 -0.1298 -2.2333 -2.3206
 7650SOL     OW23527   0.763   2.385   6.565  0.1854  0.5895  0.3555
 7650SOL    HW123528   0.742   2.465   6.516  0.5712  1.5056  1.6223
 7650SOL    HW223529   0.682   2.364   6.611 -0.2850 -0.4721 -0.8871
 7651SOL     OW23530   1.671   0.698   9.370 -0.2514  0.0134 -0.5381
 7651SOL    HW123531   1.720   0.635   9.422  0.2022  0.0570 -0.9048
 7651SOL    HW223532   1.699   0.783   9.403 -1.5261  0.0360  0.5672
 7652SOL     OW23533   7.483   2.476   5.470  0.3947  0.3265 -0.1719
 7652SOL    HW123534   7.536   2.524   5.406 -0.6905  0.3662 -1.0748
 7652SOL    HW223535   7.447   2.544   5.527 -0.7002  0.5661 -1.1146
 7653SOL     OW23536   5.537   2.361   9.360 -0.4351  0.3937  0.5513
 7653SOL    HW123537   5.466   2.306   9.328 -0.6990  1.4146 -0.7116
 7653SOL    HW223538   5.510   2.451   9.338  0.7262  0.8972  1.0622
 7654SOL     OW23539   5.760   6.523   6.776  0.1924 -0.1966  0.2133
 7654SOL    HW123540   5.793   6.482   6.696  0.1024 -0.0176  0.0840
 7654SOL    HW223541   5.775   6.617   6.764  1.4109 -0.2637  0.9772
 7655SOL     OW23542   3.053   2.528   0.539  0.1159 -0.2124 -0.1487
 7655SOL    HW123543   3.131   2.578   0.516 -0.4056  0.5245 -0.3535
 7655SOL    HW223544   3.039   2.469   0.464  0.3543 -0.1975 -0.2056
 7656SOL     OW23545   7.951   6.080   5.097 -0.1155 -0.6928  0.4509
 7656SOL    HW123546   7.902   6.108   5.175 -1.0379 -0.1180 -0.3114
 7656SOL    HW223547   7.993   6.160   5.066 -2.6078 -0.0798 -1.6329
 7657SOL     OW23548   4.766   5.263   1.303 -0.0650 -0.6175 -0.5381
 7657SOL    HW123549   4.857   5.279   1.278  0.2545 -0.1344  0.8028
 7657SOL    HW223550   4.756   5.309   1.387 -1.4757 -0.8646 -0.5427
 7658SOL     OW23551   6.645   7.865   9.950  0.3917  0.2806 -0.4929
 7658SOL    HW123552   6.620   7.814   9.873  0.7860 -2.4852  1.0721
 7658SOL    HW223553   6.570   7.922   9.967 -1.5079 -2.0108 -0.6080
 7659SOL     OW23554   3.421   7.445   0.459 -0.4551 -0.4527 -0.2067
 7659SOL    HW123555   3.435   7.352   0.440 -1.2510 -1.2559  2.6998
 7659SOL    HW223556   3.333   7.464   0.427 -0.6029 -0.9263 -0.0785
 7660SOL     OW23557   7.590   0.364   9.381  0.0815  0.0974  0.1152
 7660SOL    HW123558   7.623   0.387   9.295  0.6991 -1.0357  0.0287
 7660SOL    HW223559   7.666   0.371   9.439  0.1762 -1.1819  0.1716
 7661SOL     OW23560   5.606   1.196   7.578 -0.9160 -0.9894 -0.5586
 7661SOL    HW123561   5.515   1.219   7.595 -0.3508  1.3432 -0.3714
 7661SOL    HW223562   5.657   1.249   7.639  0.6697 -0.4279 -2.2583
 7662SOL     OW23563   0.542   0.713   6.538  0.0684 -0.0892  0.3992
 7662SOL    HW123564   0.447   0.710   6.551  0.0913  1.2688  0.9810
 7662SOL    HW223565   0.555   0.777   6.468  0.4286 -2.1986 -1.6206
 7663SOL     OW23566   7.777   7.445   2.970 -0.1153 -0.3689 -0.1764
 7663SOL    HW123567   7.743   7.416   3.054 -0.5430 -0.5243 -0.4023
 7663SOL    HW223568   7.822   7.368   2.935  1.3378  0.1041  0.5537
 7664SOL     OW23569   7.340   0.789   8.093  0.0556  0.2533  0.1597
 7664SOL    HW123570   7.380   0.705   8.116 -0.8408 -0.3956 -0.5724
 7664SOL    HW223571   7.406   0.855   8.117  0.5835 -0.6220  1.1681
 7665SOL     OW23572   5.130   5.433   8.953  0.5158  0.3317  0.1745
 7665SOL    HW123573   5.149   5.513   8.905 -0.5471  0.0547 -0.7521
 7665SOL    HW223574   5.137   5.363   8.887 -0.1127 -0.1539  0.6129
 7666SOL     OW23575   0.128   8.494   5.423  0.6357 -0.0870  0.1247
 7666SOL    HW123576   0.160   8.470   5.510  1.3328 -0.4559 -0.2271
 7666SOL    HW223577   0.058   8.431   5.405 -2.1209  2.2294  1.9367
 7667SOL     OW23578   3.695   6.813   5.766 -0.2083 -0.1418  0.1996
 7667SOL    HW123579   3.767   6.753   5.750 -0.0847  0.1765 -0.4559
 7667SOL    HW223580   3.621   6.775   5.718 -0.0359  0.4079 -0.5238
 7668SOL     OW23581   5.426   7.777   5.793  0.0439 -0.2362 -0.6836
 7668SOL    HW123582   5.484   7.733   5.856  0.2061  2.7663  1.4521
 7668SOL    HW223583   5.338   7.762   5.827 -0.0625 -0.5891 -1.1059
 7669SOL     OW23584   9.089   4.133   0.335  0.4700  0.2013  0.2830
 7669SOL    HW123585   9.164   4.189   0.357 -1.2063  1.9005  2.1492
 7669SOL    HW223586   9.079   4.075   0.410 -0.3559  0.3634  0.3175
 7670SOL     OW23587   0.944   0.887   3.865 -0.2095  0.5809  0.9741
 7670SOL    HW123588   0.995   0.953   3.912 -0.5542  1.4705  0.1317
 7670SOL    HW223589   0.968   0.804   3.907  1.5869  1.0138  0.8878
 7671SOL     OW23590   3.238   6.426   6.352 -0.1080 -0.4740  0.1152
 7671SOL    HW123591   3.285   6.384   6.281  1.0168  1.5016 -0.3842
 7671SOL    HW223592   3.300   6.489   6.388 -1.1049 -0.4899  1.9887
 7672SOL     OW23593   4.684   3.593   0.980  0.5926 -0.4972  0.3342
 7672SOL    HW123594   4.635   3.591   1.062  0.7103 -0.6282  0.4018
 7672SOL    HW223595   4.617   3.607   0.913  0.5693  0.2475  0.5027
 7673SOL     OW23596   2.367   7.091   5.139  0.0233 -0.6554  0.2023
 7673SOL    HW123597   2.396   7.114   5.050 -0.5536 -0.2219  0.1194
 7673SOL    HW223598   2.281   7.051   5.126 -0.9315  1.1463  0.7074
 7674SOL     OW23599   8.155   4.795   8.511  0.3858 -0.0223  0.2098
 7674SOL    HW123600   8.170   4.867   8.449 -0.0615 -0.1425 -0.0442
 7674SOL    HW223601   8.207   4.818   8.588 -0.4500  1.0251  0.4758
 7675SOL     OW23602   1.902   7.842   8.231 -0.3001  0.3759  0.2761
 7675SOL    HW123603   1.868   7.900   8.163 -0.4099 -1.4492 -1.3392
 7675SOL    HW223604   1.968   7.894   8.277 -0.1686  1.6676 -1.2862
 7676SOL     OW23605   5.583   3.617   0.510 -0.3955  0.3524  0.7321
 7676SOL    HW123606   5.617   3.563   0.582 -2.1377 -1.5285  0.2561
 7676SOL    HW223607   5.489   3.622   0.528 -0.5643  1.5279 -0.3815
 7677SOL     OW23608   2.933   7.063   5.372  0.0359 -0.0731  0.2461
 7677SOL    HW123609   2.974   7.080   5.457  1.2379 -1.3255 -0.0401
 7677SOL    HW223610   2.846   7.031   5.393  0.0067  0.4747  0.9806
 7678SOL     OW23611   1.802   2.840   4.504 -0.0923  0.3430  0.1355
 7678SOL    HW123612   1.876   2.780   4.511 -1.0001 -0.7887  0.3607
 7678SOL    HW223613   1.835   2.912   4.451  0.8065 -0.7389 -0.8487
 7679SOL     OW23614   4.531   7.325   2.363 -0.1060 -0.0502  0.1505
 7679SOL    HW123615   4.556   7.383   2.435  0.4300 -0.2674  0.1430
 7679SOL    HW223616   4.472   7.261   2.403 -0.7119  0.5019  0.1559
 7680SOL     OW23617   3.052   8.716   2.076 -0.1287 -0.4736  0.2256
 7680SOL    HW123618   3.100   8.754   2.150  0.3581 -0.0917 -0.2711
 7680SOL    HW223619   3.003   8.789   2.039  1.7008 -0.0064 -1.4322
 7681SOL     OW23620   7.921   2.134   7.725 -0.2916  0.2410  0.9739
 7681SOL    HW123621   7.921   2.063   7.789 -1.1988  0.2245  0.9780
 7681SOL    HW223622   7.876   2.206   7.769 -0.1130  0.5317  0.6806
 7682SOL     OW23623   3.913   6.424   8.303  0.6803 -0.3076 -0.3161
 7682SOL    HW123624   3.943   6.398   8.216  0.0118 -0.7114 -0.4350
 7682SOL    HW223625   3.868   6.508   8.288  1.9355  0.4196 -0.0981
 7683SOL     OW23626   4.892   1.989   6.153  0.6364  0.3463 -0.4963
 7683SOL    HW123627   4.831   2.027   6.090 -0.7140  0.7174  0.9656
 7683SOL    HW223628   4.895   2.052   6.225  0.1352 -1.1768  0.9454
 7684SOL     OW23629   2.324   3.410   9.098 -0.2771  0.3109 -1.1479
 7684SOL    HW123630   2.332   3.352   9.022  1.6671 -2.5932  1.0704
 7684SOL    HW223631   2.243   3.383   9.141 -0.2553  0.4566 -1.0130
 7685SOL     OW23632   9.863   8.558   4.977 -0.9663  0.2223  0.5974
 7685SOL    HW123633   9.952   8.581   5.003 -0.8784  0.1293  0.3822
 7685SOL    HW223634   9.855   8.589   4.887 -0.8102 -0.6669  0.2668
 7686SOL     OW23635   5.969   4.921   8.930 -0.0404  0.2125 -0.9142
 7686SOL    HW123636   6.059   4.893   8.949 -1.0365 -2.4374  0.4309
 7686SOL    HW223637   5.955   4.995   8.989  0.6951 -0.5536  0.2788
 7687SOL     OW23638   8.457   8.974   5.469  0.3872 -0.1214  0.4876
 7687SOL    HW123639   8.372   8.930   5.459  0.5001 -0.2052 -0.1251
 7687SOL    HW223640   8.508   8.915   5.524  0.1372 -0.1957  0.6451
 7688SOL     OW23641   9.906   9.080   0.590  0.0885  0.0191  0.0104
 7688SOL    HW123642   9.877   9.047   0.505 -1.2472 -0.6649  0.6950
 7688SOL    HW223643   9.849   9.156   0.607 -0.7786 -0.8134  0.9822
 7689SOL     OW23644   6.717   8.245   4.963  0.1264  0.2052 -0.1172
 7689SOL    HW123645   6.779   8.277   4.897 -1.5656  0.0159 -1.8777
 7689SOL    HW223646   6.632   8.276   4.934 -0.7191  0.0364  1.9731
 7690SOL     OW23647   9.142   2.852   3.378  0.2658 -0.5294 -0.1004
 7690SOL    HW123648   9.204   2.781   3.393 -0.1079 -0.6603  0.9131
 7690SOL    HW223649   9.117   2.881   3.466  1.1225  1.4803 -0.4606
 7691SOL     OW23650   8.499   4.663   7.843 -0.0860 -0.4785 -0.3858
 7691SOL    HW123651   8.466   4.693   7.758 -0.1097  0.5367 -0.0330
 7691SOL    HW223652   8.437   4.594   7.869 -1.1586  0.4599 -0.3585
 7692SOL     OW23653   4.652   2.391   4.534 -0.5796  0.1735  0.1016
 7692SOL    HW123654   4.570   2.433   4.508 -1.1208 -1.1646 -0.4335
 7692SOL    HW223655   4.661   2.317   4.474  0.6961 -0.0662  0.5704
 7693SOL     OW23656   5.594   9.228   7.261  0.6182  0.9519  0.5955
 7693SOL    HW123657   5.553   9.158   7.312  0.6926  1.4433  1.3387
 7693SOL    HW223658   5.687   9.221   7.281  0.8707  0.1599 -0.7033
 7694SOL     OW23659   5.840   0.375   8.450 -0.4413 -0.1960 -0.0847
 7694SOL    HW123660   5.809   0.319   8.521  0.8005  0.8028  1.3106
 7694SOL    HW223661   5.780   0.449   8.449 -0.6990 -0.4079 -0.3533
 7695SOL     OW23662   7.814   4.938   1.392  0.0117 -0.2862  0.3891
 7695SOL    HW123663   7.812   4.888   1.311 -1.1567  0.2180  0.0913
 7695SOL    HW223664   7.908   4.947   1.412  0.2659 -1.6260 -0.1280
 7696SOL     OW23665   1.629   8.438   7.141  0.1408 -0.1034 -0.1016
 7696SOL    HW123666   1.705   8.491   7.115 -0.6576  0.5869 -1.0742
 7696SOL    HW223667   1.663   8.349   7.145  0.7545  0.0306 -1.6816
 7697SOL     OW23668   6.456   0.013   2.860  0.2244 -0.0099  0.0121
 7697SOL    HW123669   6.518   0.084   2.880 -2.1000  2.6172 -1.3826
 7697SOL    HW223670   6.464   0.001   2.765 -1.0908  0.0966 -0.1221
 7698SOL     OW23671   0.113   4.487   7.442 -0.0509 -0.1948 -0.1930
 7698SOL    HW123672   0.030   4.487   7.393 -1.4386 -0.3242  2.0406
 7698SOL    HW223673   0.088   4.462   7.531  2.5148 -0.9201  0.3961
 7699SOL     OW23674   7.960   7.033   9.280 -0.7892 -0.1079  0.2499
 7699SOL    HW123675   7.881   6.985   9.253 -0.6001 -0.3750  0.1647
 7699SOL    HW223676   7.941   7.124   9.259 -0.1792 -0.4308 -1.9522
 7700SOL     OW23677   9.886   2.512   5.865 -0.0132 -0.8833 -0.2827
 7700SOL    HW123678   9.922   2.461   5.938 -1.9180 -1.5646  0.2387
 7700SOL    HW223679   9.814   2.561   5.903  0.4338  0.5923 -1.2519
 7701SOL     OW23680   5.472   0.178   4.052 -0.1021  0.5900 -0.4082
 7701SOL    HW123681   5.388   0.187   4.095  0.3113 -0.3248  0.6438
 7701SOL    HW223682   5.506   0.093   4.082  0.3656  0.0673 -2.2671
 7702SOL     OW23683   8.595   9.870   2.802  0.7990 -0.2716 -0.1418
 7702SOL    HW123684   8.577   9.963   2.813 -1.0422 -0.5222 -0.5753
 7702SOL    HW223685   8.545   9.845   2.724  3.2057 -1.1423 -1.4853
 7703SOL     OW23686   0.589   7.896   8.611  0.4999  0.1582  0.4678
 7703SOL    HW123687   0.582   7.990   8.625 -0.2951  0.0552  0.8382
 7703SOL    HW223688   0.678   7.874   8.639  0.5121  0.7163  0.8813
 7704SOL     OW23689   7.855   7.175   8.759  0.6134  0.4382 -0.6544
 7704SOL    HW123690   7.877   7.108   8.694 -1.5803  0.4105 -1.4699
 7704SOL    HW223691   7.877   7.258   8.716  1.0067  0.3425 -0.6411
 7705SOL     OW23692   8.484   2.988   2.072 -0.3354 -0.0385  0.1671
 7705SOL    HW123693   8.407   2.971   2.018  0.0406  0.2008 -0.4543
 7705SOL    HW223694   8.556   2.948   2.025 -0.2035 -1.1174  1.2299
 7706SOL     OW23695   5.965   5.326   8.727  0.8271 -0.1652  0.0471
 7706SOL    HW123696   5.961   5.254   8.791 -0.9168 -0.8086 -0.7262
 7706SOL    HW223697   5.883   5.320   8.679  0.3764  2.7132  0.3072
 7707SOL     OW23698   1.701   2.254   4.122 -0.0796  0.2338 -0.1601
 7707SOL    HW123699   1.741   2.295   4.046  2.5875  0.6530  1.3584
 7707SOL    HW223700   1.623   2.308   4.139 -0.0118  0.9160 -1.7843
 7708SOL     OW23701   1.816   2.063   0.078 -0.5009 -0.1809 -0.8408
 7708SOL    HW123702   1.877   1.989   0.084 -0.8650 -0.4587 -0.4028
 7708SOL    HW223703   1.870   2.141   0.091 -0.2307 -0.4238 -0.4773
 7709SOL     OW23704   5.628   7.390   3.971 -0.1213 -0.3149 -0.2355
 7709SOL    HW123705   5.719   7.388   3.999 -0.2786 -1.7715  0.2593
 7709SOL    HW223706   5.630   7.361   3.880 -0.0421  0.1954 -0.3990
 7710SOL     OW23707   1.255   0.916   7.073 -0.2128  0.1630 -0.1956
 7710SOL    HW123708   1.299   0.949   6.994  1.0461  1.6397  1.0643
 7710SOL    HW223709   1.258   0.989   7.135  0.7529 -1.6253  1.9869
 7711SOL     OW23710   9.874   3.774   3.636  0.0103  0.2903 -0.2000
 7711SOL    HW123711   9.882   3.680   3.654  1.6528  0.3331 -0.4916
 7711SOL    HW223712   9.824   3.808   3.710 -1.5330 -0.9591 -0.6219
 7712SOL     OW23713   0.544   8.207   9.838  0.2019  0.3026  0.0935
 7712SOL    HW123714   0.529   8.213   9.932 -0.1516  1.2125 -0.0130
 7712SOL    HW223715   0.635   8.177   9.830 -0.1194 -0.9083  0.7197
 7713SOL     OW23716   1.410   1.904   0.771  0.0834  0.2214 -0.0743
 7713SOL    HW123717   1.450   1.879   0.688  0.9856 -0.1157  0.4527
 7713SOL    HW223718   1.322   1.865   0.768  0.8027 -1.4905 -0.0538
 7714SOL     OW23719   7.586   2.332   2.938  0.1401 -0.2076  0.6284
 7714SOL    HW123720   7.596   2.256   2.995 -0.1137 -0.0111  0.9351
 7714SOL    HW223721   7.507   2.375   2.969  0.4263  0.3313  0.6273
 7715SOL     OW23722   0.996   5.033   7.657 -0.2370 -0.2429  0.7966
 7715SOL    HW123723   1.002   5.117   7.611  1.0209 -2.1135 -2.8431
 7715SOL    HW223724   0.902   5.020   7.671 -0.4092  2.1002  2.3208
 7716SOL     OW23725   3.321   3.428   7.769  0.6343 -0.1786  0.4421
 7716SOL    HW123726   3.263   3.357   7.741  1.1380  0.2858 -2.0303
 7716SOL    HW223727   3.383   3.386   7.829 -0.0162 -1.4861  0.2433
 7717SOL     OW23728   2.139   7.728   4.934  0.2526  0.3461 -0.2297
 7717SOL    HW123729   2.084   7.806   4.932 -1.2052 -0.6520 -0.7520
 7717SOL    HW223730   2.104   7.675   5.005  2.4438  0.9606  1.4215
 7718SOL     OW23731   8.775   6.238   0.818 -0.0021 -0.3359  0.2754
 7718SOL    HW123732   8.842   6.220   0.752 -1.1408  1.4840 -1.5189
 7718SOL    HW223733   8.719   6.161   0.817  0.2104 -0.4900 -0.6605
 7719SOL     OW23734   0.659   0.588   0.770 -0.0174  0.3834  0.5972
 7719SOL    HW123735   0.672   0.495   0.789  1.3960 -0.1696 -2.4057
 7719SOL    HW223736   0.571   0.593   0.732  0.5437 -0.1045 -0.8458
 7720SOL     OW23737   2.982   0.439   5.110  0.5714 -0.4236  0.2928
 7720SOL    HW123738   3.057   0.417   5.056  1.8923 -0.8922  2.2156
 7720SOL    HW223739   2.979   0.370   5.176 -1.0381  0.0576  0.7695
 7721SOL     OW23740   4.521   9.588   5.148 -0.6289  0.3850 -0.1396
 7721SOL    HW123741   4.428   9.594   5.125 -0.2716  0.4629 -1.7106
 7721SOL    HW223742   4.565   9.577   5.064  0.6322 -1.6726  0.7228
 7722SOL     OW23743   8.611   6.683   2.023  0.0156 -0.5238 -0.0514
 7722SOL    HW123744   8.572   6.639   2.098 -0.5595  1.5670  0.9721
 7722SOL    HW223745   8.689   6.726   2.059  0.6544 -0.8055 -1.0374
 7723SOL     OW23746   5.154   2.230   3.558  0.2063  0.3277 -0.1989
 7723SOL    HW123747   5.189   2.301   3.611  1.9120 -1.8605  1.8231
 7723SOL    HW223748   5.227   2.202   3.503 -0.5758  0.3991 -1.3101
 7724SOL     OW23749   8.869   8.219   7.878 -0.1700  0.4158 -0.0586
 7724SOL    HW123750   8.925   8.199   7.803 -0.1963 -0.4517  0.1504
 7724SOL    HW223751   8.780   8.202   7.847 -0.0417 -2.5463  0.9258
 7725SOL     OW23752   8.574   0.828   1.584  0.4446  0.4229 -0.6341
 7725SOL    HW123753   8.575   0.900   1.521  2.1627  0.8159 -0.2024
 7725SOL    HW223754   8.548   0.752   1.532 -3.0091  1.5290 -0.7927
 7726SOL     OW23755   7.638   7.461   3.503 -0.2674  0.0280  0.4466
 7726SOL    HW123756   7.581   7.417   3.440 -2.0806 -0.4694  2.3284
 7726SOL    HW223757   7.703   7.506   3.449 -0.0290 -2.5995 -1.6802
 7727SOL     OW23758   4.595   5.666   8.922  1.0966  0.3786 -0.7669
 7727SOL    HW123759   4.586   5.572   8.937 -0.4993  0.5610 -0.4518
 7727SOL    HW223760   4.549   5.707   8.995  0.9014  1.3942 -1.4360
 7728SOL     OW23761   3.143   9.243   0.916 -0.0009  0.0313  0.3375
 7728SOL    HW123762   3.059   9.207   0.944 -0.8615 -1.2394 -3.3754
 7728SOL    HW223763   3.120   9.312   0.853  1.7084 -0.0353 -0.4160
 7729SOL     OW23764   3.246   7.158   9.242  0.0330 -0.0768  0.0517
 7729SOL    HW123765   3.178   7.108   9.196  0.8177  0.7912 -2.2339
 7729SOL    HW223766   3.325   7.141   9.192  1.1145  0.4195  1.5376
 7730SOL     OW23767   1.116   3.515   9.853 -0.2945  0.3633  0.4563
 7730SOL    HW123768   1.075   3.589   9.808 -2.0499 -0.7384  0.1317
 7730SOL    HW223769   1.081   3.519   9.942 -1.6627 -0.9373  0.0117
 7731SOL     OW23770   3.024   3.482   3.071  0.2151  0.1508 -0.1069
 7731SOL    HW123771   3.086   3.412   3.093  0.0330  0.5200  1.7677
 7731SOL    HW223772   2.939   3.449   3.099 -0.5383 -0.3768 -2.7236
 7732SOL     OW23773   3.307   1.052   7.922 -0.3542  0.1643 -0.1543
 7732SOL    HW123774   3.356   1.019   7.997 -0.7802  0.0824  0.0896
 7732SOL    HW223775   3.350   1.134   7.899  0.6050 -0.4407 -0.6451
 7733SOL     OW23776   4.223   8.985   5.664  0.2476 -0.1899 -0.1231
 7733SOL    HW123777   4.178   9.038   5.599 -0.6631 -0.4952  0.2418
 7733SOL    HW223778   4.295   8.944   5.616  0.1016  0.2510 -0.7301
 7734SOL     OW23779   7.501   3.173   4.137 -0.1391  0.2697 -0.3511
 7734SOL    HW123780   7.514   3.238   4.069  1.1010  1.0420  0.5704
 7734SOL    HW223781   7.584   3.125   4.141 -0.2109  0.1904  0.5495
 7735SOL     OW23782   1.586   5.402   2.778 -0.0783  0.0357 -0.3788
 7735SOL    HW123783   1.653   5.410   2.846 -0.3138 -0.7214 -0.0429
 7735SOL    HW223784   1.628   5.349   2.710 -0.7194 -1.5354  0.3883
 7736SOL     OW23785   8.272   5.805   1.705 -0.1816  0.4065  0.1147
 7736SOL    HW123786   8.307   5.749   1.636 -2.2187  2.0089 -2.4420
 7736SOL    HW223787   8.322   5.886   1.697 -1.3103  1.0837 -0.4985
 7737SOL     OW23788   1.604   6.711   5.619 -0.5238 -0.0030  0.2260
 7737SOL    HW123789   1.639   6.785   5.669  0.1954  0.0652 -0.3539
 7737SOL    HW223790   1.545   6.667   5.680 -0.1996  0.4740  0.9033
 7738SOL     OW23791   8.825   3.003   3.661 -0.1923 -0.0757 -0.1010
 7738SOL    HW123792   8.774   2.984   3.739 -0.9473 -0.0019 -0.5645
 7738SOL    HW223793   8.776   3.073   3.616 -1.1563 -1.7846 -1.8904
 7739SOL     OW23794   1.808   7.587   4.424  0.0095  0.2950  0.6189
 7739SOL    HW123795   1.896   7.617   4.401 -0.0042  0.5183  0.8521
 7739SOL    HW223796   1.814   7.566   4.517  0.1060 -0.7494  0.3894
 7740SOL     OW23797   6.883   3.952   6.210  0.4926 -0.1313 -0.7109
 7740SOL    HW123798   6.930   4.006   6.146  0.5221  0.8180  0.0988
 7740SOL    HW223799   6.945   3.941   6.282  0.1071 -0.3760 -0.4129
 7741SOL     OW23800   7.141   3.670   7.452 -0.6924  0.2423 -0.3448
 7741SOL    HW123801   7.068   3.614   7.423 -0.9744  0.5670 -0.2681
 7741SOL    HW223802   7.210   3.656   7.387 -0.3251 -1.0804  0.2926
 7742SOL     OW23803   9.339   1.793   5.425  0.2947 -0.0180  0.6827
 7742SOL    HW123804   9.367   1.771   5.336 -0.3576 -1.8248  0.8788
 7742SOL    HW223805   9.365   1.884   5.437  0.6634  0.1670 -1.2474
 7743SOL     OW23806   2.839   8.718   1.476  0.2102 -0.5507  0.2685
 7743SOL    HW123807   2.769   8.669   1.435 -0.2275 -0.5988  1.0550
 7743SOL    HW223808   2.919   8.686   1.434 -0.2499 -0.2555 -0.8680
 7744SOL     OW23809   0.851   1.484   8.252  0.2339  0.0961 -0.8767
 7744SOL    HW123810   0.826   1.576   8.240  1.0302  0.1952 -1.9051
 7744SOL    HW223811   0.781   1.447   8.306  0.4171  1.5475  0.4492
 7745SOL     OW23812   7.579   8.489   8.522 -0.6013  0.3102 -0.0566
 7745SOL    HW123813   7.549   8.398   8.516 -1.4837  0.5578  0.4756
 7745SOL    HW223814   7.644   8.487   8.593  0.6646 -0.2171 -1.1880
 7746SOL     OW23815   9.436   9.642   6.557  0.1693  0.2919  0.0928
 7746SOL    HW123816   9.524   9.657   6.523 -0.5981  3.0655 -0.9955
 7746SOL    HW223817   9.438   9.678   6.645 -0.2322  1.9549 -0.5324
 7747SOL     OW23818   2.422   5.105   7.993  0.0437 -0.3086  0.0005
 7747SOL    HW123819   2.511   5.134   8.012 -0.5592  0.6688  1.5338
 7747SOL    HW223820   2.426   5.072   7.903  1.6692  0.8410 -0.3974
 7748SOL     OW23821   5.987   0.980   2.982 -0.0193 -0.4166  0.4078
 7748SOL    HW123822   6.018   1.013   2.897  1.4326  0.9262  1.4050
 7748SOL    HW223823   6.066   0.951   3.026 -0.8128 -1.4506  1.1796
 7749SOL     OW23824   7.248   0.076   1.047  0.1890 -0.0771 -0.0838
 7749SOL    HW123825   7.240   0.152   1.105 -1.7987 -0.1382 -0.2161
 7749SOL    HW223826   7.253   0.001   1.106 -3.1174 -0.2650  0.1540
 7750SOL     OW23827   9.756   3.222   8.361 -0.5762  0.1191 -0.7192
 7750SOL    HW123828   9.740   3.135   8.324 -0.4758 -0.4289  0.4787
 7750SOL    HW223829   9.825   3.259   8.305  0.3131 -1.0945 -0.4823
 7751SOL     OW23830   8.952   1.635   6.129 -0.2322  0.0732  0.2274
 7751SOL    HW123831   8.955   1.582   6.050 -0.2662 -0.3391  0.4965
 7751SOL    HW223832   8.892   1.707   6.109  0.1309  0.2368 -0.2785
 7752SOL     OW23833   5.673   2.589   0.066  0.0149 -0.2160  0.1526
 7752SOL    HW123834   5.623   2.562  -0.011 -0.1772 -2.3983  0.9860
 7752SOL    HW223835   5.612   2.581   0.139  0.3866  1.1971  0.6579
 7753SOL     OW23836   0.775   8.636   5.753  0.4893  0.3692 -0.3067
 7753SOL    HW123837   0.736   8.703   5.698  0.4893  0.0087 -0.7560
 7753SOL    HW223838   0.867   8.662   5.762  0.3101  0.8556  0.1932
 7754SOL     OW23839   8.194   7.933   9.321  0.0393 -0.3208 -0.5167
 7754SOL    HW123840   8.133   8.004   9.303 -0.0165 -0.3723 -0.5298
 7754SOL    HW223841   8.221   7.901   9.235 -0.1023 -0.4591 -0.5115
 7755SOL     OW23842   8.566   0.570   3.892  0.3164 -0.6511  0.8203
 7755SOL    HW123843   8.530   0.533   3.811  1.0676 -1.5308  0.8699
 7755SOL    HW223844   8.571   0.664   3.876  1.4278 -0.9170 -0.5633
 7756SOL     OW23845   3.932   6.077   5.254  0.1860  0.5999  0.1563
 7756SOL    HW123846   3.945   6.072   5.159  2.2268 -0.1938  0.4200
 7756SOL    HW223847   3.932   6.170   5.274  2.6225  0.7637 -0.3457
 7757SOL     OW23848   6.365   6.679   1.016 -0.3798  0.1885  0.1366
 7757SOL    HW123849   6.372   6.673   0.921  0.0113  1.7878  0.0314
 7757SOL    HW223850   6.272   6.695   1.033 -0.5531 -0.6892  0.0918
 7758SOL     OW23851   3.702   9.629   5.004  0.0632  0.2133 -0.0824
 7758SOL    HW123852   3.737   9.595   4.921  1.4511 -0.9997  0.9452
 7758SOL    HW223853   3.772   9.684   5.038 -0.8355  1.3916 -0.0847
 7759SOL     OW23854   0.763   1.251   5.253 -0.4272 -0.5042 -0.4598
 7759SOL    HW123855   0.703   1.240   5.327 -0.5503 -0.6585 -0.5830
 7759SOL    HW223856   0.775   1.163   5.218 -0.5941 -0.3921 -0.8034
 7760SOL     OW23857   3.901   2.728   6.745  0.1763  0.1980  0.6867
 7760SOL    HW123858   3.944   2.737   6.830 -0.7497 -0.0038  1.1807
 7760SOL    HW223859   3.810   2.750   6.761  0.1688  1.0799 -0.4531
 7761SOL     OW23860   3.292   2.872   8.930  0.0792 -0.9504 -0.2025
 7761SOL    HW123861   3.233   2.839   8.863  0.3351 -1.2984 -0.2610
 7761SOL    HW223862   3.379   2.869   8.889  0.2816 -1.4795  0.2519
 7762SOL     OW23863   8.886   2.625   1.261  0.1182 -0.3522  0.3132
 7762SOL    HW123864   8.968   2.660   1.295  0.5737 -0.7088 -0.4062
 7762SOL    HW223865   8.895   2.631   1.166 -0.7472 -0.2634  0.2298
 7763SOL     OW23866   2.626   3.943   8.351 -0.0365 -0.2953 -0.4260
 7763SOL    HW123867   2.717   3.970   8.359  0.2939 -0.5367 -2.7266
 7763SOL    HW223868   2.614   3.878   8.421  1.8341 -0.9557 -0.6765
 7764SOL     OW23869   5.916   4.346   3.324  0.3729  0.2498  0.1489
 7764SOL    HW123870   5.965   4.428   3.318  0.1974  0.4338  1.0261
 7764SOL    HW223871   5.841   4.368   3.380  0.3304 -0.5103  0.3950
 7765SOL     OW23872   2.928   4.338   5.356  0.4824 -0.2766 -0.4936
 7765SOL    HW123873   2.991   4.289   5.409  1.9556  1.8456 -0.1629
 7765SOL    HW223874   2.925   4.290   5.273  0.5669 -1.8461  0.3603
 7766SOL     OW23875   4.377   6.076   1.822 -0.0082  0.6289 -0.3398
 7766SOL    HW123876   4.420   6.146   1.871 -0.7997  1.0470 -0.2289
 7766SOL    HW223877   4.388   5.998   1.877 -1.6504  1.2651  0.9604
 7767SOL     OW23878   3.177   5.052   2.746  0.0220  0.5769  0.0108
 7767SOL    HW123879   3.191   5.059   2.841 -0.8682  0.3443  0.1642
 7767SOL    HW223880   3.092   5.093   2.731  1.2543  2.9385 -1.0505
 7768SOL     OW23881   4.037   8.809   6.274  0.1132 -0.0461 -0.0032
 7768SOL    HW123882   4.053   8.724   6.315  0.6214 -0.5945 -1.3140
 7768SOL    HW223883   4.123   8.838   6.245 -0.1344  0.6965 -0.0147
 7769SOL     OW23884   7.172   3.140   4.905 -0.1794 -0.2488 -0.5493
 7769SOL    HW123885   7.255   3.187   4.909  0.2031 -0.9859  2.3408
 7769SOL    HW223886   7.180   3.083   4.829  1.8410 -0.0473 -0.5441
 7770SOL     OW23887   8.044   9.167   3.216  0.0979  0.1864  0.0498
 7770SOL    HW123888   8.058   9.190   3.124 -0.1304  0.2175  0.0232
 7770SOL    HW223889   8.064   9.248   3.264  1.1947 -0.1072  0.1071
 7771SOL     OW23890   3.364   5.295   5.653 -0.2023  0.8534 -0.4644
 7771SOL    HW123891   3.280   5.257   5.680  0.0074  1.6699  1.5471
 7771SOL    HW223892   3.378   5.261   5.565 -0.6109 -2.7399  0.6694
 7772SOL     OW23893   0.221   0.430   0.939  0.3919  0.2014 -0.1947
 7772SOL    HW123894   0.303   0.454   0.896  0.9288 -1.4263 -0.1532
 7772SOL    HW223895   0.249   0.387   1.020 -0.5306  0.2061  0.1330
 7773SOL     OW23896   8.215   0.128   0.799  0.3285  0.0969  0.0098
 7773SOL    HW123897   8.296   0.106   0.845  2.1679 -0.6094 -3.1898
 7773SOL    HW223898   8.161   0.049   0.806  0.6738 -0.0883  0.7030
 7774SOL     OW23899   9.833   5.585   0.757  0.7738  0.0025  0.5814
 7774SOL    HW123900   9.792   5.514   0.805 -0.9697  1.6485  1.6654
 7774SOL    HW223901   9.883   5.633   0.823  2.4625 -0.5130 -0.2565
 7775SOL     OW23902   9.090   4.037   0.049 -0.1684  0.1654  0.3116
 7775SOL    HW123903   9.080   4.057   0.142  1.5736 -2.1376  1.0723
 7775SOL    HW223904   9.031   3.963   0.034  1.5497 -1.2724  0.3251
 7776SOL     OW23905   5.346   9.710   4.613 -0.8517 -0.6880 -0.2351
 7776SOL    HW123906   5.437   9.692   4.637 -0.2896 -0.1560 -1.8778
 7776SOL    HW223907   5.331   9.800   4.643 -0.8209 -0.7444 -0.0459
 7777SOL     OW23908   7.676   4.433   3.736 -0.3043 -0.0669  0.3069
 7777SOL    HW123909   7.758   4.386   3.727 -0.5369 -0.1176 -2.1185
 7777SOL    HW223910   7.663   4.476   3.652 -2.4066  0.5521  0.8798
 7778SOL     OW23911   1.609   2.199   5.303 -0.3910 -0.0541  0.7517
 7778SOL    HW123912   1.652   2.125   5.261  0.3166  0.0671  1.2463
 7778SOL    HW223913   1.631   2.191   5.396 -1.5228 -0.0391  1.0471
 7779SOL     OW23914   3.134   1.807   9.010 -0.0420 -0.0705 -0.1758
 7779SOL    HW123915   3.076   1.766   8.946  0.9013  0.3557 -1.3638
 7779SOL    HW223916   3.076   1.852   9.071 -0.9600  0.2303 -1.2478
 7780SOL     OW23917   3.470   9.113   4.239 -0.1202  0.0167 -0.3547
 7780SOL    HW123918   3.532   9.160   4.183  2.0317  0.9773  2.5690
 7780SOL    HW223919   3.413   9.066   4.178  1.4946  1.5986 -3.2946
 7781SOL     OW23920   9.740   2.341   7.628 -0.3847  0.0285  0.6856
 7781SOL    HW123921   9.764   2.364   7.718 -1.4211  1.4685  0.6244
 7781SOL    HW223922   9.788   2.403   7.573 -0.4853 -0.2306  0.2974
 7782SOL     OW23923   2.972   8.019   7.807 -0.4091 -0.2181 -0.0247
 7782SOL    HW123924   3.024   7.951   7.850 -0.5982 -0.7652 -0.6499
 7782SOL    HW223925   2.882   8.002   7.834 -0.2319  1.1411  1.6105
 7783SOL     OW23926   5.626   8.763   8.628  0.6086  0.1442 -0.1869
 7783SOL    HW123927   5.634   8.768   8.532  0.1436  0.2671 -0.2204
 7783SOL    HW223928   5.584   8.845   8.652 -0.5359 -0.4793 -0.0110
 7784SOL     OW23929   7.466   0.079   0.315 -0.0929 -0.2028 -0.2054
 7784SOL    HW123930   7.434   0.049   0.230  0.2723  0.7483 -0.6890
 7784SOL    HW223931   7.392   0.128   0.352 -0.1553 -0.3802 -0.0928
 7785SOL     OW23932   0.731   5.110   2.347  0.3531 -0.0536 -0.5924
 7785SOL    HW123933   0.798   5.069   2.292  1.3001 -0.1035  0.5574
 7785SOL    HW223934   0.768   5.195   2.371 -0.4527  0.3592 -0.8026
 7786SOL     OW23935   3.894   6.674   1.438 -0.4863  0.1539 -0.1480
 7786SOL    HW123936   3.808   6.684   1.478 -0.3991 -0.3630  0.1726
 7786SOL    HW223937   3.928   6.592   1.473 -0.1977 -0.0603 -0.8947
 7787SOL     OW23938   9.611   2.863   0.815  0.1716  0.0433 -0.1890
 7787SOL    HW123939   9.550   2.789   0.822  0.2479  0.0860  1.2048
 7787SOL    HW223940   9.638   2.863   0.723 -0.3321 -1.2591 -0.3625
 7788SOL     OW23941   9.433   5.019   0.904  0.1866  0.1183 -0.4378
 7788SOL    HW123942   9.395   5.039   0.818  2.3675  2.3742 -0.9935
 7788SOL    HW223943   9.520   4.985   0.884  0.5136  0.1400  0.8725
 7789SOL     OW23944   1.129   5.470   2.295  0.3379 -0.3229 -0.4481
 7789SOL    HW123945   1.043   5.428   2.306  0.1007 -0.6889 -3.0583
 7789SOL    HW223946   1.110   5.551   2.247  1.3066  0.4289  0.4090
 7790SOL     OW23947   7.086   3.069   1.757  0.2359  0.0289 -0.4309
 7790SOL    HW123948   6.997   3.080   1.724  0.1237  0.6102  0.0420
 7790SOL    HW223949   7.106   2.977   1.744 -1.1249 -0.5414  1.1444
 7791SOL     OW23950   6.036   6.286   7.484 -0.0050  0.1463 -0.0184
 7791SOL    HW123951   5.998   6.280   7.572 -0.9013  0.6816 -0.3590
 7791SOL    HW223952   5.999   6.366   7.447  0.4367 -0.0268 -0.8592
 7792SOL     OW23953   6.443   2.906   0.224  0.4336 -0.4783 -0.5554
 7792SOL    HW123954   6.446   2.832   0.163  0.8199 -0.4801 -0.5353
 7792SOL    HW223955   6.525   2.900   0.272  1.2480  0.9229 -1.6962
 7793SOL     OW23956   0.716   4.407   4.317  0.1431 -0.3467  0.4065
 7793SOL    HW123957   0.669   4.442   4.393  0.1380 -1.6963  1.0501
 7793SOL    HW223958   0.795   4.368   4.353  0.9584  0.4326 -0.4846
 7794SOL     OW23959   1.822   1.706   5.654 -0.3458 -0.4334  0.5306
 7794SOL    HW123960   1.862   1.621   5.636 -1.8628 -1.0279 -0.2219
 7794SOL    HW223961   1.844   1.760   5.578 -0.4147 -0.5506  0.4274
 7795SOL     OW23962   4.582   0.654   1.706 -0.3592 -0.1340  0.3622
 7795SOL    HW123963   4.494   0.664   1.741 -0.2558 -2.6128  1.5413
 7795SOL    HW223964   4.568   0.626   1.615 -0.7897 -0.6956  0.5980
 7796SOL     OW23965   2.303   5.565   4.230  0.1872  0.1798  0.5113
 7796SOL    HW123966   2.223   5.600   4.269  0.2375  1.3404 -0.3681
 7796SOL    HW223967   2.274   5.493   4.173 -0.0042 -0.7034  1.6852
 7797SOL     OW23968   0.683   6.951   9.597 -0.1467 -0.3419 -0.0391
 7797SOL    HW123969   0.705   7.044   9.592 -0.7249 -0.0918  1.5072
 7797SOL    HW223970   0.697   6.928   9.689 -0.3283 -1.7048 -0.3313
 7798SOL     OW23971   8.063   9.450   2.590  0.4493  0.1899  0.8243
 7798SOL    HW123972   8.019   9.525   2.550  0.8179  0.0753  0.1983
 7798SOL    HW223973   8.135   9.489   2.640  1.7062  0.1569 -0.8936
 7799SOL     OW23974   3.543   3.263   2.105  0.5668 -0.1602  0.2164
 7799SOL    HW123975   3.528   3.169   2.100  0.6253 -0.1943  0.6018
 7799SOL    HW223976   3.638   3.272   2.104  0.5994 -0.1996  1.4881
 7800SOL     OW23977   7.053   3.923   7.031 -0.4088  0.4694  0.2434
 7800SOL    HW123978   6.960   3.933   7.053  0.2472  0.2413  3.6451
 7800SOL    HW223979   7.091   4.009   7.046  0.2240  0.1368  0.5876
 7801SOL     OW23980   0.446   1.009   9.705  0.3058  0.8503  0.0910
 7801SOL    HW123981   0.469   0.919   9.680  1.9010  1.2156  0.1266
 7801SOL    HW223982   0.444   1.057   9.622  0.8013  1.0433  0.1827
 7802SOL     OW23983   2.602   2.283   6.570  0.5722  0.1940 -0.4853
 7802SOL    HW123984   2.597   2.286   6.475 -2.5379  0.1022 -0.4052
 7802SOL    HW223985   2.696   2.272   6.588  1.2247 -0.0913 -3.4970
 7803SOL     OW23986   2.003   1.487   5.592 -0.2055  0.1408 -0.4378
 7803SOL    HW123987   2.061   1.562   5.606  1.9474 -1.1328 -1.9392
 7803SOL    HW223988   2.027   1.426   5.662 -1.1864  0.3826  0.1270
 7804SOL     OW23989   6.240   0.917   6.150  0.1574 -0.1596  0.0471
 7804SOL    HW123990   6.222   0.857   6.078  2.8016 -0.2665 -0.6275
 7804SOL    HW223991   6.154   0.937   6.187 -1.2150 -0.7118 -2.6216
 7805SOL     OW23992   9.773   4.397   7.953 -0.2718 -0.2826  0.2368
 7805SOL    HW123993   9.844   4.423   8.011  1.8924 -3.2486 -0.8790
 7805SOL    HW223994   9.758   4.474   7.898  2.7104  0.2127 -0.0464
 7806SOL     OW23995   1.770   2.319   0.692 -0.0226 -0.0151 -0.3336
 7806SOL    HW123996   1.793   2.357   0.607  0.9871  0.9768  0.3369
 7806SOL    HW223997   1.768   2.395   0.751  1.8598 -0.9308  1.0246
 7807SOL     OW23998   7.143   1.799   4.025 -0.1032 -0.4278  0.3232
 7807SOL    HW123999   7.063   1.772   4.071  0.7915 -2.8644  0.6034
 7807SOL    HW224000   7.112   1.829   3.939 -1.3251 -1.8113  0.2326
 7808SOL     OW24001   6.980   8.569   0.484 -0.1357 -0.0774  0.2526
 7808SOL    HW124002   6.938   8.648   0.451  0.8537 -0.4461 -2.1557
 7808SOL    HW224003   6.914   8.526   0.538 -1.0837  1.7886  0.6286
 7809SOL     OW24004   5.247   0.864   4.666 -0.6557  0.5674 -0.8318
 7809SOL    HW124005   5.225   0.857   4.573 -2.5904 -0.3389 -0.3491
 7809SOL    HW224006   5.337   0.831   4.672 -1.1469 -1.1235 -2.1527
 7810SOL     OW24007   1.795   7.211   2.041 -0.2269  0.2293 -0.0401
 7810SOL    HW124008   1.869   7.206   2.101 -0.5286  1.0309  0.4159
 7810SOL    HW224009   1.729   7.263   2.088 -2.1780 -2.6991  0.7182
 7811SOL     OW24010   8.213   8.863   5.481  0.1850 -0.2338 -0.1741
 7811SOL    HW124011   8.225   8.832   5.392 -0.0214 -1.0933  0.0931
 7811SOL    HW224012   8.178   8.952   5.471  0.1341 -0.3366 -0.9358
 7812SOL     OW24013   5.344   2.634   4.678  0.2521 -0.2057  0.7670
 7812SOL    HW124014   5.290   2.707   4.708  2.6046  1.5902  0.9379
 7812SOL    HW224015   5.338   2.637   4.583 -0.2071 -0.2236  0.7939
 7813SOL     OW24016   9.685   4.408   0.608  0.1760  0.2305 -0.5156
 7813SOL    HW124017   9.597   4.418   0.572  0.7824 -1.2850 -2.5765
 7813SOL    HW224018   9.744   4.417   0.533  1.6541 -0.8584  0.4510
 7814SOL     OW24019   0.788   6.160   8.334  0.4028  0.3050 -0.7533
 7814SOL    HW124020   0.801   6.211   8.254  0.6688  1.1546 -0.1737
 7814SOL    HW224021   0.716   6.204   8.379  0.8518  0.3662 -0.0920
 7815SOL     OW24022   1.359   4.993   2.887 -0.1464  0.2130  0.0838
 7815SOL    HW124023   1.322   5.080   2.900  0.0081  0.1341  1.1570
 7815SOL    HW224024   1.441   4.995   2.937 -0.7866 -0.9669  1.2320
 7816SOL     OW24025   1.304   1.523   5.949 -0.0236  0.3626 -0.0290
 7816SOL    HW124026   1.268   1.498   6.034  0.1454 -0.1035 -0.0917
 7816SOL    HW224027   1.347   1.607   5.965 -1.0748  0.8981  0.0617
 7817SOL     OW24028   7.197   8.387   0.522 -0.1209  0.3306  0.2457
 7817SOL    HW124029   7.148   8.361   0.444  0.8475 -2.5417  0.4567
 7817SOL    HW224030   7.137   8.369   0.595 -0.3018  1.0769  0.2889
 7818SOL     OW24031   2.355   4.159   9.462 -0.3746 -0.0016  0.1982
 7818SOL    HW124032   2.401   4.114   9.392 -0.4505 -1.0061  0.7787
 7818SOL    HW224033   2.351   4.096   9.534  1.6660  1.7418  1.9675
 7819SOL     OW24034   2.482   4.800   7.392  0.2908 -0.3865  0.3727
 7819SOL    HW124035   2.462   4.843   7.475  1.3126 -0.6158  0.7456
 7819SOL    HW224036   2.472   4.707   7.410  1.3375 -0.4884  0.4822
 7820SOL     OW24037   5.178   0.619   7.459 -0.7356  0.4864  0.0374
 7820SOL    HW124038   5.097   0.602   7.412 -0.3285  0.5933 -0.7239
 7820SOL    HW224039   5.246   0.581   7.403 -0.0908  1.9953 -0.2478
 7821SOL     OW24040   9.510   0.416   0.792 -0.4923  0.5696 -0.1798
 7821SOL    HW124041   9.589   0.381   0.751  0.1365  1.2143  0.4587
 7821SOL    HW224042   9.512   0.509   0.773 -0.8704  0.6625  0.2165
 7822SOL     OW24043   8.353   0.802   1.779  0.2565 -1.0770  0.3750
 7822SOL    HW124044   8.425   0.791   1.718 -0.0851 -2.0935  0.1366
 7822SOL    HW224045   8.291   0.860   1.734 -0.7794 -3.1459 -0.9949
 7823SOL     OW24046   5.573   3.108   8.031  0.3169  0.1991 -0.0985
 7823SOL    HW124047   5.526   3.165   8.091  2.5388 -0.5686  2.6015
 7823SOL    HW224048   5.530   3.023   8.040  0.3076  0.2136 -0.0053
 7824SOL     OW24049   0.207   9.130   6.536  0.4257  0.5319 -0.2460
 7824SOL    HW124050   0.186   9.125   6.443  0.4472  0.4952 -0.2490
 7824SOL    HW224051   0.166   9.211   6.566  2.4563  1.8584 -0.8317
 7825SOL     OW24052   9.342   3.909   4.115 -0.7828  0.0478 -0.7637
 7825SOL    HW124053   9.368   3.817   4.118 -0.3431  0.1644  1.9950
 7825SOL    HW224054   9.249   3.909   4.138 -0.3724  0.3508  1.0412
 7826SOL     OW24055   5.765   0.095   3.668  0.3213  0.3220  0.3288
 7826SOL    HW124056   5.837   0.033   3.678  0.7872 -0.0456 -3.6868
 7826SOL    HW224057   5.807   0.179   3.654 -0.0306  0.3791 -0.4673
 7827SOL     OW24058   3.861   1.711   0.138 -0.0764 -0.5201  0.3686
 7827SOL    HW124059   3.801   1.777   0.104  0.0927 -0.9165 -0.7406
 7827SOL    HW224060   3.942   1.723   0.088  0.0769 -1.3218  0.4050
 7828SOL     OW24061   7.576   0.508   5.916 -0.0369 -0.4661 -0.8751
 7828SOL    HW124062   7.584   0.525   6.010 -0.9759  1.2669 -1.0604
 7828SOL    HW224063   7.593   0.414   5.907  2.3640 -0.2739  0.7272
 7829SOL     OW24064   1.986   1.708   9.765  0.7561 -0.2211 -0.1255
 7829SOL    HW124065   1.906   1.700   9.713  2.0821 -0.5513 -2.2246
 7829SOL    HW224066   2.057   1.701   9.701  2.4661  1.2224  1.5041
 7830SOL     OW24067   9.062   8.190   2.225  0.1797  0.1852 -0.6231
 7830SOL    HW124068   9.086   8.111   2.273  1.9230  1.1559  0.2217
 7830SOL    HW224069   8.968   8.200   2.240  0.0652 -1.3119 -0.1700
 7831SOL     OW24070   8.636   3.691   2.069  0.4830 -0.0688 -0.1999
 7831SOL    HW124071   8.576   3.638   2.121  0.0311 -0.1003 -0.7455
 7831SOL    HW224072   8.579   3.749   2.019  0.9419  0.4559 -0.1262
 7832SOL     OW24073   6.042   9.088   6.816 -0.0778 -0.1755 -0.0221
 7832SOL    HW124074   6.046   8.997   6.784 -1.1695 -0.0660 -0.5360
 7832SOL    HW224075   5.952   9.098   6.848 -0.0952  0.8515 -0.3566
 7833SOL     OW24076   1.577   2.570   5.792 -0.2642  0.2484 -0.1049
 7833SOL    HW124077   1.511   2.639   5.787 -1.7348 -1.1320 -0.2626
 7833SOL    HW224078   1.563   2.517   5.714  0.9079 -0.2036 -0.0357
 7834SOL     OW24079   1.659   0.204   9.413  0.3294 -0.4476 -0.1466
 7834SOL    HW124080   1.714   0.247   9.347  1.1563 -0.7584  0.3288
 7834SOL    HW224081   1.718   0.186   9.486  0.0389 -2.4745 -0.3478
 7835SOL     OW24082   1.842   0.066   5.494 -0.0522  1.0884  0.4211
 7835SOL    HW124083   1.751   0.095   5.485 -0.0102  1.0032 -0.4317
 7835SOL    HW224084   1.888   0.115   5.426 -0.0763 -1.3332 -1.4850
 7836SOL     OW24085   5.748   2.458   7.333 -0.0938  0.2848 -0.0638
 7836SOL    HW124086   5.827   2.501   7.300  0.5473 -0.3606  0.5630
 7836SOL    HW224087   5.676   2.515   7.306  0.5592  0.7296 -0.9126
 7837SOL     OW24088   7.752   5.835   3.762 -0.1980 -0.0293 -0.7906
 7837SOL    HW124089   7.800   5.871   3.837 -2.1310 -0.6976  0.8547
 7837SOL    HW224090   7.734   5.745   3.786  1.1621 -1.0337 -3.1629
 7838SOL     OW24091   0.839   5.317   2.069  0.1390 -0.3152 -0.1971
 7838SOL    HW124092   0.896   5.261   2.121  0.1850 -0.4448 -0.3848
 7838SOL    HW224093   0.877   5.405   2.077 -0.6838 -0.0568  1.1748
 7839SOL     OW24094   2.272   8.697   9.701  0.0504  0.0814  0.0980
 7839SOL    HW124095   2.276   8.649   9.783  1.1710 -0.1480 -0.0743
 7839SOL    HW224096   2.307   8.784   9.722 -0.0653  0.1603 -0.0361
 7840SOL     OW24097   4.757   8.062   4.199  0.0942 -0.3171  0.2351
 7840SOL    HW124098   4.811   8.048   4.122  1.7134 -1.3755  1.5004
 7840SOL    HW224099   4.768   7.982   4.251  0.3435  1.0064  2.3133
 7841SOL     OW24100   2.606   1.244   0.428  0.3285  0.1373  0.2434
 7841SOL    HW124101   2.696   1.215   0.442  0.0476 -1.9965 -1.7604
 7841SOL    HW224102   2.612   1.311   0.360  0.3537 -0.7895 -0.6914
 7842SOL     OW24103   0.889   8.211   0.881  0.1500 -0.7201 -0.0372
 7842SOL    HW124104   0.921   8.160   0.955  1.6516  0.6535  0.3323
 7842SOL    HW224105   0.966   8.224   0.826 -0.1526  1.0594 -0.1212
 7843SOL     OW24106   0.017   8.808   8.701 -0.2070 -0.5520  0.4100
 7843SOL    HW124107   0.011   8.893   8.745 -1.6796  0.6547 -1.9018
 7843SOL    HW224108   0.051   8.829   8.614 -1.0106 -2.2622 -0.3601
 7844SOL     OW24109   7.039   3.421   4.595 -0.3788  0.4868 -0.0557
 7844SOL    HW124110   6.946   3.412   4.574 -0.6797  2.0269  0.5019
 7844SOL    HW224111   7.082   3.431   4.510 -0.6633 -0.5843 -0.3394
 7845SOL     OW24112   7.473   3.656   5.256  0.5321  0.0752  0.4513
 7845SOL    HW124113   7.487   3.623   5.345  0.7058 -0.5834  0.1810
 7845SOL    HW224114   7.561   3.661   5.218  0.2363 -3.2040 -0.9383
 7846SOL     OW24115   6.772   7.318   2.474 -0.4627 -0.6798 -0.4609
 7846SOL    HW124116   6.697   7.367   2.442  0.4812  0.9607 -0.2338
 7846SOL    HW224117   6.839   7.328   2.406  0.6164  0.5519  0.7189
 7847SOL     OW24118   8.653   1.077   1.442  0.0093 -0.0219 -0.3345
 7847SOL    HW124119   8.577   1.090   1.386  0.1362  1.2998 -0.2371
 7847SOL    HW224120   8.670   1.163   1.480 -0.7073 -1.0244  2.5598
 7848SOL     OW24121   1.348   0.590   8.821 -0.4368 -0.1805 -0.5787
 7848SOL    HW124122   1.399   0.662   8.858 -3.2537  1.9088 -0.4419
 7848SOL    HW224123   1.389   0.571   8.737  0.8166  1.0873 -0.2787
 7849SOL     OW24124   1.365   0.653   8.169 -0.0961 -0.3158 -0.3753
 7849SOL    HW124125   1.349   0.628   8.077  1.1845 -0.6049 -0.5353
 7849SOL    HW224126   1.444   0.707   8.165 -0.6967  0.6584  0.4375
 7850SOL     OW24127   4.560   7.145   6.531  0.5553  0.6513  0.1996
 7850SOL    HW124128   4.647   7.106   6.521  0.7314  0.8874  0.7563
 7850SOL    HW224129   4.561   7.184   6.619 -0.7278 -0.9216  0.9750
 7851SOL     OW24130   9.330   9.919   7.442  0.4350  0.4922  0.3774
 7851SOL    HW124131   9.394   9.927   7.513  0.0448  0.2701  0.7630
 7851SOL    HW224132   9.245   9.915   7.487  0.2104 -0.0510 -0.0762
 7852SOL     OW24133   1.435   1.570   5.466 -0.9174 -0.3549 -0.5216
 7852SOL    HW124134   1.475   1.625   5.399 -0.8676  0.3758  0.0954
 7852SOL    HW224135   1.341   1.574   5.446 -0.8290 -0.9010 -1.0978
 7853SOL     OW24136   3.667   3.484   9.602 -0.0051  0.2669 -0.1835
 7853SOL    HW124137   3.590   3.430   9.582  0.0361 -0.3759  1.2551
 7853SOL    HW224138   3.682   3.469   9.695  1.5083  0.8589 -0.3159
 7854SOL     OW24139   2.208   2.007   3.520  0.1310  0.1458  0.8397
 7854SOL    HW124140   2.206   2.070   3.591  2.0653 -0.6577  1.6811
 7854SOL    HW224141   2.212   1.922   3.563 -1.4939 -0.5422 -0.2691
 7855SOL     OW24142   5.682   4.687   0.275  0.2260 -0.4619 -0.2207
 7855SOL    HW124143   5.741   4.614   0.257  1.1778  0.2165  0.1196
 7855SOL    HW224144   5.634   4.660   0.353  0.8355 -0.5746  0.1197
 7856SOL     OW24145   3.077   0.216   8.778 -0.0315 -0.1204  0.2488
 7856SOL    HW124146   3.061   0.127   8.807  0.1689  0.0492  0.9029
 7856SOL    HW224147   3.172   0.221   8.767 -0.0729 -0.0810 -0.0874
 7857SOL     OW24148   9.986   7.246   0.813  0.2504  0.4902 -0.3872
 7857SOL    HW124149   9.971   7.308   0.885  0.2343  0.0753 -0.0350
 7857SOL    HW224150   9.898   7.222   0.785  0.2556  0.1738 -0.1348
 7858SOL     OW24151   3.509   6.152   8.981 -0.1597 -0.4169 -0.8973
 7858SOL    HW124152   3.432   6.114   8.938 -0.5526  0.3334 -0.8728
 7858SOL    HW224153   3.560   6.077   9.010 -1.8046 -0.9553  0.7696
 7859SOL     OW24154   1.126   2.526   9.951  0.1306  0.2196  0.0229
 7859SOL    HW124155   1.165   2.566   9.873 -0.0587 -0.4063 -0.3976
 7859SOL    HW224156   1.046   2.575   9.965 -0.1525 -0.0609 -0.5527
 7860SOL     OW24157   3.792   6.887   8.487 -0.2888 -0.5613 -0.0828
 7860SOL    HW124158   3.859   6.819   8.477  1.5405  1.1545 -0.1997
 7860SOL    HW224159   3.791   6.933   8.403  0.1305  0.8929  0.6597
 7861SOL     OW24160   9.831   1.885   8.787  0.3167 -0.1628  0.3011
 7861SOL    HW124161   9.873   1.812   8.741  1.1404  0.7609 -0.4401
 7861SOL    HW224162   9.738   1.877   8.765  0.8102  0.9485 -2.5742
 7862SOL     OW24163   3.339   6.115   4.162  0.1679  0.4161  0.0292
 7862SOL    HW124164   3.368   6.197   4.201  2.3212  0.2458 -1.0875
 7862SOL    HW224165   3.396   6.103   4.086 -1.9082 -0.7637 -1.4293
 7863SOL     OW24166   1.684   3.642   8.706 -0.1820  0.2150 -0.4658
 7863SOL    HW124167   1.761   3.597   8.740 -0.2191  1.3080  1.2150
 7863SOL    HW224168   1.614   3.619   8.767 -0.3154  2.0319  0.1270
 7864SOL     OW24169   0.672   6.566   9.677  0.0722 -0.2094  0.1332
 7864SOL    HW124170   0.648   6.651   9.714 -0.0215  0.1208 -0.6715
 7864SOL    HW224171   0.601   6.545   9.617 -0.4766 -1.4016  1.1600
 7865SOL     OW24172   1.681   1.901   8.235 -0.5589  0.2672 -0.1461
 7865SOL    HW124173   1.644   1.970   8.290  0.5145 -0.8691  2.1032
 7865SOL    HW224174   1.607   1.870   8.183 -1.7110  1.1195  0.9324
 7866SOL     OW24175   2.551   9.895   5.765  0.1873  0.1593 -0.3965
 7866SOL    HW124176   2.616   9.827   5.746  1.3138  0.6537  1.4036
 7866SOL    HW224177   2.480   9.879   5.703  1.0678 -1.7573 -0.9827
 7867SOL     OW24178   3.897   6.246   1.206 -0.0191  0.2138 -0.4478
 7867SOL    HW124179   3.955   6.205   1.270 -1.3741  0.9204  1.3050
 7867SOL    HW224180   3.831   6.290   1.258 -0.2680  2.2077 -2.3160
 7868SOL     OW24181   5.057   3.829   9.936  0.0788  0.1050  0.0340
 7868SOL    HW124182   5.129   3.814   9.997 -1.0819 -0.0669  1.4256
 7868SOL    HW224183   5.003   3.896   9.979 -0.4417  0.4552 -1.1190
 7869SOL     OW24184   8.529   5.657   2.479  0.0418 -0.1548 -0.1946
 7869SOL    HW124185   8.548   5.564   2.489  0.4606 -0.0400  0.0921
 7869SOL    HW224186   8.454   5.672   2.538  0.4503 -0.1573  0.3361
 7870SOL     OW24187   9.154   8.060   0.259 -0.2300  0.0120 -0.5736
 7870SOL    HW124188   9.234   8.112   0.267  0.0464 -0.1531 -1.9606
 7870SOL    HW224189   9.183   7.970   0.270 -0.5885  0.0622  1.0432
 7871SOL     OW24190   6.402   5.111   1.514 -0.0425  0.1517 -0.1139
 7871SOL    HW124191   6.471   5.143   1.571  0.8190 -1.3671 -0.2845
 7871SOL    HW224192   6.392   5.180   1.448  0.1444  1.1252  0.8526
 7872SOL     OW24193   5.461   0.213   7.311 -0.2443  0.1148  0.0339
 7872SOL    HW124194   5.554   0.200   7.327 -0.2958 -1.8645 -0.9838
 7872SOL    HW224195   5.456   0.232   7.217 -0.7097  2.5856  0.4833
 7873SOL     OW24196   3.851   0.738   8.116  0.1574 -0.1650  0.5023
 7873SOL    HW124197   3.830   0.722   8.208 -1.3829  0.9222  0.3759
 7873SOL    HW224198   3.912   0.668   8.093  1.8585  0.4395  2.7689
 7874SOL     OW24199   7.938   1.727   5.644 -0.0146  0.3950  0.3276
 7874SOL    HW124200   8.017   1.734   5.698 -0.8898 -0.0388  1.7062
 7874SOL    HW224201   7.892   1.809   5.658  0.1460  0.6359 -0.4580
 7875SOL     OW24202   1.080   9.836   6.478 -0.0934 -0.1909  0.4270
 7875SOL    HW124203   1.117   9.757   6.438  0.3006  1.1084 -2.0215
 7875SOL    HW224204   1.027   9.875   6.409 -0.2742  1.6836  1.5550
 7876SOL     OW24205   6.891   6.329   8.085  0.4862  0.1257  0.0100
 7876SOL    HW124206   6.850   6.414   8.068  0.6822  0.2294  0.0489
 7876SOL    HW224207   6.948   6.345   8.160 -1.7636 -0.7716  2.0505
 7877SOL     OW24208   3.627   8.292   2.795  0.9028  0.0923  0.5737
 7877SOL    HW124209   3.708   8.342   2.805  1.5182 -0.6499 -0.5156
 7877SOL    HW224210   3.640   8.214   2.848  1.0553 -0.1969  0.1153
 7878SOL     OW24211   3.722   1.272   8.277  0.0031 -0.2937 -0.1590
 7878SOL    HW124212   3.735   1.288   8.371 -1.2494 -0.4424  0.0546
 7878SOL    HW224213   3.748   1.180   8.265  1.0440 -0.0153 -0.1505
 7879SOL     OW24214   7.038   1.043   8.049  0.5689  0.3362  0.0062
 7879SOL    HW124215   6.978   1.053   8.122 -0.9713 -0.7548 -1.0366
 7879SOL    HW224216   7.119   1.086   8.077 -0.2755  0.7305  1.9554
 7880SOL     OW24217   4.165   3.770   1.080  0.7402 -0.4114  0.2360
 7880SOL    HW124218   4.213   3.828   1.022 -0.1149 -1.9172 -2.0968
 7880SOL    HW224219   4.106   3.827   1.129 -0.4848  0.7152 -2.3745
 7881SOL     OW24220   1.413   0.172   5.712 -0.2156 -0.2499  0.7476
 7881SOL    HW124221   1.341   0.185   5.774 -1.9918 -1.1020 -1.0187
 7881SOL    HW224222   1.445   0.261   5.695 -0.3502  0.0825  2.0932
 7882SOL     OW24223   2.185   7.627   9.437 -0.2731 -0.2087 -0.2143
 7882SOL    HW124224   2.110   7.605   9.492 -1.6769  2.2741 -0.9840
 7882SOL    HW224225   2.188   7.723   9.438  0.5146 -0.0960 -3.2789
 7883SOL     OW24226   2.283   5.434   4.788 -0.7108 -0.3583 -0.4283
 7883SOL    HW124227   2.351   5.488   4.829 -0.8159  0.4559 -1.2847
 7883SOL    HW224228   2.318   5.345   4.792  0.7460  0.1218 -1.4784
 7884SOL     OW24229   4.225   5.947   5.481 -0.1624  0.5666  0.3076
 7884SOL    HW124230   4.309   5.903   5.475 -0.1100  0.8618 -1.6996
 7884SOL    HW224231   4.203   5.971   5.391 -1.1800  2.7794  1.0663
 7885SOL     OW24232   5.904   8.121   5.382 -0.0945  0.5079  0.1147
 7885SOL    HW124233   5.895   8.210   5.348 -0.3936  0.6706  0.6001
 7885SOL    HW224234   5.832   8.072   5.343 -0.4844  0.7131  0.5637
 7886SOL     OW24235   6.487   2.873   6.509 -0.2351  0.8315 -0.1867
 7886SOL    HW124236   6.499   2.954   6.559  2.9137 -0.2026  0.9874
 7886SOL    HW224237   6.437   2.900   6.432 -1.9988  3.2256  1.6240
 7887SOL     OW24238   2.346   6.990   3.484 -0.0373 -0.0727  1.0018
 7887SOL    HW124239   2.430   6.945   3.475 -0.0586  0.1513 -0.7374
 7887SOL    HW224240   2.282   6.919   3.494  0.0552 -0.4361 -0.6120
 7888SOL     OW24241   3.804   3.079   3.918 -0.5767 -0.4593 -0.0771
 7888SOL    HW124242   3.834   3.067   3.828  0.6840  2.0758 -0.1004
 7888SOL    HW224243   3.881   3.060   3.972 -0.4756  0.7790  0.2436
 7889SOL     OW24244   6.531   0.714   4.239 -0.0373 -0.1553 -1.2227
 7889SOL    HW124245   6.547   0.807   4.252 -0.3724 -0.4619  2.6266
 7889SOL    HW224246   6.436   0.708   4.223  0.1691  0.1922 -2.6979
 7890SOL     OW24247   7.669   9.085   0.716  0.0532  0.3062 -0.1863
 7890SOL    HW124248   7.763   9.068   0.711  0.0601 -1.0769  2.6609
 7890SOL    HW224249   7.659   9.178   0.697  2.0733  0.5952  0.0439
 7891SOL     OW24250   4.849   5.134   1.793 -0.3068 -0.2790  0.2549
 7891SOL    HW124251   4.930   5.169   1.829  1.1650 -1.8563 -1.3261
 7891SOL    HW224252   4.853   5.040   1.811 -0.4435 -0.8090 -2.1624
 7892SOL     OW24253   9.636   8.351   9.843  0.3804  0.0701 -0.2292
 7892SOL    HW124254   9.571   8.353   9.773 -0.5338 -1.8500  0.4878
 7892SOL    HW224255   9.657   8.443   9.860 -1.9392  0.7405 -0.7012
 7893SOL     OW24256   5.752   2.568   6.706  0.0342  0.2684 -0.2680
 7893SOL    HW124257   5.711   2.488   6.739  0.9787  0.0019  0.2952
 7893SOL    HW224258   5.684   2.635   6.714 -0.1666 -0.0673  1.0573
 7894SOL     OW24259   7.589   7.167   9.418  0.0006 -0.2555  0.4410
 7894SOL    HW124260   7.610   7.075   9.400  0.0163 -0.2484  0.4220
 7894SOL    HW224261   7.651   7.193   9.486  1.7027  0.4664 -1.2921
 7895SOL     OW24262   6.112   4.965   5.021  0.2810 -0.2336  0.1837
 7895SOL    HW124263   6.115   4.924   5.108 -0.1487 -2.4658 -0.7863
 7895SOL    HW224264   6.092   5.057   5.039 -2.7872 -1.1417  2.3872
 7896SOL     OW24265   0.756   9.108   7.432  0.3050  0.2586 -0.3559
 7896SOL    HW124266   0.661   9.110   7.440  0.4346  1.8255  1.4494
 7896SOL    HW224267   0.780   9.196   7.403  1.4219  1.4553  3.6115
 7897SOL     OW24268   5.846   2.757   7.493 -0.1301  0.4121 -0.7312
 7897SOL    HW124269   5.850   2.824   7.424 -1.0385  1.0328 -0.2051
 7897SOL    HW224270   5.756   2.760   7.524  0.0544 -0.4383 -0.0732
 7898SOL     OW24271   5.569   6.737   4.670 -0.0304  0.2246  0.8969
 7898SOL    HW124272   5.577   6.812   4.729  1.6012  1.2045 -0.4738
 7898SOL    HW224273   5.615   6.667   4.715 -0.7544  0.2829  1.7695
 7899SOL     OW24274   7.812   5.938   2.303  0.5563 -0.1426 -0.6261
 7899SOL    HW124275   7.767   5.884   2.238  1.3032 -1.0252 -0.4387
 7899SOL    HW224276   7.899   5.951   2.266  0.4116  0.8874 -0.6291
 7900SOL     OW24277   8.759   6.750   0.120 -0.3901  0.0569 -0.4307
 7900SOL    HW124278   8.739   6.809   0.048 -1.8433 -0.2160 -0.2742
 7900SOL    HW224279   8.693   6.681   0.115 -0.8897  0.3239  1.4716
 7901SOL     OW24280   2.442   3.520   5.707  0.1210  0.2781 -0.0205
 7901SOL    HW124281   2.412   3.554   5.622 -0.4386 -1.0858 -0.4073
 7901SOL    HW224282   2.377   3.552   5.770 -0.7821 -0.5967 -0.4804
 7902SOL     OW24283   9.121   7.305   4.080  0.7300 -0.5918  0.1937
 7902SOL    HW124284   9.056   7.235   4.078  0.4609 -0.4979  2.6213
 7902SOL    HW224285   9.204   7.262   4.057  0.1067 -1.0143 -1.4016
 7903SOL     OW24286   8.501   9.862   8.771 -0.3936  0.2428 -0.4140
 7903SOL    HW124287   8.414   9.847   8.736 -0.6464 -0.4035  0.4710
 7903SOL    HW224288   8.490   9.864   8.866  0.8706 -2.3107 -0.1089
 7904SOL     OW24289   8.052   8.587   4.513  0.1510 -0.3161  0.2868
 7904SOL    HW124290   8.007   8.503   4.502 -1.6390  0.5462  0.6348
 7904SOL    HW224291   8.094   8.603   4.428 -0.6903 -0.8927 -0.2538
 7905SOL     OW24292   8.621   8.592   8.525  0.4054  0.0360 -0.2575
 7905SOL    HW124293   8.692   8.612   8.464 -0.4568  0.6845 -1.0867
 7905SOL    HW224294   8.607   8.673   8.573 -1.9646  1.0593 -2.4380
 7906SOL     OW24295   7.383   3.059   0.765  0.3862  0.0885 -0.8174
 7906SOL    HW124296   7.315   3.124   0.785 -0.6585 -1.4072  0.8681
 7906SOL    HW224297   7.447   3.069   0.836 -0.3366 -1.3635  0.1016
 7907SOL     OW24298   4.067   4.247   2.653  0.4438  0.3899  0.8451
 7907SOL    HW124299   4.021   4.177   2.608  1.0681  0.4462  0.0894
 7907SOL    HW224300   4.112   4.204   2.725 -0.0776  0.1993  1.0590
 7908SOL     OW24301   9.185   9.584   8.780 -0.1070  0.2125  0.8719
 7908SOL    HW124302   9.270   9.627   8.789 -0.4576  0.8247  1.3389
 7908SOL    HW224303   9.139   9.605   8.861 -0.8473  0.2041  0.4639
 7909SOL     OW24304   7.447   0.299   3.275  0.0737  0.0636  0.4981
 7909SOL    HW124305   7.542   0.300   3.290  0.4042  0.2865 -1.3116
 7909SOL    HW224306   7.410   0.268   3.357  1.4263  3.2248  2.4796
 7910SOL     OW24307   6.909   0.483   4.205  0.1589 -0.1253  0.0828
 7910SOL    HW124308   6.919   0.396   4.244  0.4721 -0.3976 -0.5996
 7910SOL    HW224309   6.999   0.509   4.182  0.3681  1.2943  2.2171
 7911SOL     OW24310   0.597   6.822   1.244  0.5110 -0.1449 -0.5517
 7911SOL    HW124311   0.561   6.909   1.233  0.8834 -0.0746 -1.2274
 7911SOL    HW224312   0.686   6.828   1.210  1.2325 -0.2757  1.2093
 7912SOL     OW24313   5.146   0.174   1.660  0.0155 -0.1485  0.9645
 7912SOL    HW124314   5.170   0.159   1.569 -0.0535 -1.8496  1.1763
 7912SOL    HW224315   5.168   0.265   1.677 -0.7629  0.4634 -0.9812
 7913SOL     OW24316   8.295   9.908   9.585  0.0948  0.2634 -0.0638
 7913SOL    HW124317   8.277   9.996   9.552 -1.4409  0.3184  0.8244
 7913SOL    HW224318   8.312   9.920   9.679 -0.6949 -0.4333  0.1813
 7914SOL     OW24319   6.885   3.570   7.429  0.0102 -0.2950  0.6209
 7914SOL    HW124320   6.872   3.489   7.479 -1.1670 -1.7991 -1.9379
 7914SOL    HW224321   6.869   3.545   7.338  2.7377  2.1425 -0.6807
 7915SOL     OW24322   0.498   4.488   9.494 -0.2035 -0.0907 -0.1974
 7915SOL    HW124323   0.509   4.404   9.540 -0.1384  0.4355  0.7715
 7915SOL    HW224324   0.418   4.476   9.443 -0.8981 -0.3352  0.9038
 7916SOL     OW24325   8.654   8.204   4.012  0.0654 -0.0392 -0.4279
 7916SOL    HW124326   8.651   8.273   3.947 -1.1925 -1.2288 -1.7045
 7916SOL    HW224327   8.646   8.123   3.962  0.0517 -1.0535  1.1314
 7917SOL     OW24328   3.503   8.853   5.798 -0.1756 -0.3523 -0.5838
 7917SOL    HW124329   3.567   8.900   5.744 -0.2088 -0.5393 -0.7849
 7917SOL    HW224330   3.459   8.794   5.738  0.9505 -1.7877 -0.0424
 7918SOL     OW24331   5.399   1.013   8.099 -0.0090  0.1754 -0.6212
 7918SOL    HW124332   5.410   0.920   8.121 -1.2818  0.4499  1.3742
 7918SOL    HW224333   5.461   1.027   8.027  1.8124 -1.6856  0.4526
 7919SOL     OW24334   7.319   6.860   0.739  0.4973 -0.0032  0.0388
 7919SOL    HW124335   7.312   6.810   0.821  1.7320  0.0953  0.2215
 7919SOL    HW224336   7.254   6.820   0.681 -0.0474 -0.3967  0.9030
 7920SOL     OW24337   0.309   2.022   3.668 -0.1590  0.0637 -0.0349
 7920SOL    HW124338   0.391   2.017   3.717 -0.4780 -0.5945  0.4376
 7920SOL    HW224339   0.251   2.075   3.723  0.2121  1.2886 -0.7706
 7921SOL     OW24340   9.196   5.121   8.479 -0.8144 -0.3386 -0.4086
 7921SOL    HW124341   9.196   5.038   8.432 -1.8469  0.0974 -1.2210
 7921SOL    HW224342   9.164   5.185   8.415 -0.4456  0.6115  0.3292
 7922SOL     OW24343   7.570   5.285   5.972  0.1309 -0.3861 -0.4561
 7922SOL    HW124344   7.606   5.241   6.049 -0.0262 -0.9247 -0.6789
 7922SOL    HW224345   7.633   5.353   5.951  0.9946 -1.2530 -0.7798
 7923SOL     OW24346   1.769   2.479   9.190  0.7813  0.0324  0.0514
 7923SOL    HW124347   1.854   2.437   9.206  1.6231  1.7705  0.3438
 7923SOL    HW224348   1.708   2.430   9.244  1.8108 -0.5092  0.7562
 7924SOL     OW24349   2.861   5.325   1.094  0.1517  0.2036  0.0293
 7924SOL    HW124350   2.839   5.337   1.186 -1.6274 -3.0073  0.1509
 7924SOL    HW224351   2.956   5.313   1.094  0.1162 -0.2693  1.5455
 7925SOL     OW24352   9.116   7.488   0.485  0.0358  0.3320 -0.8581
 7925SOL    HW124353   9.075   7.570   0.513 -0.4143  0.1895 -1.0848
 7925SOL    HW224354   9.140   7.503   0.394 -0.6425  0.0023 -1.1068
 7926SOL     OW24355   3.392   2.982   2.138  0.2326  0.1731 -0.3891
 7926SOL    HW124356   3.308   3.024   2.158  0.5067  0.4568  0.1942
 7926SOL    HW224357   3.392   2.972   2.043 -0.5508 -0.0179 -0.3768
 7927SOL     OW24358   8.119   0.026   8.313  0.0923 -0.1755  0.2794
 7927SOL    HW124359   8.212   0.009   8.326  0.4559  1.3269 -0.0966
 7927SOL    HW224360   8.079   0.011   8.399  1.0515  1.2622  1.0160
 7928SOL     OW24361   8.341   0.433   9.135  0.2281  0.4703 -0.3004
 7928SOL    HW124362   8.327   0.521   9.170  0.7602  0.3255  0.2924
 7928SOL    HW224363   8.271   0.380   9.175  0.2345  0.5135 -0.2313
 7929SOL     OW24364   9.299   8.646   3.695  0.2698 -0.0067 -0.6171
 7929SOL    HW124365   9.269   8.643   3.786 -0.6484 -0.2204 -0.9096
 7929SOL    HW224366   9.394   8.639   3.700  0.1610 -1.1595  0.2773
 7930SOL     OW24367   7.014   8.509   1.328 -0.3164  0.2900 -0.0881
 7930SOL    HW124368   7.079   8.485   1.261 -0.7105 -0.4687 -0.2089
 7930SOL    HW224369   6.965   8.580   1.287 -0.7426 -0.3586 -0.7409
 7931SOL     OW24370   7.662   3.725   9.459 -0.0491  0.0420 -0.5132
 7931SOL    HW124371   7.585   3.777   9.482  0.3638  0.7128 -0.6223
 7931SOL    HW224372   7.627   3.639   9.436 -0.6748  0.0527  0.3739
 7932SOL     OW24373   9.356   3.210   8.066 -0.2790  0.2240  0.0237
 7932SOL    HW124374   9.407   3.132   8.044 -0.8845 -0.8524  2.1338
 7932SOL    HW224375   9.405   3.252   8.136  0.0192  1.7618 -1.0629
 7933SOL     OW24376   1.242   4.176   1.062 -0.0772  0.2919 -0.2618
 7933SOL    HW124377   1.161   4.148   1.018 -1.0316  3.1282 -0.4810
 7933SOL    HW224378   1.237   4.271   1.065  1.0658  0.4201  3.9476
 7934SOL     OW24379   9.784   3.923   2.068  0.2280 -0.1189 -0.1398
 7934SOL    HW124380   9.770   4.006   2.024 -2.2199  0.4753  1.5323
 7934SOL    HW224381   9.755   3.857   2.006 -2.8113  0.6740  0.2512
 7935SOL     OW24382   6.808   8.637   9.705 -0.0452  0.3627 -0.3726
 7935SOL    HW124383   6.715   8.616   9.704 -0.2709  1.2779  0.3965
 7935SOL    HW224384   6.834   8.631   9.613 -0.3783 -1.8607 -0.3748
 7936SOL     OW24385   7.124   6.979   7.401 -0.0560  0.4408 -0.1620
 7936SOL    HW124386   7.175   7.037   7.345  0.3297 -1.1413 -1.5191
 7936SOL    HW224387   7.112   7.029   7.482  2.9750  1.1947 -0.0594
 7937SOL     OW24388   3.871   1.546   0.911 -0.1446 -0.3896  0.3838
 7937SOL    HW124389   3.814   1.541   0.834 -0.3949 -2.0942  0.6307
 7937SOL    HW224390   3.959   1.528   0.877  0.0732  0.8430  0.2244
 7938SOL     OW24391   7.907   4.958   5.226  0.2359 -0.1354 -0.1773
 7938SOL    HW124392   8.001   4.947   5.219  0.5869  0.5327  2.3968
 7938SOL    HW224393   7.873   4.869   5.233  0.7123 -0.3581 -0.6267
 7939SOL     OW24394   4.175   9.093   7.154  0.0566 -0.2179 -0.3615
 7939SOL    HW124395   4.100   9.102   7.095 -0.3194 -0.9957 -0.0224
 7939SOL    HW224396   4.168   9.004   7.187  0.6554 -0.0132  0.3348
 7940SOL     OW24397   9.475   8.986   0.914  0.9611 -0.0497  0.3834
 7940SOL    HW124398   9.388   9.023   0.930  2.1459  2.9609  0.6049
 7940SOL    HW224399   9.462   8.891   0.913 -2.1195  0.2727  1.4251
 7941SOL     OW24400   1.366   5.623   6.923  0.2221 -0.2476  0.0384
 7941SOL    HW124401   1.430   5.555   6.903 -1.5448 -2.0842  0.2764
 7941SOL    HW224402   1.419   5.698   6.951  2.3835 -0.5956 -2.6196
 7942SOL     OW24403   3.004   9.731   7.556  0.4845 -0.1013  0.0264
 7942SOL    HW124404   3.011   9.779   7.638  1.3173 -0.4966  0.1983
 7942SOL    HW224405   3.089   9.688   7.546 -0.2516 -1.6376 -0.0391
 7943SOL     OW24406   2.985   3.413   0.661 -0.2244  0.0449 -0.2864
 7943SOL    HW124407   2.912   3.387   0.718 -0.1665  1.1374  0.3110
 7943SOL    HW224408   2.965   3.503   0.636  1.4695  0.7878  0.8286
 7944SOL     OW24409   7.248   9.310   4.718 -0.6697  0.5349 -0.1926
 7944SOL    HW124410   7.268   9.227   4.674 -1.1289  1.2771 -1.8932
 7944SOL    HW224411   7.219   9.368   4.647 -2.6408  1.4415  1.2585
 7945SOL     OW24412   6.350   6.223   7.407 -0.2710 -0.4235  0.1333
 7945SOL    HW124413   6.281   6.240   7.471 -0.6681  0.8009 -0.6000
 7945SOL    HW224414   6.307   6.231   7.322  0.6802 -0.0654 -0.3272
 7946SOL     OW24415   0.584   3.607   4.298  0.2730 -0.2015 -0.4836
 7946SOL    HW124416   0.634   3.686   4.277 -0.9682  0.7452  0.0059
 7946SOL    HW224417   0.651   3.540   4.313  1.5145  1.4680  2.0627
 7947SOL     OW24418   2.526   4.693   6.669  0.1829  0.0696 -0.7324
 7947SOL    HW124419   2.526   4.750   6.592  1.3496  1.6036  0.3508
 7947SOL    HW224420   2.614   4.657   6.672  0.3006  0.4257  0.1580
 7948SOL     OW24421   8.607   2.043   0.776 -0.2334  0.2684 -0.2195
 7948SOL    HW124422   8.600   2.137   0.764 -1.1554  0.2900  0.3613
 7948SOL    HW224423   8.555   2.024   0.854  0.4132 -0.6499  0.0157
 7949SOL     OW24424   8.098   3.764   1.172 -0.0736  0.1997  0.2182
 7949SOL    HW124425   8.115   3.834   1.235  0.6898  0.9304 -0.7593
 7949SOL    HW224426   8.087   3.809   1.088 -0.3028 -0.8028 -0.3082
 7950SOL     OW24427   2.274   7.784   8.533  0.1923  0.0069 -0.8846
 7950SOL    HW124428   2.327   7.705   8.524 -2.3296 -1.9870  0.4026
 7950SOL    HW224429   2.302   7.823   8.616 -0.2422 -0.9883 -0.2513
 7951SOL     OW24430   8.462   9.555   9.454  0.3694 -0.2704  0.0267
 7951SOL    HW124431   8.434   9.592   9.537  0.0618 -0.1516 -0.1287
 7951SOL    HW224432   8.391   9.574   9.393 -0.5847 -2.5748  0.3164
 7952SOL     OW24433   6.667   7.925   0.426 -0.4933  0.2611 -0.0743
 7952SOL    HW124434   6.724   8.002   0.421 -1.9679  1.3358 -0.8871
 7952SOL    HW224435   6.698   7.868   0.356  0.2727  0.3452  0.1891
 7953SOL     OW24436   9.168   1.701   2.717  0.2282  0.8284 -0.1458
 7953SOL    HW124437   9.223   1.663   2.649  0.5945  0.4437  0.3593
 7953SOL    HW224438   9.163   1.794   2.695  1.4392  0.9563  0.0381
 7954SOL     OW24439   1.833   8.934   3.069  0.6251  0.0096 -0.2373
 7954SOL    HW124440   1.769   8.908   3.135  1.1141 -1.1700 -0.1978
 7954SOL    HW224441   1.801   8.894   2.988  1.6269 -1.1797 -0.0874
 7955SOL     OW24442   3.463   4.242   7.653 -0.6862  0.3152 -0.2687
 7955SOL    HW124443   3.505   4.304   7.593 -2.1875 -0.5875 -2.4056
 7955SOL    HW224444   3.380   4.284   7.676  0.3952  1.2032  2.2870
 7956SOL     OW24445   0.903   1.517   6.148  0.6220 -0.4580 -0.1072
 7956SOL    HW124446   0.963   1.507   6.074  0.4404 -0.0533 -0.3114
 7956SOL    HW224447   0.958   1.551   6.219  1.0233 -1.8429  0.2766
 7957SOL     OW24448   1.879   0.214   2.300 -0.6927 -0.1364 -0.1592
 7957SOL    HW124449   1.810   0.277   2.317 -1.0800 -0.1410 -1.5683
 7957SOL    HW224450   1.896   0.172   2.385 -2.7505 -0.4743  0.1192
 7958SOL     OW24451   4.343   8.590   1.878 -0.0730  0.4185 -0.0676
 7958SOL    HW124452   4.382   8.514   1.921 -1.4552 -0.2997 -0.0597
 7958SOL    HW224453   4.337   8.565   1.786 -0.5312  0.5258 -0.0645
 7959SOL     OW24454   5.456   2.017   4.490  0.1571 -0.4007 -0.3715
 7959SOL    HW124455   5.448   1.937   4.542  0.8287 -0.8367 -0.9366
 7959SOL    HW224456   5.464   2.087   4.556  0.5251 -0.8951  0.1161
 7960SOL     OW24457   8.930   7.983   8.621 -0.2517 -0.3573  0.2220
 7960SOL    HW124458   8.889   8.041   8.686 -0.7177  0.4606 -0.7758
 7960SOL    HW224459   8.870   7.985   8.546  1.3721  0.5064 -1.1164
 7961SOL     OW24460   0.271   3.645   2.091 -0.2576 -0.0295 -0.0479
 7961SOL    HW124461   0.183   3.632   2.056 -0.0232 -0.6321 -0.4268
 7961SOL    HW224462   0.312   3.559   2.086  0.5207  0.3494 -0.3345
 7962SOL     OW24463   3.128   7.508   4.194  0.0451  0.3363  0.0716
 7962SOL    HW124464   3.094   7.521   4.105  2.1695  3.0385 -0.4953
 7962SOL    HW224465   3.051   7.511   4.250 -1.0702  2.0923 -1.4399
 7963SOL     OW24466   9.354   7.095   2.824 -0.5656 -0.1462  0.1607
 7963SOL    HW124467   9.274   7.101   2.876 -0.9169  1.5958 -0.5058
 7963SOL    HW224468   9.412   7.039   2.876 -2.3180 -1.7577  0.4811
 7964SOL     OW24469   5.350   0.034   6.045 -0.3616 -0.2348 -0.5612
 7964SOL    HW124470   5.426  -0.009   6.084 -0.3645 -0.0043 -0.2964
 7964SOL    HW224471   5.284   0.034   6.114 -0.4740 -0.1035 -0.6682
 7965SOL     OW24472   8.583   6.332   2.094  0.1889  0.0892 -0.0381
 7965SOL    HW124473   8.589   6.252   2.041 -1.3178  0.3020 -0.5736
 7965SOL    HW224474   8.669   6.372   2.086  0.5410 -0.7892 -0.8869
 7966SOL     OW24475   4.749   8.371   3.314  0.2512 -0.0933 -0.1123
 7966SOL    HW124476   4.704   8.298   3.356 -0.9726  0.9920  0.5368
 7966SOL    HW224477   4.794   8.416   3.386 -0.0448  0.5157 -0.3039
 7967SOL     OW24478   7.930   3.254   5.913  0.3543  0.1576  0.2751
 7967SOL    HW124479   7.983   3.250   5.834 -0.7729  0.6761 -0.5360
 7967SOL    HW224480   7.892   3.167   5.921 -0.2087  0.3506 -0.2496
 7968SOL     OW24481   6.473   7.028   3.847  0.1262  0.0842 -0.0296
 7968SOL    HW124482   6.479   7.048   3.941 -1.9090  0.8653 -0.0175
 7968SOL    HW224483   6.528   6.951   3.836  0.3735 -0.0597  1.8274
 7969SOL     OW24484   4.823   9.058   8.496 -0.1428  0.0202  0.4439
 7969SOL    HW124485   4.831   9.076   8.402 -0.5695  0.7793  0.5436
 7969SOL    HW224486   4.737   9.018   8.505 -0.3573  0.4978  0.5797
 7970SOL     OW24487   8.702   0.659   0.427 -0.2745  0.0732 -0.1880
 7970SOL    HW124488   8.769   0.720   0.459 -1.2428  1.2184 -0.2618
 7970SOL    HW224489   8.620   0.709   0.432 -1.1712 -1.3930  0.1626
 7971SOL     OW24490   9.329   5.482   6.047  0.0937 -0.0719  0.0594
 7971SOL    HW124491   9.238   5.479   6.019 -0.0106  0.4430  0.3344
 7971SOL    HW224492   9.325   5.468   6.142  0.0938  2.1228  0.4443
 7972SOL     OW24493   6.659   1.849   7.378  0.1061 -0.0071 -0.4539
 7972SOL    HW124494   6.618   1.800   7.450 -0.2924  0.3958 -0.4102
 7972SOL    HW224495   6.626   1.807   7.299 -0.6832  0.5509 -0.4263
 7973SOL     OW24496   7.064   8.388   9.765 -0.0819  0.3673 -0.7229
 7973SOL    HW124497   7.029   8.375   9.853 -0.1646  1.8728 -0.5079
 7973SOL    HW224498   6.987   8.394   9.708 -0.0950  1.0347 -0.6423
 7974SOL     OW24499   5.737   5.994   8.193 -0.3988  0.2778 -0.3649
 7974SOL    HW124500   5.771   6.083   8.201 -1.7602  0.8088 -0.2306
 7974SOL    HW224501   5.776   5.962   8.111 -0.6835  1.3622 -0.9524
 7975SOL     OW24502   8.599   3.902   5.254 -0.3310  0.0067 -0.5662
 7975SOL    HW124503   8.570   3.993   5.242  0.2486  0.5240  1.4948
 7975SOL    HW224504   8.690   3.902   5.226  0.3249  0.6422  1.3930
 7976SOL     OW24505   1.311   7.139   7.968 -0.0925  0.1901 -0.0626
 7976SOL    HW124506   1.305   7.065   8.028  0.0976  0.3771  0.1871
 7976SOL    HW224507   1.220   7.166   7.954 -0.1924 -0.3704 -0.5090
 7977SOL     OW24508   3.825   9.916   9.469  0.6996  0.8851 -0.4944
 7977SOL    HW124509   3.783   9.940   9.552  0.5616  1.2012 -0.6561
 7977SOL    HW224510   3.876   9.838   9.490  0.7375  1.0168 -0.0892
 7978SOL     OW24511   9.790   1.921   0.388 -0.0875 -0.5941 -0.2250
 7978SOL    HW124512   9.731   1.972   0.332  0.9305  1.1708  0.2377
 7978SOL    HW224513   9.744   1.915   0.472 -0.3176 -0.6458 -0.3534
 7979SOL     OW24514   5.020   8.760   1.684  0.1030  0.4877 -0.6956
 7979SOL    HW124515   5.004   8.728   1.773 -0.8146  0.6757 -0.7819
 7979SOL    HW224516   5.077   8.836   1.696 -0.6142  0.9590 -0.1996
 7980SOL     OW24517   6.159   8.075   8.783 -0.4170  0.1759  0.0089
 7980SOL    HW124518   6.112   8.082   8.867  0.0898 -0.3495  0.3431
 7980SOL    HW224519   6.106   8.127   8.722 -1.4677 -0.4372  0.3659
 7981SOL     OW24520   4.326   7.797   8.355  0.0942 -0.1996  0.6670
 7981SOL    HW124521   4.357   7.716   8.315 -0.0589  0.7449 -1.5220
 7981SOL    HW224522   4.241   7.774   8.392  0.0980 -1.0693  0.1688
 7982SOL     OW24523   7.506   2.741   1.097 -0.1850 -0.3263 -0.5055
 7982SOL    HW124524   7.532   2.650   1.113 -0.1835  0.0613  2.1072
 7982SOL    HW224525   7.582   2.781   1.054  0.4061 -1.2066 -0.2996
 7983SOL     OW24526   9.109   0.279   3.305  0.0788  0.0322  0.1532
 7983SOL    HW124527   9.089   0.361   3.351  1.0280  0.1434  0.3873
 7983SOL    HW224528   9.028   0.257   3.259 -0.1069  1.2528 -0.1432
 7984SOL     OW24529   3.803   8.554   9.087  0.6347 -0.1694  0.5251
 7984SOL    HW124530   3.758   8.540   9.170  1.0996  0.0720  0.8214
 7984SOL    HW224531   3.784   8.646   9.065 -2.1405 -1.0286 -1.2465
 7985SOL     OW24532   4.252   3.264   2.771  0.3490  0.4581 -0.3105
 7985SOL    HW124533   4.263   3.334   2.834 -0.7394 -0.1846  0.6225
 7985SOL    HW224534   4.163   3.232   2.785  0.0644  0.3204 -2.2063
 7986SOL     OW24535   5.402   6.062   9.269  0.3264 -0.1938 -0.2603
 7986SOL    HW124536   5.495   6.056   9.293  0.4047 -1.6191 -0.8414
 7986SOL    HW224537   5.402   6.066   9.174 -0.2496 -1.3911 -0.3223
 7987SOL     OW24538   7.410   2.616   2.670  0.4164  0.0689  0.4089
 7987SOL    HW124539   7.480   2.667   2.710  1.0817 -1.3112  1.0563
 7987SOL    HW224540   7.337   2.623   2.730  0.7835 -0.4030  0.9235
 7988SOL     OW24541   7.258   6.990   7.042 -0.0509  0.1801  0.8334
 7988SOL    HW124542   7.260   7.046   7.120 -0.5225  0.2639  0.7839
 7988SOL    HW224543   7.171   7.004   7.004  0.5911  1.1001 -0.4015
 7989SOL     OW24544   8.899   0.643   8.253 -0.2362  0.0198 -0.1215
 7989SOL    HW124545   8.940   0.681   8.175  0.2177  0.2495  0.2292
 7989SOL    HW224546   8.837   0.710   8.282  1.8125  1.3176  1.5325
 7990SOL     OW24547   2.991   6.030   7.539  0.1202 -0.6336 -0.1732
 7990SOL    HW124548   2.980   6.096   7.471  1.1056 -0.2747  0.0092
 7990SOL    HW224549   3.075   5.988   7.520 -0.1919 -1.4059  0.0821
 7991SOL     OW24550   3.239   5.772   9.816  0.0970 -0.1940 -0.1677
 7991SOL    HW124551   3.217   5.828   9.892 -1.9332 -0.4555 -0.4959
 7991SOL    HW224552   3.238   5.683   9.851 -1.6798 -0.3855 -0.6189
 7992SOL     OW24553   9.059   5.482   6.033  0.1597 -0.3924  0.1855
 7992SOL    HW124554   9.039   5.399   6.076 -1.1845 -0.5269 -0.6454
 7992SOL    HW224555   9.005   5.482   5.954 -1.0589  1.9330  0.9187
 7993SOL     OW24556   4.596   2.044   6.192  0.1243  0.1555  0.0061
 7993SOL    HW124557   4.611   1.953   6.218  0.8336 -0.6181 -2.7531
 7993SOL    HW224558   4.640   2.096   6.259  0.7842 -1.5689  0.9772
 7994SOL     OW24559   3.402   5.330   2.788 -0.3079 -0.5089 -0.0880
 7994SOL    HW124560   3.358   5.291   2.712 -1.1747 -0.2206  0.2511
 7994SOL    HW224561   3.448   5.257   2.828 -0.6059 -0.8595 -0.3669
 7995SOL     OW24562   9.423   4.313   5.342 -0.8728 -0.4754  0.1149
 7995SOL    HW124563   9.344   4.288   5.390 -2.1438  1.6340 -0.7288
 7995SOL    HW224564   9.394   4.323   5.251  0.5021 -0.2099 -0.3263
 7996SOL     OW24565   6.645   6.759   5.711  0.0604  0.0526 -0.4080
 7996SOL    HW124566   6.639   6.710   5.629 -0.1349 -0.1362 -0.2824
 7996SOL    HW224567   6.555   6.762   5.743  0.2462 -0.5959  0.2154
 7997SOL     OW24568   7.598   5.894   9.512 -0.7035  0.0387  0.1333
 7997SOL    HW124569   7.603   5.822   9.575 -1.2718 -0.0416  0.0908
 7997SOL    HW224570   7.510   5.888   9.475 -0.1408 -0.3457 -1.2027
 7998SOL     OW24571   3.068   1.936   3.412 -0.3883  0.2080 -0.0821
 7998SOL    HW124572   2.999   1.872   3.428 -0.7978  0.0884 -2.0392
 7998SOL    HW224573   3.146   1.898   3.454 -1.1114 -0.5100  0.6293
 7999SOL     OW24574   7.171   9.406   7.950  0.0990  0.1293 -0.6939
 7999SOL    HW124575   7.183   9.495   7.984 -2.7797  0.0508  0.8084
 7999SOL    HW224576   7.221   9.351   8.010  0.7391  0.5838 -0.7920
 8000SOL     OW24577   3.833   6.283   5.627 -0.1426  0.3858  0.1617
 8000SOL    HW124578   3.789   6.197   5.629  0.4481 -0.0439 -2.1787
 8000SOL    HW224579   3.877   6.285   5.542  1.9288  2.0248  1.1782
 8001SOL     OW24580   2.448   0.163   8.648  0.4705  0.2569 -0.4885
 8001SOL    HW124581   2.430   0.104   8.721  2.5332 -0.7001 -0.6927
 8001SOL    HW224582   2.529   0.130   8.609  0.1692  1.5697 -2.3675
 8002SOL     OW24583   0.415   9.931   1.019  0.1996 -0.1272 -0.5250
 8002SOL    HW124584   0.335   9.942   1.071  0.4015 -1.3740  0.1130
 8002SOL    HW224585   0.485   9.926   1.084  1.0306  2.4448 -1.1401
 8003SOL     OW24586   3.584   4.337   4.435  0.2506 -0.1400  0.0614
 8003SOL    HW124587   3.498   4.356   4.398 -0.1774 -0.6268  0.7598
 8003SOL    HW224588   3.635   4.415   4.419 -1.2346  1.3945  2.2374
 8004SOL     OW24589   0.732   9.416   2.186  0.1290  0.6563 -0.2670
 8004SOL    HW124590   0.667   9.451   2.126  1.1266  2.9938 -0.0880
 8004SOL    HW224591   0.744   9.484   2.252  0.3101 -1.1258  1.6521
 8005SOL     OW24592   6.059   9.269   3.961 -0.2990  0.1985  0.1423
 8005SOL    HW124593   5.985   9.328   3.948 -0.1273  0.3134 -0.3584
 8005SOL    HW224594   6.097   9.295   4.045 -2.2445 -1.4320  1.6152
 8006SOL     OW24595   2.934   3.981   8.350 -0.6180  0.6283 -0.7840
 8006SOL    HW124596   2.954   4.004   8.260  2.3930  1.9729  0.1037
 8006SOL    HW224597   2.937   4.064   8.398 -0.2159 -0.2731  0.8531
 8007SOL     OW24598   7.666   8.903   5.677  0.1976 -0.3082  0.2817
 8007SOL    HW124599   7.755   8.907   5.713  0.9631 -0.2770 -1.5157
 8007SOL    HW224600   7.661   8.977   5.616 -1.4355  0.2966  1.0739
 8008SOL     OW24601   4.438   3.044   3.038 -0.3024  0.0137  0.0459
 8008SOL    HW124602   4.412   3.131   3.069 -0.6370  0.2641 -0.8988
 8008SOL    HW224603   4.532   3.050   3.022 -0.2733  0.1125  0.2512
 8009SOL     OW24604   5.505   9.546   8.296 -0.0064  0.2999 -0.5973
 8009SOL    HW124605   5.563   9.572   8.368  1.9328 -1.6981 -1.3270
 8009SOL    HW224606   5.468   9.463   8.324 -0.4372  0.2557 -1.2740
 8010SOL     OW24607   6.211   7.304   5.135 -0.4190  0.2313 -0.2635
 8010SOL    HW124608   6.122   7.288   5.106  0.0685  0.0662 -1.7295
 8010SOL    HW224609   6.222   7.399   5.130 -0.2374  0.1776 -0.9450
 8011SOL     OW24610   7.465   9.257   3.662 -0.1961 -0.5299 -0.5790
 8011SOL    HW124611   7.459   9.349   3.690  0.7428 -0.6008 -0.0968
 8011SOL    HW224612   7.462   9.207   3.744 -0.7360 -0.9393 -0.8430
 8012SOL     OW24613   3.027   5.753   2.037  0.2647  0.5971  0.2713
 8012SOL    HW124614   2.972   5.818   2.082 -1.7591  0.0861 -1.2971
 8012SOL    HW224615   2.975   5.673   2.038  1.6334 -0.3244 -0.0402
 8013SOL     OW24616   2.495   4.542   8.287 -0.1921 -0.0456  0.0950
 8013SOL    HW124617   2.531   4.567   8.202 -0.1158 -0.4873 -0.0056
 8013SOL    HW224618   2.570   4.542   8.346 -0.4249  1.3742  0.4282
 8014SOL     OW24619   6.023   6.135   8.549 -0.1836 -0.7111 -0.3753
 8014SOL    HW124620   6.028   6.156   8.642 -1.3785 -0.4908 -0.3499
 8014SOL    HW224621   6.063   6.211   8.505 -0.3641 -0.4424 -0.0767
 8015SOL     OW24622   2.824   6.117   0.651  0.1665  0.3204  0.5366
 8015SOL    HW124623   2.755   6.170   0.609 -0.3168 -0.2540  0.5937
 8015SOL    HW224624   2.828   6.150   0.741 -0.5490 -0.1231  0.7429
 8016SOL     OW24625   8.934   6.448   9.173 -0.1841  0.1288  0.1797
 8016SOL    HW124626   8.880   6.417   9.100 -0.5248  0.7292  0.1703
 8016SOL    HW224627   8.894   6.410   9.251  0.9613 -1.6255 -0.0172
 8017SOL     OW24628   2.242   4.053   4.059 -0.1644  0.4395 -0.1488
 8017SOL    HW124629   2.179   4.089   4.121  0.4648 -0.6916  1.2153
 8017SOL    HW224630   2.319   4.035   4.113  0.3637 -0.6780 -1.2556
 8018SOL     OW24631   4.230   0.090   8.934 -0.6036  0.2790 -0.0734
 8018SOL    HW124632   4.318   0.097   8.899 -0.3695 -1.2708  0.1377
 8018SOL    HW224633   4.230   0.147   9.011  0.4222 -0.1926  0.2956
 8019SOL     OW24634   5.808   2.659   5.706 -0.2808  0.0796 -0.7762
 8019SOL    HW124635   5.864   2.719   5.756 -0.9561 -0.1068  0.2339
 8019SOL    HW224636   5.870   2.602   5.659  0.3669  1.2770 -1.4333
 8020SOL     OW24637   7.545   6.818   7.376 -0.4000 -0.0234 -0.3480
 8020SOL    HW124638   7.552   6.863   7.291 -0.4306 -0.5812 -0.6531
 8020SOL    HW224639   7.617   6.754   7.374  0.1819  0.5985  0.4409
 8021SOL     OW24640   8.631   3.593   6.807 -0.0383  0.0302  0.1378
 8021SOL    HW124641   8.691   3.590   6.882  0.6404  2.3017 -0.2540
 8021SOL    HW224642   8.547   3.617   6.845  0.1335  0.4531  0.2475
 8022SOL     OW24643   5.934   4.956   7.195  0.3745  0.2829 -0.7936
 8022SOL    HW124644   5.846   4.983   7.222 -0.1695 -0.6352 -1.5487
 8022SOL    HW224645   5.942   4.988   7.105  0.8890  0.5394 -0.6555
 8023SOL     OW24646   9.981   3.295   7.142 -0.5506  0.2157 -0.1441
 8023SOL    HW124647   9.989   3.292   7.238  0.5019  1.9724 -0.1423
 8023SOL    HW224648   9.892   3.263   7.125 -0.2658 -1.5513  1.2893
 8024SOL     OW24649   4.210   7.212   1.851  0.2743 -0.2324 -0.5111
 8024SOL    HW124650   4.145   7.204   1.921 -0.0069 -0.9837 -0.8453
 8024SOL    HW224651   4.243   7.302   1.859 -1.7339  0.6211 -1.1403
 8025SOL     OW24652   8.121   2.471   4.156  0.4745 -0.3942 -0.1473
 8025SOL    HW124653   8.203   2.428   4.134  0.5176 -0.4564  0.1289
 8025SOL    HW224654   8.101   2.439   4.245  0.9450  0.8241  0.4127
 8026SOL     OW24655   0.487   7.135   4.699  0.0363 -0.0104 -0.8192
 8026SOL    HW124656   0.447   7.049   4.709  2.4705 -1.2078 -0.5304
 8026SOL    HW224657   0.455   7.167   4.614 -0.3644 -1.5268 -1.2638
 8027SOL     OW24658   1.713   7.468   9.193 -0.3500  0.0623 -0.8158
 8027SOL    HW124659   1.784   7.421   9.151  0.1945  0.0952  0.0492
 8027SOL    HW224660   1.634   7.439   9.147  0.2787  0.5985 -2.2885
 8028SOL     OW24661   5.027   5.277   4.574  0.0523 -0.1514 -0.7221
 8028SOL    HW124662   5.043   5.306   4.664  0.1822  2.1599 -1.4335
 8028SOL    HW224663   4.947   5.224   4.580 -0.1701  0.3078  0.7051
 8029SOL     OW24664   2.332   8.049   4.387  0.2772  0.7357 -0.4484
 8029SOL    HW124665   2.239   8.069   4.380 -0.3595 -0.7576  2.3963
 8029SOL    HW224666   2.349   7.990   4.314 -1.7048 -1.0109  0.3863
 8030SOL     OW24667   4.286   0.111   7.847 -0.2444  0.1211  0.2057
 8030SOL    HW124668   4.345   0.041   7.817  0.8222  1.4030 -0.8122
 8030SOL    HW224669   4.265   0.086   7.937 -0.8743 -2.1170 -0.4948
 8031SOL     OW24670   5.548   6.493   6.375 -0.0379 -0.4302  0.4242
 8031SOL    HW124671   5.471   6.456   6.333  0.8132  1.3754 -3.2074
 8031SOL    HW224672   5.620   6.435   6.349  0.4081  0.3356 -0.1115
 8032SOL     OW24673   3.489   5.044   5.062 -0.6380 -0.2619 -0.6838
 8032SOL    HW124674   3.431   5.029   5.137 -0.4690  1.2515 -0.2217
 8032SOL    HW224675   3.552   4.971   5.066 -0.1901  0.1709  1.0964
 8033SOL     OW24676   6.574   4.293   3.081  0.1897  0.2255 -0.0323
 8033SOL    HW124677   6.529   4.235   3.019 -0.1844  0.0043  0.4407
 8033SOL    HW224678   6.538   4.380   3.063 -2.0063 -0.2349  1.7141
 8034SOL     OW24679   8.010   0.997   0.165  0.0975  0.0764 -0.2630
 8034SOL    HW124680   8.015   0.906   0.137  1.3108 -0.8456  2.5506
 8034SOL    HW224681   7.921   1.007   0.200  0.9764 -1.2679  2.7336
 8035SOL     OW24682   0.447   6.074   2.711 -0.0818 -0.4368 -0.2723
 8035SOL    HW124683   0.392   5.998   2.695  0.0429 -0.8731  1.2283
 8035SOL    HW224684   0.530   6.054   2.668 -1.0652  0.2851 -2.6796
 8036SOL     OW24685   5.533   4.176   7.191  0.1604 -0.3322  0.2881
 8036SOL    HW124686   5.496   4.137   7.112 -0.8840 -1.5611  1.3176
 8036SOL    HW224687   5.527   4.270   7.178 -0.3214 -0.5202 -0.9329
 8037SOL     OW24688   7.006   0.513   8.041  0.1583  0.2743  0.5383
 8037SOL    HW124689   7.035   0.601   8.067  0.0053  0.8432 -1.0664
 8037SOL    HW224690   7.040   0.455   8.110  0.0632  1.6024  1.7535
 8038SOL     OW24691   2.458   1.785   3.495 -0.5547 -0.0228 -0.6001
 8038SOL    HW124692   2.406   1.821   3.566  1.0359  0.0175  0.5957
 8038SOL    HW224693   2.511   1.859   3.465  0.0323 -0.4580 -0.6453
 8039SOL     OW24694   8.311   8.982   1.459 -0.0062 -0.0278 -0.0420
 8039SOL    HW124695   8.352   9.047   1.517  0.8062 -0.2411 -0.3644
 8039SOL    HW224696   8.239   8.946   1.511  0.1634  0.4113  0.5098
 8040SOL     OW24697   0.762   9.944   9.162 -0.3605  0.6897  0.5480
 8040SOL    HW124698   0.737   9.897   9.082  1.2031  1.3382 -0.3807
 8040SOL    HW224699   0.689   9.930   9.222 -0.0020 -2.9364  0.3679
 8041SOL     OW24700   5.483   5.584   4.417  0.2047 -0.1732 -0.2266
 8041SOL    HW124701   5.482   5.489   4.428  0.8657 -0.1196  0.3653
 8041SOL    HW224702   5.477   5.618   4.506 -1.9188  0.3734 -0.5257
 8042SOL     OW24703   2.769   1.743   8.927  0.3624  0.9156 -0.2635
 8042SOL    HW124704   2.734   1.770   8.842  0.6319  1.0105 -0.3461
 8042SOL    HW224705   2.789   1.825   8.972  1.6586  0.8757 -0.7127
 8043SOL     OW24706   3.048   5.335   5.217  0.0409 -0.7190  0.5079
 8043SOL    HW124707   3.101   5.314   5.140 -1.2123 -0.3076 -0.4978
 8043SOL    HW224708   2.996   5.256   5.233 -0.6337 -0.3702  0.1176
 8044SOL     OW24709   9.909   9.141   0.191  0.1257 -0.3165  0.1648
 8044SOL    HW124710   9.954   9.111   0.112  0.5660  0.4350  0.1296
 8044SOL    HW224711   9.976   9.182   0.244 -0.3719  0.1526  0.4466
 8045SOL     OW24712   5.504   5.516   7.089  0.5238 -0.5696  0.6267
 8045SOL    HW124713   5.427   5.568   7.113 -0.2564 -1.8620  0.9859
 8045SOL    HW224714   5.569   5.581   7.061 -0.7986  0.5234 -0.0013
 8046SOL     OW24715   4.084   7.948   2.176 -0.3308  0.0976  0.0561
 8046SOL    HW124716   4.157   7.894   2.205 -0.9826 -1.0308 -0.3407
 8046SOL    HW224717   4.102   8.035   2.213  1.2369 -0.1283 -0.1045
 8047SOL     OW24718   7.412   0.748   1.738  0.3432  0.3671  0.3224
 8047SOL    HW124719   7.325   0.789   1.737 -0.8892 -2.0097  1.5198
 8047SOL    HW224720   7.438   0.749   1.830  0.9479 -0.1829  0.1700
 8048SOL     OW24721   1.643   3.359   1.019 -0.7169  0.0038  0.0718
 8048SOL    HW124722   1.669   3.443   1.057 -1.1335  0.7773 -1.2907
 8048SOL    HW224723   1.668   3.365   0.927  0.5044 -1.9134  0.2013
 8049SOL     OW24724   7.587   5.244   4.575 -0.0049 -0.3982 -0.2592
 8049SOL    HW124725   7.502   5.239   4.618  0.2591 -0.5132  0.2475
 8049SOL    HW224726   7.600   5.158   4.537 -0.1903 -0.3284 -0.4860
 8050SOL     OW24727   3.493   8.610   0.749  0.4032  0.5136  0.3900
 8050SOL    HW124728   3.493   8.544   0.818  1.9390  0.2230  0.1514
 8050SOL    HW224729   3.424   8.672   0.774 -3.5601 -2.8510 -1.0571
 8051SOL     OW24730   6.745   7.184   9.685  0.2592 -0.1932 -0.5415
 8051SOL    HW124731   6.808   7.204   9.754 -0.1227 -0.6341 -0.0443
 8051SOL    HW224732   6.667   7.236   9.708  0.5056  0.5180 -1.2701
 8052SOL     OW24733   5.836  -0.008   6.124 -0.4465  0.1149  0.5150
 8052SOL    HW124734   5.823  -0.002   6.030  0.2185  0.0330  0.4102
 8052SOL    HW224735   5.752   0.017   6.162 -0.2822  1.6551 -0.0646
 8053SOL     OW24736   3.535   3.276   9.474 -0.1917 -0.2391 -0.4892
 8053SOL    HW124737   3.516   3.182   9.485 -0.8641  0.0456  0.9771
 8053SOL    HW224738   3.506   3.295   9.385 -2.9586 -0.7795  0.1916
 8054SOL     OW24739   6.064   0.652   2.930 -0.2434  0.3391  0.3716
 8054SOL    HW124740   6.022   0.596   2.995  0.1520 -2.2970 -1.5201
 8054SOL    HW224741   6.113   0.716   2.982 -1.1689 -0.6948  2.6272
 8055SOL     OW24742   7.938   7.312   2.261  0.9222 -0.9048 -0.2571
 8055SOL    HW124743   7.906   7.379   2.200  0.7018 -1.5945 -0.9122
 8055SOL    HW224744   7.946   7.358   2.344 -2.3036 -0.7728  0.0978
 8056SOL     OW24745   4.409   3.289   8.078  0.1204 -0.0218 -0.3867
 8056SOL    HW124746   4.442   3.355   8.140  0.8871 -1.0139  0.3109
 8056SOL    HW224747   4.338   3.332   8.031 -0.1378  0.9388  0.8407
 8057SOL     OW24748   2.901   3.967   8.021 -0.0405  0.1723  0.1512
 8057SOL    HW124749   2.922   4.047   8.069 -0.3619 -1.1383  2.6452
 8057SOL    HW224750   2.808   3.951   8.041  0.3296 -1.4474  0.7462
 8058SOL     OW24751   3.681   9.251   7.529  0.5441  0.2304  0.1630
 8058SOL    HW124752   3.643   9.189   7.467 -0.0793 -0.8901  1.5911
 8058SOL    HW224753   3.747   9.298   7.479 -2.0296  1.6129 -2.1744
 8059SOL     OW24754   8.006   7.469   5.346 -0.1066 -0.2848 -0.0688
 8059SOL    HW124755   7.977   7.542   5.292 -2.4055  1.0838  2.7507
 8059SOL    HW224756   8.088   7.499   5.386 -0.0229 -0.0576 -0.4062
 8060SOL     OW24757   1.257   0.966   5.385 -0.2306 -0.0671 -1.0797
 8060SOL    HW124758   1.171   0.934   5.360  0.0818 -2.1817  0.2928
 8060SOL    HW224759   1.311   0.954   5.306 -0.4846 -1.6719 -1.0460
 8061SOL     OW24760   2.473   1.135   2.109  0.4295 -0.3997  0.4485
 8061SOL    HW124761   2.447   1.177   2.027  3.2864  2.0296  0.5834
 8061SOL    HW224762   2.519   1.056   2.082 -1.3338 -1.3132 -0.0465
 8062SOL     OW24763   2.758   9.616   4.243 -0.4267  0.8395 -0.0948
 8062SOL    HW124764   2.834   9.604   4.300 -0.1219 -2.1454 -0.9162
 8062SOL    HW224765   2.684   9.618   4.303 -0.0778 -1.8145  0.5874
 8063SOL     OW24766   5.561   7.285   5.677  0.3114 -0.3851  0.0728
 8063SOL    HW124767   5.623   7.355   5.658  0.2924 -0.4516 -0.2496
 8063SOL    HW224768   5.480   7.311   5.633 -0.0726 -0.0165  0.9775
 8064SOL     OW24769   7.910   2.222   3.700  0.5205 -0.2832 -0.3205
 8064SOL    HW124770   7.964   2.177   3.765  0.4805  0.3693  0.1718
 8064SOL    HW224771   7.940   2.187   3.616  1.2094 -0.4599 -0.0076
 8065SOL     OW24772   5.793   4.005   5.271 -0.2491  0.1118  0.3471
 8065SOL    HW124773   5.757   3.944   5.336 -0.9438  0.7354  0.5539
 8065SOL    HW224774   5.748   4.088   5.288  0.8085  0.7414  0.1817
 8066SOL     OW24775   2.781   4.478   3.917  0.1355  0.0402 -0.2772
 8066SOL    HW124776   2.835   4.555   3.899  1.4781 -0.9228 -0.5591
 8066SOL    HW224777   2.766   4.480   4.011  1.7691 -0.3158  0.0358
 8067SOL     OW24778   0.111   6.241   5.119  0.5254  0.1529 -0.4820
 8067SOL    HW124779   0.176   6.171   5.123  0.7681  0.4399  1.2897
 8067SOL    HW224780   0.030   6.197   5.091  1.0260 -0.5497 -0.8512
 8068SOL     OW24781   9.111   6.300   4.902 -0.2628 -0.8636  0.1501
 8068SOL    HW124782   9.144   6.334   4.986 -1.7213  0.4215  0.2453
 8068SOL    HW224783   9.030   6.256   4.925 -1.7042  1.1642 -0.7685
 8069SOL     OW24784   1.639   2.713   7.460 -0.0223  0.1998  0.2408
 8069SOL    HW124785   1.545   2.730   7.459 -0.2312 -0.8963 -0.1533
 8069SOL    HW224786   1.657   2.675   7.374  0.5830 -0.5487  0.6826
 8070SOL     OW24787   1.824   5.416   3.057 -0.4692  0.1522  0.6954
 8070SOL    HW124788   1.837   5.477   3.129  2.0265  0.5193  0.0530
 8070SOL    HW224789   1.832   5.470   2.978  1.2338 -0.8657  0.1188
 8071SOL     OW24790   0.837   9.015   1.454 -0.2255  0.1649 -0.5179
 8071SOL    HW124791   0.929   9.006   1.479 -0.2314 -0.0367 -0.5681
 8071SOL    HW224792   0.818   9.107   1.468 -0.9494 -0.3363  2.6845
 8072SOL     OW24793   3.375   5.818   4.216 -0.7196 -0.5469  0.1177
 8072SOL    HW124794   3.321   5.879   4.267 -2.8216 -3.0784  1.1746
 8072SOL    HW224795   3.335   5.819   4.129  1.3761  1.9650 -0.9575
 8073SOL     OW24796   6.088   3.264   9.285  0.3779 -0.9932 -0.1643
 8073SOL    HW124797   6.032   3.334   9.318  0.2180 -1.1264 -0.1529
 8073SOL    HW224798   6.081   3.273   9.189 -0.6583 -1.7912 -0.1825
 8074SOL     OW24799   1.254   1.491   7.135 -0.5725  0.1234 -0.1439
 8074SOL    HW124800   1.328   1.465   7.081 -0.1425 -0.5185  0.7294
 8074SOL    HW224801   1.293   1.536   7.210 -1.1935  1.5536 -0.6340
 8075SOL     OW24802   8.098   3.806   9.943  0.0471  0.3945 -0.1064
 8075SOL    HW124803   8.083   3.857   9.863 -1.2603  1.8302  0.9976
 8075SOL    HW224804   8.025   3.743   9.945  1.2347 -1.1003 -1.0666
 8076SOL     OW24805   8.360   7.782   7.308  0.2504  0.0725  0.3320
 8076SOL    HW124806   8.305   7.709   7.335  0.3265  0.4342  1.5152
 8076SOL    HW224807   8.387   7.760   7.218 -0.2181 -1.0456  0.4525
 8077SOL     OW24808   0.850   5.292   0.895  0.1901 -0.2921  0.0950
 8077SOL    HW124809   0.909   5.291   0.971  1.4765  0.4270 -0.8539
 8077SOL    HW224810   0.816   5.382   0.893  1.0512  0.0248 -0.8254
 8078SOL     OW24811   9.064   6.096   4.067 -0.5444 -0.0798 -0.0146
 8078SOL    HW124812   9.072   6.035   3.994 -2.4848 -1.0414  0.5140
 8078SOL    HW224813   9.055   6.041   4.144 -0.7895  0.8930  0.6697
 8079SOL     OW24814   4.870   3.331   2.612  0.1014  0.1162  0.5336
 8079SOL    HW124815   4.892   3.423   2.624  0.6961 -0.0270  0.5906
 8079SOL    HW224816   4.788   3.332   2.563 -0.2925  0.6811  1.1816
 8080SOL     OW24817   5.508   2.566   9.834 -0.2969  0.1902 -0.0536
 8080SOL    HW124818   5.417   2.537   9.823  0.5498 -2.6401 -0.3962
 8080SOL    HW224819   5.541   2.572   9.744  0.5745 -1.5123  0.1189
 8081SOL     OW24820   0.072   6.684   1.824 -0.3380 -0.1503 -0.0080
 8081SOL    HW124821   0.145   6.623   1.836 -0.1500  0.2089  0.7562
 8081SOL    HW224822   0.006   6.654   1.887 -0.8297 -0.4311 -0.6461
 8082SOL     OW24823   8.533   9.137   8.131 -0.4512 -0.6421 -0.1263
 8082SOL    HW124824   8.607   9.191   8.101 -1.3407  1.0342  0.5530
 8082SOL    HW224825   8.496   9.102   8.050 -0.4197  0.5799 -0.7061
 8083SOL     OW24826   8.456   2.031   3.088 -0.2060 -0.3536  0.6813
 8083SOL    HW124827   8.511   2.107   3.106 -0.3562  0.1013 -0.7166
 8083SOL    HW224828   8.510   1.956   3.116  0.6988  0.1440  0.3077
 8084SOL     OW24829   6.119   6.741   1.030 -0.0133  0.0012  0.6673
 8084SOL    HW124830   6.079   6.684   1.097 -0.6579  0.5368  0.7492
 8084SOL    HW224831   6.050   6.803   1.007 -0.1088 -0.6859 -1.1244
 8085SOL     OW24832   9.564   2.865   3.576  0.4521 -0.0922  0.1148
 8085SOL    HW124833   9.531   2.952   3.598 -0.1691  0.3939 -2.4263
 8085SOL    HW224834   9.493   2.824   3.528  1.2889 -1.4372 -0.0242
 8086SOL     OW24835   7.543   6.795   2.923  0.1544 -0.2482  0.2795
 8086SOL    HW124836   7.451   6.818   2.939 -0.4368 -0.9454 -1.8161
 8086SOL    HW224837   7.586   6.810   3.007 -1.8145  0.3587  1.2467
 8087SOL     OW24838   5.611   1.565   8.686 -0.5585  0.0150  0.1667
 8087SOL    HW124839   5.598   1.618   8.607  0.1658  1.1729  0.7945
 8087SOL    HW224840   5.656   1.487   8.655  0.9886  1.0774 -0.3961
 8088SOL     OW24841   9.336   9.584   2.624 -0.2764  0.5200  0.0344
 8088SOL    HW124842   9.293   9.602   2.707  1.7736 -1.6807  1.7543
 8088SOL    HW224843   9.294   9.504   2.592 -2.4523  2.4385 -2.2313
 8089SOL     OW24844   5.750   5.364   8.348 -0.0606 -0.1413  0.7170
 8089SOL    HW124845   5.749   5.270   8.366 -0.6601 -0.1223  0.7910
 8089SOL    HW224846   5.777   5.371   8.257  0.0707 -0.3819  0.7377
 8090SOL     OW24847   7.471   6.893   4.874 -0.1565  0.0109  0.2266
 8090SOL    HW124848   7.497   6.802   4.857 -2.7882 -0.4284 -2.0447
 8090SOL    HW224849   7.470   6.899   4.970  1.8992 -1.7194  0.4477
 8091SOL     OW24850   3.443   3.971   8.260  0.3714 -0.7179 -0.2016
 8091SOL    HW124851   3.491   3.931   8.187 -0.6245  0.6919 -1.7088
 8091SOL    HW224852   3.393   3.899   8.298  0.8058 -1.4612 -1.0076
 8092SOL     OW24853   7.328   2.459   2.980  0.0278 -0.6349  0.0880
 8092SOL    HW124854   7.264   2.388   2.986  1.6501 -2.2228 -0.6940
 8092SOL    HW224855   7.286   2.524   2.923 -0.8954 -1.6113 -0.3825
 8093SOL     OW24856   9.716   0.590   6.784 -0.2159  0.1132  0.1396
 8093SOL    HW124857   9.760   0.631   6.858  0.2854  0.5083 -0.3713
 8093SOL    HW224858   9.769   0.512   6.766  0.6138  0.8684 -0.8121
 8094SOL     OW24859   4.101   2.186   8.334  0.7696 -0.0197  0.1175
 8094SOL    HW124860   4.094   2.096   8.367  3.0345 -1.1398 -2.0648
 8094SOL    HW224861   4.151   2.232   8.401 -0.0031 -0.4709  1.0449
 8095SOL     OW24862   3.568   1.567   8.180  0.0721  0.1611  0.1683
 8095SOL    HW124863   3.519   1.485   8.179  1.2718 -0.5613 -0.3322
 8095SOL    HW224864   3.555   1.601   8.269 -2.8081  0.9381 -0.4325
 8096SOL     OW24865   2.446   2.928   2.855  0.8248  0.5056 -0.3882
 8096SOL    HW124866   2.365   2.937   2.804  1.0148 -0.2223 -0.8478
 8096SOL    HW224867   2.428   2.855   2.914  2.1588 -1.8530 -2.6624
 8097SOL     OW24868   7.890   5.045   6.618 -0.0994 -0.2020 -0.1228
 8097SOL    HW124869   7.844   4.967   6.651  0.4071 -0.6334 -0.4254
 8097SOL    HW224870   7.838   5.072   6.542  0.1649 -0.7196 -0.4954
 8098SOL     OW24871   8.843   1.647   8.977 -0.2889 -0.2942  0.6107
 8098SOL    HW124872   8.785   1.607   9.042 -0.5490 -0.7125  0.1277
 8098SOL    HW224873   8.926   1.599   8.986 -0.6573 -1.0759 -0.0920
 8099SOL     OW24874   3.881   5.747   2.258 -0.1982  0.3500  0.4372
 8099SOL    HW124875   3.858   5.776   2.346 -1.3215  1.1661 -0.0917
 8099SOL    HW224876   3.829   5.667   2.245 -0.8695  0.8313  0.1306
 8100SOL     OW24877   8.080   8.554   6.884 -0.1745  0.1319 -0.1805
 8100SOL    HW124878   8.044   8.584   6.801  0.2703 -0.7905 -0.7224
 8100SOL    HW224879   8.026   8.479   6.908  1.1848 -1.1071 -0.8771
 8101SOL     OW24880   9.748   0.144   9.948  0.7874 -0.4706 -0.0326
 8101SOL    HW124881   9.841   0.124   9.954  1.0045  0.2601 -0.8725
 8101SOL    HW224882   9.732   0.155   9.855 -0.1081 -0.4224  0.1192
 8102SOL     OW24883   7.517   3.333   5.530  0.1985 -0.3230  0.1261
 8102SOL    HW124884   7.579   3.328   5.458  0.1039 -1.6498  0.1166
 8102SOL    HW224885   7.449   3.394   5.499  0.8896  0.2451 -0.3102
 8103SOL     OW24886   2.459   2.199   1.367  0.2090 -0.3595  0.3110
 8103SOL    HW124887   2.405   2.186   1.289  0.6891 -2.7885  0.3134
 8103SOL    HW224888   2.401   2.178   1.440  0.2965  0.0996  0.5184
 8104SOL     OW24889   1.028   5.324   7.491 -0.2844  0.5184  0.1721
 8104SOL    HW124890   1.038   5.410   7.451 -0.1874  0.2758 -0.3228
 8104SOL    HW224891   0.974   5.275   7.429  2.1376 -0.7570 -1.0355
 8105SOL     OW24892   5.367   6.191   1.312  0.5772 -0.0261 -0.3471
 8105SOL    HW124893   5.397   6.184   1.222 -0.6657 -2.7814 -0.6412
 8105SOL    HW224894   5.271   6.188   1.306  0.4379  0.9397  0.9989
 8106SOL     OW24895   8.681   7.377   0.329 -0.8915  0.4545 -0.9944
 8106SOL    HW124896   8.703   7.358   0.238  2.0666 -2.4701  0.0897
 8106SOL    HW224897   8.626   7.304   0.356  0.5792 -0.2856  0.1847
 8107SOL     OW24898   0.133   0.788   7.693  0.0236 -0.3545  0.8556
 8107SOL    HW124899   0.142   0.732   7.769  1.5987 -0.0987  0.8883
 8107SOL    HW224900   0.186   0.746   7.626 -1.0822 -0.4010 -0.0275
 8108SOL     OW24901   9.589   5.454   3.225  0.3389 -0.7247 -0.2584
 8108SOL    HW124902   9.577   5.465   3.320  2.3768 -2.2130  0.2473
 8108SOL    HW224903   9.593   5.544   3.191  0.5655 -0.1393  1.2310
 8109SOL     OW24904   4.719   5.862   1.399 -0.0981 -0.0352 -0.8580
 8109SOL    HW124905   4.660   5.890   1.329 -1.1628 -0.9135 -0.3409
 8109SOL    HW224906   4.757   5.780   1.367  0.2472  0.1147 -0.8453
 8110SOL     OW24907   5.400   4.495   8.386  0.0542  0.0781  0.0504
 8110SOL    HW124908   5.377   4.531   8.301  0.9370 -0.7174 -0.5450
 8110SOL    HW224909   5.492   4.470   8.377 -0.6233 -2.7769  0.2360
 8111SOL     OW24910   5.860   6.053   0.631 -0.4012  0.0191 -0.3435
 8111SOL    HW124911   5.913   6.037   0.709 -2.6198 -1.5694  0.9842
 8111SOL    HW224912   5.846   5.966   0.593  0.3761  0.7352 -2.3782
 8112SOL     OW24913   7.413   9.154   6.007  0.9443 -0.1159  0.2025
 8112SOL    HW124914   7.489   9.107   6.039 -0.1331 -1.9481  0.1747
 8112SOL    HW224915   7.339   9.118   6.056 -0.1375  0.3431 -1.0174
 8113SOL     OW24916   4.635   4.056   5.088 -0.2868 -0.1799  0.2462
 8113SOL    HW124917   4.610   4.141   5.124 -0.0753 -0.1628  0.3514
 8113SOL    HW224918   4.730   4.061   5.079 -0.3879  0.0383 -0.8574
 8114SOL     OW24919   4.426   1.691   1.592 -0.0343 -0.4365  0.2700
 8114SOL    HW124920   4.435   1.600   1.563 -1.4036 -1.3101  2.3300
 8114SOL    HW224921   4.483   1.697   1.669 -1.0085  0.0253  0.9680
 8115SOL     OW24922   2.030   1.893   9.959  0.5579  0.2161 -0.4163
 8115SOL    HW124923   1.987   1.838   9.893  0.2076  0.0758 -0.0750
 8115SOL    HW224924   2.067   1.965   9.909 -1.0199  0.9386 -0.6176
 8116SOL     OW24925   5.844   8.944   3.301 -0.0462 -0.0580 -0.3284
 8116SOL    HW124926   5.761   8.904   3.275  1.5830 -2.3285 -2.4319
 8116SOL    HW224927   5.882   8.975   3.219  2.3104 -1.4424  0.1614
 8117SOL     OW24928   1.236   0.391   4.385 -0.0027 -0.2409 -0.2375
 8117SOL    HW124929   1.160   0.385   4.328  0.8449  0.1690 -1.4471
 8117SOL    HW224930   1.291   0.316   4.362  0.2561 -0.1904  0.1840
 8118SOL     OW24931   5.104   2.711   6.398 -0.2674 -0.2910  0.7568
 8118SOL    HW124932   5.138   2.795   6.367  1.0516 -0.0100  2.7586
 8118SOL    HW224933   5.164   2.685   6.467 -0.9124 -2.6951  0.5109
 8119SOL     OW24934   9.709   5.484   3.886  0.0776  0.7647  0.4230
 8119SOL    HW124935   9.744   5.453   3.970  0.5105  1.9639  0.7023
 8119SOL    HW224936   9.624   5.521   3.908  0.0971  0.8859  0.2936
 8120SOL     OW24937   3.958   7.011   6.818 -0.1342 -0.7476  0.6518
 8120SOL    HW124938   3.925   6.943   6.759 -1.7928 -0.6162  1.3553
 8120SOL    HW224939   4.018   7.063   6.765 -2.7952  0.3793 -1.4637
 8121SOL     OW24940   4.242   8.757   4.949  0.0964 -0.3771  0.0092
 8121SOL    HW124941   4.326   8.800   4.936 -0.3139 -0.2564 -2.7862
 8121SOL    HW224942   4.251   8.673   4.904 -0.6352 -1.2692  1.4542
 8122SOL     OW24943   9.040   6.510   0.572 -1.1822  0.3218 -0.3731
 8122SOL    HW124944   9.059   6.505   0.478  1.3168  1.1393  0.0369
 8122SOL    HW224945   9.007   6.599   0.585 -2.1985 -0.0144 -0.5527
 8123SOL     OW24946   2.422   9.016   3.599 -0.4015 -0.3382 -0.6228
 8123SOL    HW124947   2.507   9.002   3.640 -0.7659 -0.1113  0.2452
 8123SOL    HW224948   2.438   9.009   3.505  0.8956  1.3570 -0.5809
 8124SOL     OW24949   4.484   3.399   5.545  0.7570  0.3152  0.0418
 8124SOL    HW124950   4.476   3.475   5.602  3.4452  0.6427  0.1303
 8124SOL    HW224951   4.464   3.324   5.603 -0.2169  0.8347  0.3969
 8125SOL     OW24952   2.727   3.880   4.425 -0.2119 -0.1542 -0.3217
 8125SOL    HW124953   2.766   3.796   4.449  1.0002  0.4398 -0.0817
 8125SOL    HW224954   2.778   3.910   4.350 -0.8364  0.2206 -0.6038
 8126SOL     OW24955   2.809   8.806   1.143 -0.4023 -0.0609 -0.1360
 8126SOL    HW124956   2.743   8.740   1.166 -0.4169  0.5245  1.6881
 8126SOL    HW224957   2.786   8.882   1.197  2.5731 -0.3266  1.7327
 8127SOL     OW24958   5.453   5.356   7.899  0.5135 -0.2875 -0.2928
 8127SOL    HW124959   5.543   5.330   7.883 -0.5310 -3.2356 -2.3709
 8127SOL    HW224960   5.433   5.419   7.831  1.3414  1.5097  1.0596
 8128SOL     OW24961   4.112   1.761   6.108 -0.3702  0.0155 -0.0670
 8128SOL    HW124962   4.137   1.672   6.133 -1.0494 -0.6392 -1.6128
 8128SOL    HW224963   4.071   1.798   6.186  1.6342 -0.3085  1.2296
 8129SOL     OW24964   0.432   9.616   3.003  0.2681 -0.1870 -0.2405
 8129SOL    HW124965   0.407   9.699   2.962  0.4004 -0.8185 -1.6593
 8129SOL    HW224966   0.518   9.634   3.043  1.4709 -0.2609 -2.6475
 8130SOL     OW24967   8.996   6.643   6.493 -0.4329 -0.0366  0.3888
 8130SOL    HW124968   8.984   6.712   6.428  0.4510 -1.7562 -1.7333
 8130SOL    HW224969   8.959   6.565   6.452 -1.1626 -0.9302  2.5934
 8131SOL     OW24970   9.146   7.517   0.220  0.0130  0.0588 -0.2740
 8131SOL    HW124971   9.064   7.525   0.171 -1.6931 -3.7381  1.5040
 8131SOL    HW224972   9.190   7.442   0.181 -0.1082 -1.3606  2.1079
 8132SOL     OW24973   5.588   8.405   9.188  0.1089 -0.5402  0.4597
 8132SOL    HW124974   5.503   8.410   9.231  0.4546 -2.6677  1.5805
 8132SOL    HW224975   5.631   8.487   9.210 -0.4615 -0.7593  2.6932
 8133SOL     OW24976   1.502   1.831   0.532  0.5398  0.3732 -0.3003
 8133SOL    HW124977   1.413   1.806   0.508  0.0814  0.2579  1.3944
 8133SOL    HW224978   1.557   1.786   0.468 -0.6231  1.2624 -2.0218
 8134SOL     OW24979   0.862   2.379   6.132 -0.6812  0.6196 -0.1004
 8134SOL    HW124980   0.839   2.288   6.152  1.5821 -0.5248 -2.1547
 8134SOL    HW224981   0.778   2.425   6.126 -1.9584 -1.6091 -0.1765
 8135SOL     OW24982   2.512   0.130   2.311  0.1380  0.5363  0.8880
 8135SOL    HW124983   2.480   0.180   2.386  1.9488  1.8672  0.8431
 8135SOL    HW224984   2.435   0.120   2.254 -0.7343  1.5000  1.8546
 8136SOL     OW24985   2.637   6.678   9.163 -0.4116 -0.4461 -0.0683
 8136SOL    HW124986   2.675   6.687   9.251 -1.0729 -3.0935  0.5899
 8136SOL    HW224987   2.704   6.714   9.104  0.4529  0.5329  1.4301
 8137SOL     OW24988   4.564   9.649   3.661 -0.0130 -0.4199  0.0468
 8137SOL    HW124989   4.514   9.684   3.735  0.8566  0.2299  0.3464
 8137SOL    HW224990   4.557   9.717   3.594 -0.7232 -0.9680 -0.4460
 8138SOL     OW24991   1.961   6.925   0.388  0.6143  0.1772 -0.4238
 8138SOL    HW124992   1.891   6.985   0.414  1.1134  0.6512 -0.1490
 8138SOL    HW224993   1.946   6.909   0.295 -2.1174 -2.7473  0.3566
 8139SOL     OW24994   5.737   8.046   3.585 -0.4726  0.3075  0.3536
 8139SOL    HW124995   5.729   7.977   3.519 -2.2725 -0.3920  1.2395
 8139SOL    HW224996   5.720   8.127   3.537  0.9458  0.1175 -0.5455
 8140SOL     OW24997   0.896   5.073   5.091 -0.1849  0.4432 -0.0790
 8140SOL    HW124998   0.864   4.983   5.082 -0.3724  0.5248 -0.2422
 8140SOL    HW224999   0.989   5.067   5.073 -0.0982  0.1962  0.4341
 8141SOL     OW25000   1.121   7.099   4.340  0.3243 -0.3817  0.0389
 8141SOL    HW125001   1.127   7.099   4.436 -1.6457 -0.8105  0.1990
 8141SOL    HW225002   1.138   7.190   4.316 -1.7318  0.3196  1.0327
 8142SOL     OW25003   2.310   2.178   8.867  0.0091 -0.7966 -0.0579
 8142SOL    HW125004   2.304   2.139   8.780  0.8222  1.4322 -1.1945
 8142SOL    HW225005   2.260   2.260   8.859 -1.2018 -1.2579  2.0544
 8143SOL     OW25006   3.586   2.364   9.537  0.4076 -0.0626 -0.3863
 8143SOL    HW125007   3.660   2.379   9.596 -0.2733  1.0930  0.2063
 8143SOL    HW225008   3.601   2.422   9.463 -0.3703  0.8885  0.1822
 8144SOL     OW25009   7.457   1.461   9.946  0.7361 -0.1424 -0.2992
 8144SOL    HW125010   7.440   1.554   9.965 -2.4896 -0.3749 -1.2895
 8144SOL    HW225011   7.440   1.416  10.029 -1.6388 -0.1022 -0.6767
 8145SOL     OW25012   5.326   4.308   6.492  0.2166  0.2204 -0.5060
 8145SOL    HW125013   5.257   4.365   6.525  1.4375  1.7982 -0.5262
 8145SOL    HW225014   5.331   4.329   6.398 -1.0465 -1.8493 -1.0791
 8146SOL     OW25015   5.508   9.163   4.517 -0.1877 -0.0205 -0.4485
 8146SOL    HW125016   5.479   9.244   4.558 -0.5398 -0.0648 -0.6057
 8146SOL    HW225017   5.450   9.153   4.441  0.7117  0.2782 -1.1977
 8147SOL     OW25018   0.027   5.986   2.121  0.8464  0.5605 -0.2717
 8147SOL    HW125019   0.111   5.963   2.160  1.4467 -0.1963 -1.9469
 8147SOL    HW225020   0.018   5.929   2.045 -0.7573  1.2715 -0.6801
 8148SOL     OW25021   1.740   6.645   5.020  0.2129  0.9894  0.3365
 8148SOL    HW125022   1.725   6.619   5.111  0.3067  1.2075  0.4150
 8148SOL    HW225023   1.731   6.564   4.970  1.6563  0.5711  0.7043
 8149SOL     OW25024   8.009   1.126   5.352 -0.5907  0.0353 -0.1347
 8149SOL    HW125025   8.089   1.082   5.381 -0.7129 -1.5907 -2.0459
 8149SOL    HW225026   7.953   1.128   5.430  0.5019 -0.7176  0.6987
 8150SOL     OW25027   7.321   1.110   4.091  0.6266  0.0105 -0.0625
 8150SOL    HW125028   7.380   1.177   4.055  1.5309 -0.5548  0.3455
 8150SOL    HW225029   7.314   1.131   4.184 -2.2428  1.8772 -0.5461
 8151SOL     OW25030   1.615   2.294   1.708 -0.1968 -0.3550  0.5465
 8151SOL    HW125031   1.683   2.228   1.697  1.1444  0.8940  0.9364
 8151SOL    HW225032   1.663   2.373   1.733 -1.7648  0.7008  0.3477
 8152SOL     OW25033   2.919   8.558   2.316 -0.8234  0.1535  0.1462
 8152SOL    HW125034   2.845   8.615   2.294 -0.3325  0.5588 -0.4628
 8152SOL    HW225035   2.897   8.474   2.276  0.4523  1.0907 -2.7686
 8153SOL     OW25036   3.904   2.971   2.536 -0.3499  0.0895  0.5727
 8153SOL    HW125037   3.965   2.970   2.462 -0.0254  1.5100  0.7744
 8153SOL    HW225038   3.961   2.982   2.613 -0.7609 -0.1015  0.9043
 8154SOL     OW25039   7.967   7.410   8.690 -0.0275 -0.1842  0.2592
 8154SOL    HW125040   7.939   7.446   8.774  0.6641 -0.1001  0.4574
 8154SOL    HW225041   8.025   7.476   8.653 -1.9337  0.7458 -1.2611
 8155SOL     OW25042   1.949   7.865   7.285  0.0096 -0.4042  0.4139
 8155SOL    HW125043   1.885   7.809   7.328 -0.3329  0.2657  0.8052
 8155SOL    HW225044   2.015   7.883   7.352  0.5103 -0.9386  0.0677
 8156SOL     OW25045   1.363   4.531   3.168  0.1273 -0.1288 -0.1949
 8156SOL    HW125046   1.457   4.518   3.160  0.3167  0.7337  0.4436
 8156SOL    HW225047   1.339   4.484   3.248  0.0360 -0.2320 -0.2827
 8157SOL     OW25048   6.463   3.504   5.207  0.6541  0.9556  0.4730
 8157SOL    HW125049   6.508   3.420   5.209 -0.8767  0.1077  1.7129
 8157SOL    HW225050   6.520   3.561   5.155  1.9528 -0.6993  0.0039
 8158SOL     OW25051   9.804   5.101   2.298  0.7085  0.1715 -0.9359
 8158SOL    HW125052   9.719   5.058   2.293 -0.6618  2.3019  1.4860
 8158SOL    HW225053   9.856   5.046   2.356  0.6685 -0.6276 -1.6429
 8159SOL     OW25054   1.444   3.454   8.323 -0.3233  0.1339 -0.4940
 8159SOL    HW125055   1.368   3.483   8.272  0.1239  0.8805 -0.7420
 8159SOL    HW225056   1.518   3.462   8.262 -0.2610 -2.2203 -0.8402
 8160SOL     OW25057   6.589   4.780   1.026 -0.4138  0.1356  0.4255
 8160SOL    HW125058   6.506   4.796   1.069 -0.6855 -1.3173  0.4937
 8160SOL    HW225059   6.655   4.794   1.094 -0.6789  0.2985  0.6473
 8161SOL     OW25060   4.796   8.957   5.417 -0.1497  0.4478 -0.0944
 8161SOL    HW125061   4.717   8.905   5.402 -0.8677  1.7283 -0.9611
 8161SOL    HW225062   4.771   9.017   5.487  0.8876 -0.7627  1.3666
 8162SOL     OW25063   4.303   6.371   7.855  0.3399  0.1215 -0.3925
 8162SOL    HW125064   4.210   6.361   7.838  0.5425 -0.2870 -1.2830
 8162SOL    HW225065   4.346   6.333   7.779  1.2517 -0.5968  0.4605
 8163SOL     OW25066   3.265   6.720   8.279 -0.2613  0.3164  0.2530
 8163SOL    HW125067   3.298   6.636   8.311 -2.7521 -0.4869  0.9680
 8163SOL    HW225068   3.292   6.784   8.344  2.0332  0.2012 -0.5144
 8164SOL     OW25069   2.369   9.872   5.551 -0.0233  0.2135  0.5289
 8164SOL    HW125070   2.415   9.833   5.477  0.4474 -0.8039  1.3376
 8164SOL    HW225071   2.291   9.817   5.563  0.2815 -0.0718  1.2362
 8165SOL     OW25072   8.211   6.886   9.312 -0.0306  0.5194  0.7011
 8165SOL    HW125073   8.272   6.959   9.316 -0.6677  1.2473 -1.4709
 8165SOL    HW225074   8.127   6.925   9.288 -0.8058 -0.7340  1.2245
 8166SOL     OW25075   2.472   1.684   5.915 -0.1970  0.9887  0.9342
 8166SOL    HW125076   2.416   1.701   5.839 -0.9627 -0.4030  1.1374
 8166SOL    HW225077   2.410   1.655   5.983  0.7744 -1.0946  1.0088
 8167SOL     OW25078   3.287   0.343   3.148  0.3179  0.1121  1.0736
 8167SOL    HW125079   3.195   0.329   3.171  0.6077 -1.1315  1.5751
 8167SOL    HW225080   3.311   0.266   3.096  0.7609  1.0049 -0.0976
 8168SOL     OW25081   7.397   6.378   4.328 -0.0732  0.2531  0.2001
 8168SOL    HW125082   7.441   6.462   4.342 -1.3149  1.2456 -1.4191
 8168SOL    HW225083   7.328   6.375   4.394 -0.7253  1.0509 -0.4288
 8169SOL     OW25084   8.163   9.747   8.976 -0.0780 -0.2891 -0.4985
 8169SOL    HW125085   8.164   9.818   8.912 -2.0745 -0.6298 -1.0089
 8169SOL    HW225086   8.100   9.775   9.042  0.9785 -0.5238  0.6456
 8170SOL     OW25087   2.741   5.293   6.076  0.0926 -0.8249 -0.0895
 8170SOL    HW125088   2.663   5.244   6.101 -1.2260  1.1820 -0.0582
 8170SOL    HW225089   2.781   5.318   6.159  0.1324 -0.8708 -0.0943
 8171SOL     OW25090   5.636   0.348   8.897  0.0149 -0.0136  0.1045
 8171SOL    HW125091   5.613   0.362   8.805  1.7731  0.8954 -0.2339
 8171SOL    HW225092   5.554   0.362   8.944 -0.8800 -0.2973 -1.2952
 8172SOL     OW25093   7.017   1.980   1.731 -0.7076  0.0612  0.2593
 8172SOL    HW125094   6.949   2.040   1.700 -1.2309 -1.3060 -1.4083
 8172SOL    HW225095   7.002   1.972   1.825 -2.0020  0.8252  0.1321
 8173SOL     OW25096   2.390   1.111   0.142  0.6871  0.5508  0.5530
 8173SOL    HW125097   2.430   1.075   0.063 -1.7681 -1.3041 -0.0038
 8173SOL    HW225098   2.423   1.200   0.148  0.8488  0.8358 -2.6988
 8174SOL     OW25099   1.309   4.798   4.016  0.5255  0.3476  0.0597
 8174SOL    HW125100   1.354   4.722   4.055  0.2271  0.2796  0.2731
 8174SOL    HW225101   1.292   4.771   3.926  0.6667  0.2688  0.0548
 8175SOL     OW25102   2.917   6.907   9.468 -0.9642  0.7227 -0.4391
 8175SOL    HW125103   3.010   6.889   9.454 -1.3194 -1.4880 -0.2751
 8175SOL    HW225104   2.912   6.944   9.556 -0.4321 -1.2949  0.4832
 8176SOL     OW25105   6.964   4.753   0.270 -0.2421 -0.3127  0.6540
 8176SOL    HW125106   6.955   4.661   0.244 -1.8098  0.1940 -0.7947
 8176SOL    HW225107   6.917   4.802   0.202  0.0372  1.5288  1.7122
 8177SOL     OW25108   7.348   0.518   1.025  0.1505 -0.4658 -0.2973
 8177SOL    HW125109   7.352   0.520   1.120 -2.8621 -1.5604 -0.0279
 8177SOL    HW225110   7.267   0.565   1.003  0.7014 -0.3578 -2.2991
 8178SOL     OW25111   9.945   1.192   5.812  0.2774  0.0191 -0.5473
 8178SOL    HW125112   9.998   1.140   5.752 -1.9776 -1.4681 -1.3961
 8178SOL    HW225113   9.903   1.128   5.869  0.2519  1.2154  0.8373
 8179SOL     OW25114   9.184   9.638   1.977 -0.1740 -0.2919 -0.2588
 8179SOL    HW125115   9.227   9.682   1.904  1.8675  0.2293  1.1596
 8179SOL    HW225116   9.099   9.612   1.943 -0.4647  2.4929 -1.9384
 8180SOL     OW25117   2.147   1.871   1.326 -0.0832  0.5172  0.2027
 8180SOL    HW125118   2.107   1.958   1.323 -2.9242 -0.6471  0.9267
 8180SOL    HW225119   2.122   1.837   1.411  1.9623 -0.6298  0.3958
 8181SOL     OW25120   7.279   5.521   6.803 -0.4034 -0.0615 -0.0310
 8181SOL    HW125121   7.307   5.430   6.813 -0.0502 -0.0263 -0.6972
 8181SOL    HW225122   7.194   5.516   6.760 -0.9524 -0.1205  1.0265
 8182SOL     OW25123   5.481   3.075   9.402  0.1419 -0.2391 -0.1212
 8182SOL    HW125124   5.424   3.118   9.338 -1.5535  1.3019  2.2511
 8182SOL    HW225125   5.562   3.126   9.400 -0.1486  0.2139 -0.5590
 8183SOL     OW25126   3.872   6.752   1.188  0.1014 -0.5473 -0.3889
 8183SOL    HW125127   3.825   6.835   1.179 -2.5544 -2.1376 -2.6842
 8183SOL    HW225128   3.884   6.742   1.283 -2.4742  0.9399  0.1919
 8184SOL     OW25129   5.270   2.325   1.103 -0.0010 -0.3414 -0.8701
 8184SOL    HW125130   5.364   2.309   1.106  0.2001  0.8509  1.7078
 8184SOL    HW225131   5.262   2.420   1.088 -0.8261 -0.4626 -1.2901
 8185SOL     OW25132   0.194   8.295   4.548  0.1803 -0.1472 -0.7398
 8185SOL    HW125133   0.209   8.290   4.454  2.4684 -0.0592 -0.4389
 8185SOL    HW225134   0.252   8.228   4.585 -1.3208 -0.7896  0.5884
 8186SOL     OW25135   7.956   9.794   2.896 -0.3331 -0.5673 -0.0967
 8186SOL    HW125136   8.044   9.813   2.863 -0.8904  0.5607 -0.9854
 8186SOL    HW225137   7.901   9.789   2.818 -1.1750 -0.6904  0.4904
 8187SOL     OW25138   8.516   8.733   0.766 -0.0358 -0.0271  0.5835
 8187SOL    HW125139   8.546   8.778   0.845  0.8505 -0.2754  0.3996
 8187SOL    HW225140   8.513   8.801   0.699 -2.4410  0.5594  1.1984
 8188SOL     OW25141   5.061   5.901   9.256  0.0467 -0.5327  0.2496
 8188SOL    HW125142   5.039   5.808   9.253  1.1588 -0.8326  0.6788
 8188SOL    HW225143   5.157   5.903   9.255  0.0420  0.6628 -0.8060
 8189SOL     OW25144   7.756   3.792   3.318  0.4839 -0.0297 -0.2271
 8189SOL    HW125145   7.802   3.832   3.244 -0.5845 -0.4351 -1.1276
 8189SOL    HW225146   7.793   3.703   3.324  0.5190 -0.0211 -0.3166
 8190SOL     OW25147   9.266   5.707   5.793  0.5879 -0.2736  0.0879
 8190SOL    HW125148   9.302   5.738   5.710  0.5047 -0.1905  0.0832
 8190SOL    HW225149   9.218   5.627   5.770 -0.0314  0.1334 -0.0603
 8191SOL     OW25150   3.721   1.886   9.962  0.8665 -0.3791  0.4110
 8191SOL    HW125151   3.702   1.940   9.885  3.2038 -1.6016 -1.1619
 8191SOL    HW225152   3.677   1.803   9.945  1.2269 -0.5870  0.4819
 8192SOL     OW25153   8.392   9.133   6.862  0.6608  0.1493 -0.4272
 8192SOL    HW125154   8.478   9.094   6.847 -0.2669 -2.1723 -0.0143
 8192SOL    HW225155   8.378   9.190   6.786  1.7787 -0.9026 -1.4549
 8193SOL     OW25156   4.121   5.531   6.166  0.2526  0.0067 -0.2576
 8193SOL    HW125157   4.206   5.500   6.133  0.8872  0.9972  0.4030
 8193SOL    HW225158   4.131   5.532   6.261 -0.4029  0.4265 -0.1870
 8194SOL     OW25159   6.045   4.303   2.738  0.2200  0.0019 -0.9130
 8194SOL    HW125160   5.969   4.335   2.687  1.9230  1.4274 -2.7380
 8194SOL    HW225161   6.045   4.356   2.817  0.4774  1.5228 -1.8932
 8195SOL     OW25162   8.799   1.611   0.192 -0.0323 -0.4204 -0.8431
 8195SOL    HW125163   8.796   1.696   0.236  1.1227  0.4637 -2.3413
 8195SOL    HW225164   8.868   1.621   0.126  0.7820 -2.8262 -0.4822
 8196SOL     OW25165   3.850   2.409   4.779  0.2287 -0.2757 -0.6428
 8196SOL    HW125166   3.816   2.383   4.865  0.2917  0.1300 -0.4932
 8196SOL    HW225167   3.932   2.361   4.770 -0.2401 -1.0613 -0.8931
 8197SOL     OW25168   4.742   9.646   6.185 -0.5583  0.0471 -0.6354
 8197SOL    HW125169   4.812   9.712   6.182 -1.7155  1.4269  0.6084
 8197SOL    HW225170   4.663   9.697   6.204 -1.9129 -1.4646 -1.9658
 8198SOL     OW25171   8.580   0.008   8.090 -0.2216  0.0494 -0.5171
 8198SOL    HW125172   8.638   0.003   8.166 -0.9409  0.7408  0.0873
 8198SOL    HW225173   8.592   0.097   8.057 -1.1930  0.3190 -0.1744
 8199SOL     OW25174   5.279   8.349   8.216 -0.3899  0.3598 -0.8446
 8199SOL    HW125175   5.340   8.315   8.281 -1.2851 -2.2296 -1.2470
 8199SOL    HW225176   5.295   8.444   8.215  1.2378  0.1864  1.4402
 8200SOL     OW25177   0.997   8.320   5.986  0.5239 -0.5020 -0.0203
 8200SOL    HW125178   1.047   8.335   6.067 -0.5553  1.4140  0.3635
 8200SOL    HW225179   0.905   8.319   6.015  0.0274  1.4945 -1.3207
 8201SOL     OW25180   3.450   6.821   8.936  0.2336  0.0917  0.3954
 8201SOL    HW125181   3.489   6.847   9.019  1.5841 -1.2096  0.2148
 8201SOL    HW225182   3.520   6.832   8.872 -0.2827 -0.4672 -0.2848
 8202SOL     OW25183   1.992   8.899   4.654 -0.4670 -0.0694  0.3839
 8202SOL    HW125184   1.935   8.962   4.700 -1.2941 -0.2269 -0.4044
 8202SOL    HW225185   1.961   8.900   4.564 -0.4664 -1.5900  0.3518
 8203SOL     OW25186   2.201   4.863   1.580 -0.1679 -0.6258  0.8117
 8203SOL    HW125187   2.252   4.827   1.652 -1.9357 -1.7768  1.5761
 8203SOL    HW225188   2.133   4.797   1.563 -1.9168  1.1464  0.4371
 8204SOL     OW25189   2.150   5.011   1.850  0.4170  0.2732 -0.0759
 8204SOL    HW125190   2.206   4.941   1.817  0.8336  0.0569  1.0585
 8204SOL    HW225191   2.173   5.087   1.796 -0.4348 -0.5657 -1.6841
 8205SOL     OW25192   2.927   3.408   5.109  0.1199  0.3736  0.0006
 8205SOL    HW125193   2.988   3.463   5.061 -0.4249  0.0404 -1.1218
 8205SOL    HW225194   2.957   3.411   5.199 -0.4521  3.3028  0.1754
 8206SOL     OW25195   5.567   9.311   7.682  0.0707 -0.6524 -0.0220
 8206SOL    HW125196   5.627   9.265   7.622  2.9061  2.9601 -0.3716
 8206SOL    HW225197   5.577   9.266   7.766  3.3396 -0.3817 -0.1197
 8207SOL     OW25198   5.490   1.737   0.206  0.5249 -0.2339 -0.1847
 8207SOL    HW125199   5.483   1.811   0.146 -0.1159  0.3228  0.5472
 8207SOL    HW225200   5.514   1.777   0.290  0.5773 -0.8996  0.1245
 8208SOL     OW25201   7.223   7.207   1.297  0.3970 -0.1428  0.2867
 8208SOL    HW125202   7.151   7.166   1.345 -0.7168  1.6733  0.2493
 8208SOL    HW225203   7.302   7.184   1.347 -0.5538  0.3603  2.0925
 8209SOL     OW25204   6.106   8.539   7.243  0.0349  0.4837 -0.1064
 8209SOL    HW125205   6.199   8.527   7.222  0.5044  0.8178  1.5810
 8209SOL    HW225206   6.089   8.475   7.313 -1.1059  0.1971 -0.6241
 8210SOL     OW25207   8.717   6.152   7.534  0.0519  0.2761  0.2748
 8210SOL    HW125208   8.635   6.119   7.496 -0.0613  1.1497 -0.2627
 8210SOL    HW225209   8.740   6.227   7.480  1.7842 -0.5843 -0.2634
 8211SOL     OW25210   4.229   0.674   4.287 -0.0976 -0.8186  0.0994
 8211SOL    HW125211   4.135   0.654   4.287 -0.4142  0.4775 -0.7891
 8211SOL    HW225212   4.268   0.608   4.230 -0.2933 -1.9838  1.2748
 8212SOL     OW25213   0.524   3.972   8.744  0.0613 -0.0584  0.1992
 8212SOL    HW125214   0.429   3.981   8.735  0.2149  1.8701  0.0865
 8212SOL    HW225215   0.560   4.050   8.702  1.6194  0.0745  1.6706
 8213SOL     OW25216   3.632   1.394   1.277  0.2708 -0.2842  0.0137
 8213SOL    HW125217   3.709   1.383   1.334  1.1987  1.4787 -0.8039
 8213SOL    HW225218   3.564   1.428   1.335  0.8469  0.3938  0.3069
 8214SOL     OW25219   4.453   0.946   0.404 -0.1562  0.3996 -0.0504
 8214SOL    HW125220   4.478   0.947   0.311 -0.8057 -0.1574 -0.2412
 8214SOL    HW225221   4.487   0.863   0.437 -1.2531 -0.1157 -0.1813
 8215SOL     OW25222   8.193   5.739   8.943 -0.5426  0.3546  0.3658
 8215SOL    HW125223   8.218   5.796   8.870  0.0606 -0.2985  0.0480
 8215SOL    HW225224   8.108   5.773   8.971 -1.0014  0.3551 -0.9342
 8216SOL     OW25225   9.813   3.467   2.475  0.2576 -0.2851 -0.6236
 8216SOL    HW125226   9.833   3.410   2.549 -0.7372 -0.3798 -0.4196
 8216SOL    HW225227   9.726   3.441   2.447  0.9252 -0.8338 -2.3756
 8217SOL     OW25228   7.709   4.186   8.391 -0.0663  0.3417  0.1615
 8217SOL    HW125229   7.675   4.181   8.480 -0.6071 -0.0398 -0.0643
 8217SOL    HW225230   7.783   4.124   8.390 -1.5549 -1.5328 -0.3015
 8218SOL     OW25231   4.964   4.872   7.007 -0.1198 -0.0864 -0.0799
 8218SOL    HW125232   4.970   4.832   6.920 -0.6612  0.7032 -0.4911
 8218SOL    HW225233   5.020   4.817   7.062 -0.6536 -1.2760 -0.6682
 8219SOL     OW25234   6.339   8.099   9.223 -0.1295  0.4062  0.5366
 8219SOL    HW125235   6.273   8.030   9.231  0.5410 -0.2456  0.6703
 8219SOL    HW225236   6.363   8.119   9.314  0.1204  0.3691  0.4798
 8220SOL     OW25237   4.361   5.485   6.062  0.0089 -0.1370  0.2154
 8220SOL    HW125238   4.405   5.412   6.020 -2.0927 -2.0460  1.1514
 8220SOL    HW225239   4.416   5.507   6.137  0.8844 -0.4377 -0.3289
 8221SOL     OW25240   8.239   8.715   4.696 -0.0864  0.2944 -0.3608
 8221SOL    HW125241   8.165   8.700   4.636  0.0617 -0.0734 -0.4512
 8221SOL    HW225242   8.245   8.635   4.748  0.1081  0.4123 -0.1992
 8222SOL     OW25243   6.863   0.624   1.176 -0.3249 -0.0181  0.7258
 8222SOL    HW125244   6.822   0.691   1.121  1.4372 -0.8696 -1.8177
 8222SOL    HW225245   6.793   0.560   1.191 -1.0565  0.6016  0.0700
 8223SOL     OW25246   6.761   7.014   4.668 -0.4164 -0.4612  0.1660
 8223SOL    HW125247   6.735   7.091   4.718  1.8016  0.8047 -0.4827
 8223SOL    HW225248   6.817   6.964   4.727  2.3419  1.1198 -0.9186
 8224SOL     OW25249   0.508   3.180   8.775 -0.8494 -0.6871 -0.2241
 8224SOL    HW125250   0.503   3.122   8.851  0.9367 -0.7346 -0.0843
 8224SOL    HW225251   0.524   3.267   8.812  1.1473 -0.8780 -0.5094
 8225SOL     OW25252   0.587   1.043   4.525 -0.5200 -0.2290 -0.0437
 8225SOL    HW125253   0.501   1.054   4.566  0.8929 -1.2927  3.6065
 8225SOL    HW225254   0.588   0.952   4.496 -0.6397 -0.1932 -0.1645
 8226SOL     OW25255   0.524   6.671   7.006  0.4561 -1.0727  0.4430
 8226SOL    HW125256   0.576   6.650   7.083 -1.0206 -0.4114  1.6698
 8226SOL    HW225257   0.446   6.616   7.014  0.7995 -1.9014 -1.2520
 8227SOL     OW25258   8.760   0.087   3.808 -0.8698  0.2797  0.1933
 8227SOL    HW125259   8.800   0.162   3.766  0.1812 -0.5767 -0.3974
 8227SOL    HW225260   8.682   0.067   3.755 -0.3138  0.0447 -0.5441
 8228SOL     OW25261   4.660   7.290   9.515 -0.1360 -0.1105 -0.0159
 8228SOL    HW125262   4.751   7.262   9.505 -0.2417 -0.3845 -0.2269
 8228SOL    HW225263   4.635   7.319   9.427 -0.3484 -0.3305 -0.0277
 8229SOL     OW25264   3.247   7.720   7.728 -0.2292  0.0600 -0.4930
 8229SOL    HW125265   3.339   7.717   7.756 -0.0157 -0.5462 -1.2361
 8229SOL    HW225266   3.201   7.761   7.801  0.8972  2.0144 -0.8179
 8230SOL     OW25267   6.451   1.258   2.530 -0.5428 -0.7427 -0.2865
 8230SOL    HW125268   6.360   1.254   2.560 -0.1707 -2.8891  0.7163
 8230SOL    HW225269   6.499   1.203   2.591  1.1538 -1.0596 -1.8233
 8231SOL     OW25270   1.639   2.071   3.573 -0.5952 -0.1964 -0.8059
 8231SOL    HW125271   1.735   2.066   3.568 -0.6165 -0.2217 -1.2386
 8231SOL    HW225272   1.622   2.147   3.629 -0.3275  0.5779 -1.7493
 8232SOL     OW25273   6.889   6.093   4.348  0.3042 -0.1089 -0.2173
 8232SOL    HW125274   6.884   6.051   4.434 -4.1530  2.6409  1.2431
 8232SOL    HW225275   6.845   6.031   4.290 -0.1505 -0.3682  0.3840
 8233SOL     OW25276   3.506   2.072   0.856 -0.4336 -0.0640 -0.4029
 8233SOL    HW125277   3.469   2.151   0.815  0.7941  0.5150 -0.4285
 8233SOL    HW225278   3.510   2.008   0.785  0.4957  0.5266 -0.9059
 8234SOL     OW25279   7.909   4.147   2.168 -0.2473  0.2838  0.1230
 8234SOL    HW125280   7.960   4.085   2.116  0.8385  0.4723  0.9252
 8234SOL    HW225281   7.901   4.225   2.113 -1.7194 -0.5719 -0.9356
 8235SOL     OW25282   5.695   9.754   8.842 -0.1432  0.2614  0.8167
 8235SOL    HW125283   5.766   9.708   8.798 -0.1163  0.2156  0.9092
 8235SOL    HW225284   5.719   9.847   8.835 -1.6700  0.5529 -2.0591
 8236SOL     OW25285   5.060   3.018   3.736  0.0753  0.7935 -0.8017
 8236SOL    HW125286   5.112   2.987   3.662 -0.7850  0.8656 -1.4541
 8236SOL    HW225287   5.074   3.112   3.738  0.0577  0.7991 -0.9138
 8237SOL     OW25288   7.250   3.662   3.663  0.2433  0.3363  0.3197
 8237SOL    HW125289   7.178   3.635   3.606  0.7180  1.1547 -0.6857
 8237SOL    HW225290   7.319   3.691   3.604  0.8859  0.8689  1.2959
 8238SOL     OW25291   1.417   7.921   4.026  0.3014 -0.1790 -0.1066
 8238SOL    HW125292   1.438   7.829   4.007  0.9411 -0.1103  0.2250
 8238SOL    HW225293   1.480   7.970   3.974 -1.0752  0.1363 -1.5663
 8239SOL     OW25294   1.551   0.941   9.638  0.2274 -0.4970  0.0187
 8239SOL    HW125295   1.621   0.927   9.574 -0.7000 -1.8307 -0.7709
 8239SOL    HW225296   1.476   0.892   9.602 -0.5997 -0.5182  1.6796
 8240SOL     OW25297   2.096   9.358   0.100 -0.3277 -0.9122 -0.4066
 8240SOL    HW125298   2.015   9.319   0.133 -0.6584  0.3799  0.3724
 8240SOL    HW225299   2.092   9.449   0.127  1.6114 -0.9096  0.0400
 8241SOL     OW25300   9.829   3.809   2.516 -0.4562  0.0081 -0.4931
 8241SOL    HW125301   9.839   3.765   2.601 -1.7252  1.5894  0.5615
 8241SOL    HW225302   9.773   3.750   2.465 -1.9166  0.2122  0.7881
 8242SOL     OW25303   5.671   6.210   0.743 -0.1182 -0.1873  0.5540
 8242SOL    HW125304   5.688   6.301   0.719 -0.2999 -0.2697  0.1088
 8242SOL    HW225305   5.710   6.158   0.673  1.5437 -0.5356  1.6776
 8243SOL     OW25306   7.088   2.350   1.390 -0.1159 -0.2373 -0.4008
 8243SOL    HW125307   7.122   2.263   1.411 -0.1244  0.1357  1.2774
 8243SOL    HW225308   7.010   2.333   1.337 -0.1684 -1.2545 -0.0263
 8244SOL     OW25309   7.518   2.421   9.301 -0.0500 -0.5105 -0.2612
 8244SOL    HW125310   7.507   2.346   9.360 -1.2146  0.0692  0.3052
 8244SOL    HW225311   7.583   2.476   9.344 -0.5234 -0.3341  0.2500
 8245SOL     OW25312   2.717   7.423   1.543  0.1914 -0.8937 -0.0500
 8245SOL    HW125313   2.652   7.456   1.481  0.9646 -0.3297 -0.5802
 8245SOL    HW225314   2.675   7.347   1.584 -0.9736 -0.2608 -0.0391
 8246SOL     OW25315   4.043   6.433   3.347 -0.0421  0.4753  0.0899
 8246SOL    HW125316   4.119   6.422   3.404 -0.1623 -0.1838  0.1284
 8246SOL    HW225317   4.015   6.523   3.362 -0.7362 -0.0015  1.9246
 8247SOL     OW25318   9.656   1.354   2.926  0.0587  0.0257  0.5402
 8247SOL    HW125319   9.579   1.338   2.871 -1.1171  1.2276  1.7784
 8247SOL    HW225320   9.625   1.409   2.997  2.2157  1.0834  0.7574
 8248SOL     OW25321   0.663   0.298   1.551 -0.0983  0.1290 -0.2055
 8248SOL    HW125322   0.670   0.231   1.619 -3.1833  1.1057  1.2391
 8248SOL    HW225323   0.588   0.272   1.498  0.5664  0.8493 -1.5758
 8249SOL     OW25324   9.278   8.877   0.676  0.0898  0.1680 -0.2805
 8249SOL    HW125325   9.241   8.790   0.693 -0.9469  0.4281 -1.0569
 8249SOL    HW225326   9.371   8.862   0.665  0.0023 -0.7665  0.1207
 8250SOL     OW25327   3.408   0.997   9.125  0.7748 -0.1861  0.4829
 8250SOL    HW125328   3.498   0.964   9.128  0.5071 -0.8961  1.0517
 8250SOL    HW225329   3.394   1.021   9.033  0.9434 -1.8074 -0.0019
 8251SOL     OW25330   9.487   4.498   8.200  0.5590  0.0979 -0.0137
 8251SOL    HW125331   9.416   4.485   8.263  1.2194 -0.6826  0.5940
 8251SOL    HW225332   9.451   4.469   8.116  0.2179 -0.4871  0.3274
 8252SOL     OW25333   9.455   0.517   6.686  0.5523  0.0575  0.0315
 8252SOL    HW125334   9.548   0.527   6.705  0.3422 -0.2561  1.4060
 8252SOL    HW225335   9.417   0.603   6.701  0.5706  0.1065 -0.2021
 8253SOL     OW25336   9.649   2.142   1.891  0.2626 -0.1203 -0.7704
 8253SOL    HW125337   9.684   2.224   1.857 -0.2804  1.2399  1.7191
 8253SOL    HW225338   9.726   2.091   1.915  0.5856  0.0257 -1.4700
 8254SOL     OW25339   4.407   2.013   1.604 -0.4291  0.1055  0.5073
 8254SOL    HW125340   4.500   1.992   1.590 -0.7663 -0.6401 -0.8428
 8254SOL    HW225341   4.368   2.004   1.517 -1.3998  2.4695  0.6223
 8255SOL     OW25342   5.898   7.356   9.020  0.0479  0.7630  0.1495
 8255SOL    HW125343   5.908   7.414   8.945  1.3532  1.9043  1.1417
 8255SOL    HW225344   5.968   7.292   9.011 -0.8424 -0.1496 -0.4720
 8256SOL     OW25345   9.477   5.109   2.545  0.0798 -0.0792  0.1919
 8256SOL    HW125346   9.489   5.039   2.608 -0.5013 -1.2693 -0.9738
 8256SOL    HW225347   9.502   5.071   2.461  0.3346  1.2977 -0.3918
 8257SOL     OW25348   6.811   3.843   1.021 -0.2831  0.5558  0.1545
 8257SOL    HW125349   6.881   3.792   0.982 -0.7473  0.0964 -0.0839
 8257SOL    HW225350   6.739   3.838   0.958 -0.3678  1.4270  0.1668
 8258SOL     OW25351   7.152   6.195   2.815 -0.1414  0.2606 -0.3985
 8258SOL    HW125352   7.193   6.260   2.872 -1.3899  1.3770 -0.7336
 8258SOL    HW225353   7.225   6.152   2.771  0.6929  2.0415 -0.8383
 8259SOL     OW25354   9.249   8.591   1.206  0.3668  0.2297 -0.1797
 8259SOL    HW125355   9.219   8.678   1.231  0.7233  0.4755 -0.5954
 8259SOL    HW225356   9.335   8.605   1.165 -0.3889 -0.0771 -1.9946
 8260SOL     OW25357   3.455   4.201   6.132 -0.2248  0.2706  0.0339
 8260SOL    HW125358   3.491   4.124   6.088  0.5102  1.4540 -1.5451
 8260SOL    HW225359   3.390   4.236   6.071  0.0238  1.3409  0.3634
 8261SOL     OW25360   5.693   0.436   7.223 -0.6202  0.2283  0.0514
 8261SOL    HW125361   5.694   0.511   7.283 -0.5637 -0.9879  1.6426
 8261SOL    HW225362   5.700   0.475   7.136  0.4377  2.0138  0.8739
 8262SOL     OW25363   2.996   2.341   8.977  0.0767  0.5324  0.1461
 8262SOL    HW125364   3.072   2.339   8.918  1.0229  1.0402  1.3037
 8262SOL    HW225365   2.991   2.432   9.007 -1.9124  0.8765 -1.0122
 8263SOL     OW25366   4.605   5.153   6.535  0.5816 -0.4664  0.6619
 8263SOL    HW125367   4.675   5.088   6.548  1.8875  0.8991  0.6712
 8263SOL    HW225368   4.650   5.231   6.505 -1.1130  0.0352 -0.7452
 8264SOL     OW25369   2.758   4.048   7.789  0.1845 -0.5098 -0.3700
 8264SOL    HW125370   2.716   4.109   7.850  0.7615  0.5829 -1.0394
 8264SOL    HW225371   2.829   4.009   7.840 -1.2558 -1.9723  0.6050
 8265SOL     OW25372   7.958   5.539   8.143 -0.3319  0.2852 -0.1302
 8265SOL    HW125373   7.920   5.546   8.056 -1.5845  0.0491  0.3724
 8265SOL    HW225374   7.904   5.596   8.198  1.5681  1.9030  0.1725
 8266SOL     OW25375   4.550   8.350   5.753 -0.5626  0.5996 -0.7365
 8266SOL    HW125376   4.528   8.258   5.741 -1.9491  1.1470 -2.8214
 8266SOL    HW225377   4.636   8.348   5.795 -1.5265 -1.6128  1.4031
 8267SOL     OW25378   0.204   8.649   6.822  0.2476  0.8303  0.0082
 8267SOL    HW125379   0.183   8.726   6.770  0.3363  2.3798  2.1214
 8267SOL    HW225380   0.290   8.669   6.860  0.4185 -0.4464  0.3237
 8268SOL     OW25381   8.419   8.816   7.000 -0.1186 -0.5946  0.0460
 8268SOL    HW125382   8.367   8.896   7.003 -0.1620 -0.6126  2.7404
 8268SOL    HW225383   8.380   8.764   6.930 -1.9951  0.5313  0.1964
 8269SOL     OW25384   9.848   2.997   5.929 -0.1963  0.5087  0.0508
 8269SOL    HW125385   9.854   2.906   5.902  1.3945  0.9355 -1.2067
 8269SOL    HW225386   9.878   2.998   6.019 -3.4368 -0.6282  1.2767
 8270SOL     OW25387   8.651   4.883   1.310  0.6452 -0.1043 -0.1940
 8270SOL    HW125388   8.666   4.870   1.216 -1.5211 -1.3436 -0.4550
 8270SOL    HW225389   8.601   4.964   1.315 -0.3988 -0.7211 -0.2861
 8271SOL     OW25390   1.804   0.760   7.263  0.4197  0.7187 -0.5314
 8271SOL    HW125391   1.848   0.821   7.322 -0.5570  0.1516  0.8342
 8271SOL    HW225392   1.853   0.678   7.272  0.9564  0.9207 -1.4052
 8272SOL     OW25393   6.437   4.869   8.090  0.0970  0.4462  0.1826
 8272SOL    HW125394   6.485   4.904   8.015  0.6420 -0.0719  0.2817
 8272SOL    HW225395   6.504   4.829   8.145 -0.4512 -0.3737  0.2832
 8273SOL     OW25396   7.571   8.977   4.407  0.0003 -0.0366  0.4035
 8273SOL    HW125397   7.500   8.939   4.458  0.2616 -1.0904 -0.0072
 8273SOL    HW225398   7.651   8.948   4.451  0.2216 -0.6355 -0.3745
 8274SOL     OW25399   6.089   9.154   0.247  0.0089 -0.1645  0.0264
 8274SOL    HW125400   6.177   9.118   0.255 -0.0993 -0.3602  0.3364
 8274SOL    HW225401   6.048   9.136   0.331 -1.4046 -2.9297 -1.1494
 8275SOL     OW25402   1.893   6.516   4.390 -0.2570  0.1270  0.5537
 8275SOL    HW125403   1.838   6.562   4.326  0.1743  0.3510  0.3366
 8275SOL    HW225404   1.947   6.457   4.338 -0.1731  0.0293  0.7492
 8276SOL     OW25405   8.430   4.541   5.361  0.0563  0.1095 -0.5182
 8276SOL    HW125406   8.483   4.533   5.441 -0.5574 -3.0032 -0.2662
 8276SOL    HW225407   8.491   4.572   5.295  1.2276  0.3204  0.6124
 8277SOL     OW25408   9.024   4.339   4.456 -0.3930 -0.1641 -0.7260
 8277SOL    HW125409   9.082   4.283   4.507 -1.7379 -0.9654  0.0023
 8277SOL    HW225410   9.021   4.298   4.369 -1.2075 -1.1621 -0.2564
 8278SOL     OW25411   4.400   2.109   2.725  0.4048  0.0420  0.1218
 8278SOL    HW125412   4.465   2.145   2.664 -1.4622  0.6222 -1.6266
 8278SOL    HW225413   4.400   2.015   2.706  0.3134  0.1265 -0.3168
 8279SOL     OW25414   5.358   0.681   4.249 -0.0720  0.2052  0.4465
 8279SOL    HW125415   5.413   0.628   4.307 -1.2026  1.9110  3.2518
 8279SOL    HW225416   5.420   0.737   4.202  1.0298 -2.4757 -1.6180
 8280SOL     OW25417   2.675   7.810   0.159 -0.0756 -0.0745 -0.3083
 8280SOL    HW125418   2.745   7.868   0.131 -0.6011 -0.2809 -2.2297
 8280SOL    HW225419   2.633   7.856   0.231  0.3917  1.2869 -0.8714
 8281SOL     OW25420   4.677   5.782   5.830  0.1266 -0.3271  0.5589
 8281SOL    HW125421   4.716   5.849   5.773  1.0124  0.5348  2.1246
 8281SOL    HW225422   4.594   5.820   5.858 -0.1406 -0.5960  0.1351
 8282SOL     OW25423   4.513   6.414   5.143  0.2122  0.5530  0.2630
 8282SOL    HW125424   4.595   6.382   5.181  0.1912  2.2954  1.9063
 8282SOL    HW225425   4.448   6.404   5.214 -0.9478 -0.4781 -0.8930
 8283SOL     OW25426   1.280   4.523   8.466 -0.2850 -0.3394  0.2341
 8283SOL    HW125427   1.235   4.576   8.532 -0.6899  1.4697 -1.4094
 8283SOL    HW225428   1.372   4.527   8.491 -0.5191 -0.3502  1.1262
 8284SOL     OW25429   6.267   7.056   5.033  0.1134  0.4792 -0.4277
 8284SOL    HW125430   6.252   7.130   5.091 -0.6141  0.3930 -0.4905
 8284SOL    HW225431   6.256   6.979   5.089  0.4623  0.4105 -0.4516
 8285SOL     OW25432   3.474   8.600   8.340  0.1340 -0.5207  0.0875
 8285SOL    HW125433   3.399   8.545   8.315  0.7338 -1.4671  0.3502
 8285SOL    HW225434   3.502   8.640   8.258 -0.1181 -0.8458 -0.1618
 8286SOL     OW25435   0.600   0.840   5.802  0.2692 -0.4269  0.0599
 8286SOL    HW125436   0.590   0.929   5.771 -0.7981 -0.0343  1.4081
 8286SOL    HW225437   0.543   0.835   5.879 -1.9150 -3.0518 -1.5299
 8287SOL     OW25438   0.668   6.466   9.317  0.5649  0.1125 -0.5061
 8287SOL    HW125439   0.739   6.447   9.378  0.2120 -0.0281 -0.1345
 8287SOL    HW225440   0.629   6.547   9.349 -1.9428 -1.7740  1.6558
 8288SOL     OW25441   3.752   8.589   4.029  0.6002 -0.0428  0.4374
 8288SOL    HW125442   3.737   8.519   3.964 -0.3786 -0.3045  0.9287
 8288SOL    HW225443   3.678   8.648   4.017 -0.5413 -0.9760  2.4431
 8289SOL     OW25444   1.434   3.439   1.887  0.2211 -0.0216  0.2019
 8289SOL    HW125445   1.392   3.436   1.973 -2.4766 -1.9091 -1.0346
 8289SOL    HW225446   1.428   3.531   1.862 -2.4658 -0.0024  0.5451
 8290SOL     OW25447   5.781   8.217   4.812 -0.6245  0.1839 -0.1913
 8290SOL    HW125448   5.797   8.241   4.721  0.8128  0.2782  0.0637
 8290SOL    HW225449   5.722   8.285   4.845 -0.1585  0.8525 -0.7130
 8291SOL     OW25450   4.382   6.986   6.851  0.1287 -0.7865 -0.3468
 8291SOL    HW125451   4.311   6.966   6.790  0.1005  0.7349 -0.8549
 8291SOL    HW225452   4.396   7.080   6.841 -0.7435 -0.1883  2.9539
 8292SOL     OW25453   9.461   3.421   0.768 -0.0639  0.1190 -0.5052
 8292SOL    HW125454   9.548   3.421   0.810 -0.7631  0.1083  0.9934
 8292SOL    HW225455   9.445   3.513   0.747 -0.2504  0.3183  0.4608
 8293SOL     OW25456   9.694   9.644   5.325 -0.1499 -0.0335  0.3206
 8293SOL    HW125457   9.598   9.642   5.327 -0.1386 -0.0732  1.7662
 8293SOL    HW225458   9.715   9.692   5.245 -1.3460 -1.1722 -0.7251
 8294SOL     OW25459   2.540   2.680   7.006  0.3401  0.1304  0.9991
 8294SOL    HW125460   2.540   2.774   7.026 -0.3784  0.1914  0.7433
 8294SOL    HW225461   2.630   2.653   7.021  0.6278  0.9260  0.7921
 8295SOL     OW25462   6.891   9.041   3.239  0.7877  0.6430  0.1150
 8295SOL    HW125463   6.878   9.086   3.155 -0.5393  3.3047  1.6275
 8295SOL    HW225464   6.986   9.036   3.249  0.9636  0.8002 -1.2631
 8296SOL     OW25465   0.241   6.980   9.186 -1.0359  0.1801 -0.6594
 8296SOL    HW125466   0.156   6.982   9.142 -1.5278 -0.1373  0.2584
 8296SOL    HW225467   0.255   6.888   9.208 -0.5234  0.2525 -0.6585
 8297SOL     OW25468   9.110   4.142   8.349  0.3103 -0.1620  0.1889
 8297SOL    HW125469   9.056   4.196   8.291  0.7445 -0.9935 -1.0457
 8297SOL    HW225470   9.166   4.093   8.289  0.2071 -1.6640  1.2749
 8298SOL     OW25471   8.707   8.948   3.782  0.3942 -0.0813  0.4802
 8298SOL    HW125472   8.718   8.975   3.691  0.3572 -0.0711  0.4786
 8298SOL    HW225473   8.651   9.016   3.820  1.4157  0.5810  0.8285
 8299SOL     OW25474   5.952   6.513   2.355 -0.5998 -0.0594  0.1703
 8299SOL    HW125475   5.878   6.477   2.308 -1.4478  1.1231  0.5571
 8299SOL    HW225476   5.918   6.532   2.443 -0.1089  1.3139  0.0901
 8300SOL     OW25477   0.516   0.888   1.015 -0.0407 -0.2327  0.0212
 8300SOL    HW125478   0.537   0.906   1.106 -0.2457 -0.9913  0.2239
 8300SOL    HW225479   0.549   0.799   1.000  0.9306  0.2738 -0.9370
 8301SOL     OW25480   6.860   4.250   9.727 -0.1877 -0.1638 -0.0824
 8301SOL    HW125481   6.838   4.157   9.733  0.4228 -0.4382 -1.6626
 8301SOL    HW225482   6.955   4.253   9.737 -0.3546  0.4848  1.5926
 8302SOL     OW25483   6.747   3.096   2.771 -0.0695 -0.1122  0.1908
 8302SOL    HW125484   6.678   3.031   2.764 -0.5313  0.1523  1.8619
 8302SOL    HW225485   6.738   3.150   2.692 -0.4749 -1.2861 -0.5804
 8303SOL     OW25486   5.938   2.879   3.694  0.1605 -0.2816 -0.2777
 8303SOL    HW125487   5.947   2.856   3.787 -2.6905 -1.7535 -0.2382
 8303SOL    HW225488   5.956   2.798   3.647  1.7713  0.5020 -1.0696
 8304SOL     OW25489   6.712   7.867   1.675 -0.2500 -0.1419 -0.8474
 8304SOL    HW125490   6.784   7.919   1.713 -0.1192 -0.3207 -0.8454
 8304SOL    HW225491   6.635   7.922   1.685 -0.2915 -0.3425  0.0498
 8305SOL     OW25492   6.667   3.276   2.575  0.0995  0.1217 -0.4229
 8305SOL    HW125493   6.730   3.288   2.504 -0.3852  0.3495 -0.8203
 8305SOL    HW225494   6.594   3.230   2.534  0.3288 -0.8352  0.2135
 8306SOL     OW25495   8.582   4.366   4.537 -0.1650 -0.4529 -0.2040
 8306SOL    HW125496   8.631   4.290   4.571  0.8238  0.2162 -0.0923
 8306SOL    HW225497   8.513   4.327   4.483  0.9100 -1.4278 -0.9469
 8307SOL     OW25498   3.832   7.314   0.978  0.4067 -0.3352 -0.6479
 8307SOL    HW125499   3.833   7.357   1.064  0.6040  0.0163 -0.8220
 8307SOL    HW225500   3.824   7.386   0.915 -0.5406 -0.6397 -0.8947
 8308SOL     OW25501   1.995   8.358   0.761 -0.1591  0.6919 -0.3263
 8308SOL    HW125502   2.053   8.428   0.732  0.5555  0.6692  0.9978
 8308SOL    HW225503   2.051   8.299   0.812 -1.0174 -0.1578 -0.3403
 8309SOL     OW25504   3.425   4.947   0.927 -0.0086 -0.2867  0.4900
 8309SOL    HW125505   3.452   4.902   0.847  0.4364  0.0930  0.4180
 8309SOL    HW225506   3.478   4.906   0.996 -1.4945 -1.6901  0.8596
 8310SOL     OW25507   9.316   3.885   4.964  0.0849 -0.2868  0.7001
 8310SOL    HW125508   9.294   3.838   4.883 -0.9018  1.1938  0.0657
 8310SOL    HW225509   9.343   3.972   4.935 -0.7013  0.4157  1.9812
 8311SOL     OW25510   3.686   9.413   5.228  0.4587  0.4191  0.1545
 8311SOL    HW125511   3.663   9.452   5.144  0.2981  0.5556  0.2595
 8311SOL    HW225512   3.735   9.482   5.273  0.4313  0.3938  0.2227
 8312SOL     OW25513   5.340   0.916   2.102  0.5213 -0.0826 -0.2701
 8312SOL    HW125514   5.372   0.968   2.175  0.2476 -0.7663  0.3439
 8312SOL    HW225515   5.393   0.836   2.103 -0.4728 -0.7561  0.1094
 8313SOL     OW25516   2.631   5.554   5.752 -0.1575  0.3749  0.4453
 8313SOL    HW125517   2.617   5.467   5.713  1.1782  0.7409 -0.9898
 8313SOL    HW225518   2.554   5.569   5.806 -0.3286 -1.7969  0.9123
 8314SOL     OW25519   6.263   3.177   1.565 -0.2409  0.0304 -0.1543
 8314SOL    HW125520   6.246   3.170   1.659 -0.7243  2.2537 -0.0217
 8314SOL    HW225521   6.229   3.095   1.529  2.6330 -2.2532  1.8571
 8315SOL     OW25522   1.816   3.499   4.025 -0.0599 -0.1607  0.1621
 8315SOL    HW125523   1.814   3.547   3.942 -0.6027 -0.8462 -0.2276
 8315SOL    HW225524   1.732   3.453   4.028 -0.0381 -0.1608  1.0865
 8316SOL     OW25525   1.306   2.593   4.455  1.0959 -0.1107  0.1053
 8316SOL    HW125526   1.254   2.587   4.535 -0.4570  1.3527 -0.7386
 8316SOL    HW225527   1.387   2.637   4.482  1.3676 -1.2020  1.1677
 8317SOL     OW25528   3.603   9.937   0.510  0.1633  0.4566 -0.3849
 8317SOL    HW125529   3.650  10.012   0.472  0.8083 -0.1563 -0.8186
 8317SOL    HW225530   3.643   9.924   0.596  0.8347 -0.0851 -0.7667
 8318SOL     OW25531   2.201   1.936   7.130  0.1905  0.6373  0.1468
 8318SOL    HW125532   2.279   1.909   7.178 -0.1427 -2.5551 -0.8384
 8318SOL    HW225533   2.127   1.911   7.186 -0.1711 -2.1836 -1.4133
 8319SOL     OW25534   2.987   0.695   5.211  0.4217 -0.3588 -0.0449
 8319SOL    HW125535   3.005   0.601   5.203  0.1754 -0.5645  1.4804
 8319SOL    HW225536   3.040   0.736   5.143  1.8217 -1.4725  0.3290
 8320SOL     OW25537   9.721   9.587   3.195 -0.0431  0.4809  0.6404
 8320SOL    HW125538   9.748   9.507   3.239  0.3189 -0.2762 -0.8961
 8320SOL    HW225539   9.652   9.623   3.250  1.3520  0.3531  2.5582
 8321SOL     OW25540   3.558   1.610   3.639 -0.1643 -0.7106  0.2446
 8321SOL    HW125541   3.634   1.613   3.697 -0.1145 -0.4833  0.1707
 8321SOL    HW225542   3.482   1.617   3.697 -0.1067 -0.1654  0.2624
 8322SOL     OW25543   4.392   5.853   9.043 -0.3178 -0.5637  0.1152
 8322SOL    HW125544   4.405   5.838   9.136 -2.0509  0.0540  0.5006
 8322SOL    HW225545   4.438   5.935   9.025 -0.3941 -0.4292  0.5398
 8323SOL     OW25546   0.986   6.497   3.751  0.3479 -0.6701 -0.6207
 8323SOL    HW125547   1.013   6.455   3.832  0.0504 -0.7978 -0.5903
 8323SOL    HW225548   0.920   6.561   3.778  2.7502  1.8461 -0.2509
 8324SOL     OW25549   3.425   1.640   9.758 -0.5702  0.5748 -0.3672
 8324SOL    HW125550   3.356   1.706   9.758  0.6416  1.8801 -0.7024
 8324SOL    HW225551   3.407   1.587   9.681 -2.4614 -0.5268  0.7507
 8325SOL     OW25552   9.256   8.906   9.311 -1.0384 -0.2161  0.5269
 8325SOL    HW125553   9.175   8.946   9.279 -0.4667  1.4755  1.1279
 8325SOL    HW225554   9.240   8.892   9.404 -1.1841 -1.3181  0.3514
 8326SOL     OW25555   9.517   9.492   9.726 -0.0976  0.5436  0.3521
 8326SOL    HW125556   9.439   9.541   9.699 -0.0730  1.1752  1.3575
 8326SOL    HW225557   9.544   9.443   9.648 -1.9663 -0.3289  0.2019
 8327SOL     OW25558   7.736   0.510   4.317  0.3138 -0.2013 -0.3405
 8327SOL    HW125559   7.774   0.435   4.363  1.6437 -0.0576 -1.1548
 8327SOL    HW225560   7.650   0.480   4.288  1.5749 -2.1298 -2.3801
 8328SOL     OW25561   8.803   8.065   6.832 -0.2904 -0.0613 -0.6746
 8328SOL    HW125562   8.851   8.078   6.914 -2.1441 -1.9019  0.8367
 8328SOL    HW225563   8.733   8.130   6.834  0.0294  0.3062 -1.1367
 8329SOL     OW25564   1.892   3.494   0.470 -0.1238 -0.0720  0.4216
 8329SOL    HW125565   1.829   3.518   0.402 -0.0363 -1.2737 -0.1196
 8329SOL    HW225566   1.972   3.539   0.446 -0.3175  0.1456  0.1772
 8330SOL     OW25567   2.878   6.066   8.278  0.4805 -0.0986 -0.0078
 8330SOL    HW125568   2.873   5.987   8.331  1.6833  1.3753  2.4718
 8330SOL    HW225569   2.972   6.084   8.270  0.2122  1.4313  0.0359
 8331SOL     OW25570   2.090   6.422   2.106 -0.2517  0.6635  0.0628
 8331SOL    HW125571   2.001   6.406   2.137 -1.2859  1.2758 -2.4035
 8331SOL    HW225572   2.085   6.506   2.061  1.5909  0.6885 -0.1816
 8332SOL     OW25573   4.767   1.561   5.164 -0.1452 -0.4925 -0.2660
 8332SOL    HW125574   4.734   1.624   5.100  0.7734 -0.3185 -0.5881
 8332SOL    HW225575   4.700   1.558   5.232  1.0775  3.2033  1.3948
 8333SOL     OW25576   2.667   0.158   4.614  0.0084  0.2971 -0.3254
 8333SOL    HW125577   2.738   0.204   4.569 -1.4615  1.3668 -1.6621
 8333SOL    HW225578   2.625   0.226   4.667  1.2130 -0.7676  2.2180
 8334SOL     OW25579   1.179   5.726   1.536 -0.2553 -0.2052 -0.6049
 8334SOL    HW125580   1.145   5.797   1.482 -2.1976 -1.3029 -0.9142
 8334SOL    HW225581   1.149   5.747   1.625 -0.4528 -0.3952 -0.6247
 8335SOL     OW25582   4.002   5.770   4.989  0.1696 -0.6452  0.0066
 8335SOL    HW125583   3.918   5.815   4.995  0.3113 -0.5553  2.3799
 8335SOL    HW225584   4.065   5.839   4.968  0.2064  0.1484  2.4100
 8336SOL     OW25585   3.511   1.880   2.552  0.1540  0.2601  0.0963
 8336SOL    HW125586   3.497   1.876   2.457 -1.2194 -4.7626  0.2006
 8336SOL    HW225587   3.428   1.911   2.587 -1.0840 -2.3090 -0.3305
 8337SOL     OW25588   6.875   5.176   7.652 -0.1034  0.0146 -0.3468
 8337SOL    HW125589   6.903   5.128   7.574  0.3941  1.2254 -0.9364
 8337SOL    HW225590   6.843   5.260   7.618  0.9232  0.8992  0.8075
 8338SOL     OW25591   5.963   7.647   7.255  0.0638 -0.1196 -0.2642
 8338SOL    HW125592   5.995   7.656   7.165 -0.3091 -1.3301 -0.5370
 8338SOL    HW225593   5.972   7.735   7.293 -0.0622  0.4809 -1.5712
 8339SOL     OW25594   6.812   8.498   0.192 -0.5115 -0.4025  0.0098
 8339SOL    HW125595   6.871   8.533   0.125 -1.6165  0.1334 -0.7245
 8339SOL    HW225596   6.820   8.557   0.266 -0.9934  0.3707 -0.5399
 8340SOL     OW25597   5.552   2.857   0.641 -0.4885 -0.8076  0.0695
 8340SOL    HW125598   5.562   2.883   0.733  0.0851 -2.4611  0.5216
 8340SOL    HW225599   5.568   2.937   0.592  0.8677 -0.2215  1.3684
 8341SOL     OW25600   2.030   0.191   3.095 -0.2918  0.0472  0.6292
 8341SOL    HW125601   2.038   0.275   3.051 -4.1651  0.9246  1.1862
 8341SOL    HW225602   2.081   0.201   3.176  2.3699  0.3681 -0.9730
 8342SOL     OW25603   7.087   7.981   5.354  0.1159 -0.4878 -0.2962
 8342SOL    HW125604   7.011   7.977   5.412  0.0969  2.1678 -0.0558
 8342SOL    HW225605   7.076   7.905   5.296 -2.3376 -0.5949  0.1853
 8343SOL     OW25606   5.685   8.325   7.734  0.2953 -0.0946  0.4336
 8343SOL    HW125607   5.715   8.392   7.672  2.0269 -0.8618  0.3941
 8343SOL    HW225608   5.725   8.351   7.817  1.6469 -1.4950  0.2454
 8344SOL     OW25609   2.273   5.515   2.797  0.0301  0.5587 -0.5471
 8344SOL    HW125610   2.223   5.487   2.874  1.0038  0.2677 -0.0018
 8344SOL    HW225611   2.280   5.436   2.743 -0.7470  0.7900 -0.9933
 8345SOL     OW25612   2.126   7.640   7.628 -0.2825 -0.0630 -0.6320
 8345SOL    HW125613   2.153   7.731   7.615 -0.1973  0.0688  0.3546
 8345SOL    HW225614   2.088   7.639   7.716 -1.0744 -0.8069 -0.9647
 8346SOL     OW25615   8.138   9.359   6.002 -0.9283 -0.2449  0.1979
 8346SOL    HW125616   8.153   9.414   5.926 -0.3011 -0.5791  0.0729
 8346SOL    HW225617   8.114   9.274   5.966 -0.4391 -0.4574  0.3645
 8347SOL     OW25618   5.285   8.815   2.892 -0.9554 -0.4642 -0.4233
 8347SOL    HW125619   5.354   8.758   2.858  1.4143  1.8337  0.1975
 8347SOL    HW225620   5.260   8.775   2.975 -1.4826 -2.1241 -1.3355
 8348SOL     OW25621   8.912   4.840   7.303 -0.2168  0.2488 -0.7239
 8348SOL    HW125622   8.912   4.936   7.305 -2.5441  0.3003  0.3025
 8348SOL    HW225623   8.912   4.818   7.210 -2.5365  1.3827 -1.0722
 8349SOL     OW25624   9.469   7.300   7.799 -0.3714  0.3094 -0.2911
 8349SOL    HW125625   9.531   7.280   7.870  1.4912  0.8501 -1.6939
 8349SOL    HW225626   9.448   7.393   7.813  0.7987  0.6985 -1.0059
 8350SOL     OW25627   4.271   1.536   4.724 -0.1043  0.4030 -0.0317
 8350SOL    HW125628   4.346   1.478   4.733 -0.4207  0.0434  0.3901
 8350SOL    HW225629   4.220   1.521   4.805  0.1642  1.7819  0.4106
 8351SOL     OW25630   1.334   1.396   1.174 -0.5628  0.8345  0.3610
 8351SOL    HW125631   1.239   1.407   1.183 -0.2616  1.9789  2.9888
 8351SOL    HW225632   1.361   1.469   1.119 -1.2030  0.4358 -0.4988
 8352SOL     OW25633   5.737   6.950   6.333  0.0800  0.0511  0.2870
 8352SOL    HW125634   5.734   6.974   6.425  0.8471  0.5395  0.1951
 8352SOL    HW225635   5.776   7.026   6.289  0.7923 -0.6202 -0.2756
 8353SOL     OW25636   2.774   4.909   5.060 -0.1183  0.4489  0.2137
 8353SOL    HW125637   2.742   4.820   5.049  0.9278 -0.0319  0.8841
 8353SOL    HW225638   2.793   4.939   4.971 -1.1755  0.2868 -0.0769
 8354SOL     OW25639   1.361   6.682   1.927  0.6082  0.0945 -0.2011
 8354SOL    HW125640   1.379   6.767   1.969  0.5446 -0.1414  0.3182
 8354SOL    HW225641   1.296   6.702   1.860 -0.1796  0.3047  0.5927
 8355SOL     OW25642   4.057   5.103   6.706 -0.2950 -0.1476 -0.2850
 8355SOL    HW125643   4.013   5.029   6.663  1.1244  0.4888 -3.0248
 8355SOL    HW225644   4.077   5.070   6.794 -2.3059 -1.9399 -0.3914
 8356SOL     OW25645   1.506   6.258   9.949  0.7653  0.2598 -0.8753
 8356SOL    HW125646   1.487   6.219  10.034  0.3882 -3.1032 -2.3568
 8356SOL    HW225647   1.420   6.274   9.910  0.8788 -1.2643 -1.8332
 8357SOL     OW25648   7.290   5.319   5.983 -0.0143  0.1726 -0.3873
 8357SOL    HW125649   7.380   5.299   5.956  0.3746 -0.7915  1.4258
 8357SOL    HW225650   7.278   5.411   5.961  0.4007 -0.3565 -3.2236
 8358SOL     OW25651   9.789   0.884   0.101  0.0973 -0.0603  0.2092
 8358SOL    HW125652   9.871   0.924   0.071  0.7849 -0.6800  1.2147
 8358SOL    HW225653   9.816   0.819   0.165 -1.0946 -1.2143 -0.4089
 8359SOL     OW25654   3.074   0.561   4.294  0.1884  0.1474 -0.2713
 8359SOL    HW125655   3.140   0.628   4.276 -0.2097  0.6210 -0.0137
 8359SOL    HW225656   3.088   0.494   4.228  0.1989  0.7822 -0.9224
 8360SOL     OW25657   0.743   7.122   5.170  0.5235  0.2859  0.4092
 8360SOL    HW125658   0.811   7.154   5.229  1.0968  1.9651 -1.0547
 8360SOL    HW225659   0.746   7.027   5.180  1.9586  0.4112  1.5987
 8361SOL     OW25660   3.191   8.319   5.626  0.0202  0.2211  0.1631
 8361SOL    HW125661   3.155   8.231   5.619  0.9485 -0.3820  2.1005
 8361SOL    HW225662   3.158   8.351   5.711  0.7430  1.2149  0.0855
 8362SOL     OW25663   1.748   7.775   3.816  0.2157 -0.2385  0.0521
 8362SOL    HW125664   1.729   7.755   3.724  0.2159 -1.6772  0.3437
 8362SOL    HW225665   1.720   7.866   3.827  0.1710 -0.0600 -1.3531
 8363SOL     OW25666   1.031   0.418   9.956 -0.1273 -0.4483 -0.0232
 8363SOL    HW125667   1.083   0.340   9.932  1.0878  0.3585 -0.1184
 8363SOL    HW225668   1.083   0.461  10.024 -1.5079 -0.4719  1.0834
 8364SOL     OW25669   7.618   6.895   8.242 -0.1574  0.1347  0.6093
 8364SOL    HW125670   7.669   6.832   8.292  0.2227 -0.0562 -0.0116
 8364SOL    HW225671   7.573   6.843   8.176 -1.8431  0.1857  1.6790
 8365SOL     OW25672   0.305   3.737   6.074  1.2394 -0.0660 -0.5876
 8365SOL    HW125673   0.288   3.643   6.074  0.7578 -0.0800  2.6159
 8365SOL    HW225674   0.246   3.772   6.007  0.1082 -1.8549 -0.5868
 8366SOL     OW25675   5.901   0.567   8.029 -0.0838  0.0790 -0.0989
 8366SOL    HW125676   5.979   0.551   7.975 -0.5744  0.5936 -0.9867
 8366SOL    HW225677   5.832   0.587   7.965 -0.1118  3.2859  0.7737
 8367SOL     OW25678   3.468   2.604   2.009 -0.2017 -0.1694 -0.1612
 8367SOL    HW125679   3.542   2.572   1.959 -1.0651  0.0692 -1.6503
 8367SOL    HW225680   3.435   2.679   1.958 -1.2749 -0.0870  0.6140
 8368SOL     OW25681   3.153   6.357   0.788  0.4737  0.3378  0.2508
 8368SOL    HW125682   3.088   6.405   0.736  0.6400 -0.3664 -0.6415
 8368SOL    HW225683   3.214   6.323   0.722  1.2335  0.2269  1.0038
 8369SOL     OW25684   7.664   8.535   3.653 -0.3440 -0.5517  0.6701
 8369SOL    HW125685   7.637   8.444   3.642  1.1765 -1.0159  0.4979
 8369SOL    HW225686   7.668   8.571   3.564 -2.1717  0.1077  0.8034
 8370SOL     OW25687   2.331   4.333   9.213 -0.0538 -0.4567 -0.1864
 8370SOL    HW125688   2.355   4.288   9.294 -2.0056 -2.0260 -0.4140
 8370SOL    HW225689   2.407   4.388   9.193 -0.5429  2.3245  4.2595
 8371SOL     OW25690   6.882   9.775   6.445  0.0675 -0.1913 -0.4119
 8371SOL    HW125691   6.875   9.684   6.474 -1.8154  0.3530  1.1118
 8371SOL    HW225692   6.812   9.785   6.381 -0.5394  0.4421  0.3173
 8372SOL     OW25693   8.386   6.889   4.686 -0.7622 -0.3202 -0.1538
 8372SOL    HW125694   8.417   6.935   4.764 -1.0835  0.8618 -0.6996
 8372SOL    HW225695   8.346   6.957   4.632  0.0518 -0.9813 -1.6723
 8373SOL     OW25696   0.249   2.751   0.983  0.0978  0.3605 -0.1056
 8373SOL    HW125697   0.284   2.840   0.984  0.8828  0.0839  1.4282
 8373SOL    HW225698   0.154   2.763   0.982  0.1536  1.2765  1.5255
 8374SOL     OW25699   9.683   5.570   8.200 -0.9613 -0.2617 -0.3696
 8374SOL    HW125700   9.717   5.509   8.134  1.9481 -0.9509  1.5821
 8374SOL    HW225701   9.742   5.645   8.195 -2.7750  1.2069 -0.7730
 8375SOL     OW25702   6.318   4.333   7.737 -0.4499 -0.0118 -0.2172
 8375SOL    HW125703   6.258   4.395   7.779 -0.7851 -0.8729  0.5982
 8375SOL    HW225704   6.300   4.343   7.644 -0.9681  0.6492 -0.0585
 8376SOL     OW25705   4.590   6.861   4.662  0.1087  0.0474  0.4483
 8376SOL    HW125706   4.521   6.884   4.599 -0.8816 -0.7455  1.1955
 8376SOL    HW225707   4.573   6.770   4.683 -0.6333  0.7114  3.0992
 8377SOL     OW25708   6.568   1.091   3.625 -0.1199 -0.2451 -0.1025
 8377SOL    HW125709   6.642   1.151   3.615 -0.3734  0.0865  0.0031
 8377SOL    HW225710   6.531   1.113   3.711  0.5547 -1.4088  0.5199
 8378SOL     OW25711   7.821   1.693   3.629 -0.6279  0.2809 -0.5192
 8378SOL    HW125712   7.728   1.700   3.610 -0.5900  0.0931 -0.7822
 8378SOL    HW225713   7.854   1.629   3.565 -1.3140 -3.8611  2.7847
 8379SOL     OW25714   3.001   8.396   6.269  0.4648 -0.5912  1.0770
 8379SOL    HW125715   3.084   8.393   6.222  0.1882  1.1424  0.4008
 8379SOL    HW225716   2.949   8.326   6.230  0.6597  0.0620 -0.4576
 8380SOL     OW25717   1.688   1.149   4.201 -0.3898  0.4445  0.1429
 8380SOL    HW125718   1.750   1.221   4.193  0.8977 -0.8160 -2.4698
 8380SOL    HW225719   1.609   1.189   4.239 -0.0454  3.4232 -1.9802
 8381SOL     OW25720   8.350   2.568   0.040 -0.0277 -0.1920  0.3776
 8381SOL    HW125721   8.389   2.524  -0.036  2.6390  0.8138  1.0517
 8381SOL    HW225722   8.356   2.505   0.111  0.7370  0.0809  0.5624
 8382SOL     OW25723   0.212   1.403   7.802  0.3541 -0.0735  0.4802
 8382SOL    HW125724   0.169   1.322   7.828  0.1889 -0.0618  0.2393
 8382SOL    HW225725   0.242   1.442   7.884 -0.2025 -0.0171  0.6580
 8383SOL     OW25726   4.232   2.669   9.814  0.1618  0.5705  0.3140
 8383SOL    HW125727   4.283   2.591   9.834  1.1882  1.6005  1.9630
 8383SOL    HW225728   4.141   2.642   9.824  0.3291 -1.1118 -1.9436
 8384SOL     OW25729   7.351   4.751   6.025 -0.0203  0.0138  0.2582
 8384SOL    HW125730   7.416   4.756   5.955  0.1994  1.3572  0.5289
 8384SOL    HW225731   7.383   4.683   6.083 -0.5997 -1.6718 -1.3157
 8385SOL     OW25732   0.956   9.274   5.244 -0.2765  0.1808 -0.5186
 8385SOL    HW125733   1.030   9.334   5.234  1.3481 -1.5515  0.5313
 8385SOL    HW225734   0.911   9.305   5.323  1.4216 -0.7677  0.8821
 8386SOL     OW25735   2.881   5.497   2.024  0.1263  0.4497 -0.2818
 8386SOL    HW125736   2.804   5.529   1.978  0.2681 -0.6163 -1.2781
 8386SOL    HW225737   2.896   5.409   1.990  0.2498 -0.3971  1.7841
 8387SOL     OW25738   9.393   7.282   1.851 -0.0373  0.7016 -0.3063
 8387SOL    HW125739   9.299   7.295   1.845 -0.1637  0.7878  1.4013
 8387SOL    HW225740   9.429   7.370   1.864  0.2734  0.6427 -0.7152
 8388SOL     OW25741   6.818   1.959   2.157  0.3658 -0.1060  0.1385
 8388SOL    HW125742   6.738   2.008   2.139 -0.0217 -1.1318 -1.0172
 8388SOL    HW225743   6.806   1.927   2.247 -0.3954 -0.0349  0.0692
 8389SOL     OW25744   8.603   8.305   7.838 -0.5026  0.2182  0.8245
 8389SOL    HW125745   8.607   8.325   7.932 -0.9825 -1.2883  1.2086
 8389SOL    HW225746   8.509   8.299   7.819 -0.4016 -0.2991  0.4574
 8390SOL     OW25747   0.033   4.168   4.892  0.0843  0.1117 -0.0977
 8390SOL    HW125748   0.109   4.202   4.940 -0.0795 -0.6060  0.7028
 8390SOL    HW225749   0.058   4.078   4.871 -1.1520 -0.6921  1.6133
 8391SOL     OW25750   5.141   2.705   5.959 -0.3298 -0.6416 -0.0389
 8391SOL    HW125751   5.204   2.729   5.891 -1.0066  0.6962 -0.2343
 8391SOL    HW225752   5.194   2.665   6.028  0.7257  0.2534 -0.2925
 8392SOL     OW25753   0.295   6.302   4.544  0.1942  0.2693 -0.0421
 8392SOL    HW125754   0.283   6.386   4.500 -1.2343 -0.1942 -0.5974
 8392SOL    HW225755   0.206   6.272   4.564  0.6678 -1.0852  0.1888
 8393SOL     OW25756   6.387   9.205   1.477  0.4999  0.1108 -0.4193
 8393SOL    HW125757   6.299   9.171   1.461  0.4923  0.3197 -0.8381
 8393SOL    HW225758   6.403   9.187   1.569 -0.7523  1.7875  0.1780
 8394SOL     OW25759   0.769   7.277   7.832 -0.3107  0.0153  0.3088
 8394SOL    HW125760   0.750   7.356   7.882 -0.0817 -1.1003  2.2597
 8394SOL    HW225761   0.695   7.267   7.772 -1.0267  0.9221  1.0272
 8395SOL     OW25762   4.782   9.963   0.739 -0.2209 -0.2578 -0.5226
 8395SOL    HW125763   4.749   9.978   0.650 -0.1522  0.8091 -0.3822
 8395SOL    HW225764   4.704   9.971   0.795 -0.0089  0.6535 -0.3445
 8396SOL     OW25765   7.456   7.395   3.701  0.1288 -0.3492  0.0173
 8396SOL    HW125766   7.369   7.402   3.660 -0.2204 -1.7879  0.4630
 8396SOL    HW225767   7.517   7.423   3.632 -0.5975 -0.6374 -0.7647
 8397SOL     OW25768   5.258   3.438   5.554  0.1276  0.1708  0.2831
 8397SOL    HW125769   5.335   3.465   5.503  1.8639 -2.2623  1.3785
 8397SOL    HW225770   5.233   3.516   5.603  0.5592  1.6013 -1.6166
 8398SOL     OW25771   4.550   3.147   3.642  0.1894 -0.1353 -0.0908
 8398SOL    HW125772   4.625   3.123   3.588 -0.8891  0.0922 -1.7411
 8398SOL    HW225773   4.529   3.067   3.691 -0.6702 -1.3263 -2.2882
 8399SOL     OW25774   7.027   5.223   9.224  0.0953  0.0100  0.6282
 8399SOL    HW125775   7.021   5.318   9.212 -0.3308  0.0271  0.9595
 8399SOL    HW225776   6.939   5.196   9.250  0.1676 -0.5028  0.3732
 8400SOL     OW25777   4.436   3.494   4.807 -0.1132  0.2997 -0.2806
 8400SOL    HW125778   4.509   3.476   4.747  0.2829  2.8877 -0.7040
 8400SOL    HW225779   4.358   3.469   4.757  0.3758 -1.8870 -0.0688
 8401SOL     OW25780   0.702   8.012   8.824  0.0033  0.4112  0.5107
 8401SOL    HW125781   0.744   7.926   8.834 -0.2719  0.4373  2.1548
 8401SOL    HW225782   0.609   7.995   8.840 -0.0199  1.0524  1.0834
 8402SOL     OW25783   3.855   5.848   4.476 -0.1499  0.4819  0.2913
 8402SOL    HW125784   3.774   5.899   4.476 -0.0582  0.6302 -0.2384
 8402SOL    HW225785   3.852   5.798   4.395  0.9834  1.6017 -0.4869
 8403SOL     OW25786   4.798   3.461   2.373  0.0077  0.3294 -0.4512
 8403SOL    HW125787   4.864   3.501   2.316  1.2256 -0.0710  0.6498
 8403SOL    HW225788   4.772   3.382   2.327  3.4801 -1.8679  0.9813
 8404SOL     OW25789   0.549   7.761   3.074  0.3676  0.2114  0.0486
 8404SOL    HW125790   0.470   7.720   3.039 -0.8286  1.7771  0.8107
 8404SOL    HW225791   0.615   7.749   3.006 -1.4226  1.7428 -2.0799
 8405SOL     OW25792   3.642   3.844   6.713  0.0121 -0.0290 -0.0850
 8405SOL    HW125793   3.600   3.912   6.661  0.5013  0.6351  0.3719
 8405SOL    HW225794   3.572   3.813   6.772 -0.0922  0.3958  0.0174
 8406SOL     OW25795   1.729   6.406   0.468 -0.8364  0.6292  0.1716
 8406SOL    HW125796   1.796   6.453   0.418 -0.8456  1.5969  1.0362
 8406SOL    HW225797   1.774   6.377   0.548 -0.6908 -1.3255 -0.5559
 8407SOL     OW25798   4.667   1.147   1.205  0.0474 -0.0393 -0.0464
 8407SOL    HW125799   4.680   1.066   1.255  0.5822  0.4705  0.6506
 8407SOL    HW225800   4.689   1.123   1.115 -1.0596 -1.0076 -0.0857
 8408SOL     OW25801   8.221   8.884   5.190 -0.4991 -0.0482  0.4858
 8408SOL    HW125802   8.299   8.884   5.133 -0.4007  0.7170  0.6079
 8408SOL    HW225803   8.194   8.792   5.193  0.2995 -0.3015  0.3034
 8409SOL     OW25804   0.262   6.810   2.392 -0.1227 -0.4183  0.4630
 8409SOL    HW125805   0.326   6.841   2.328  0.1328 -0.2350  0.8019
 8409SOL    HW225806   0.179   6.848   2.364  0.2596  0.9402  1.1126
 8410SOL     OW25807   2.566   2.705   8.435  0.6600  0.1864  0.2772
 8410SOL    HW125808   2.635   2.762   8.401  2.3722 -2.4969 -1.0967
 8410SOL    HW225809   2.572   2.713   8.530  2.7677  0.1742  0.1789
 8411SOL     OW25810   5.619   8.786   8.370  0.3334  0.0436 -0.5510
 8411SOL    HW125811   5.524   8.778   8.379  0.6750 -2.5717  4.3806
 8411SOL    HW225812   5.647   8.701   8.334  0.9025 -0.1741  0.3647
 8412SOL     OW25813   0.264   3.962   5.081 -0.0013 -0.4201 -0.0362
 8412SOL    HW125814   0.183   3.955   5.133  0.0244  2.5782  0.5939
 8412SOL    HW225815   0.302   4.045   5.108  2.0669 -0.6007 -2.1203
 8413SOL     OW25816   5.632   7.372   1.199  0.3917 -0.6417 -0.3137
 8413SOL    HW125817   5.616   7.442   1.136 -2.2543 -1.1162 -0.2585
 8413SOL    HW225818   5.587   7.400   1.279  2.8248 -0.5212  1.1157
 8414SOL     OW25819   3.162   2.750   9.373  0.4400 -0.4853  0.1681
 8414SOL    HW125820   3.218   2.804   9.316  2.3172 -1.6558  0.8068
 8414SOL    HW225821   3.171   2.662   9.339 -1.3983 -0.6616  0.0581
 8415SOL     OW25822   9.209   1.220   9.450  0.0626 -0.5015 -0.1530
 8415SOL    HW125823   9.152   1.158   9.497  1.6187 -1.1485  0.9620
 8415SOL    HW225824   9.219   1.293   9.511 -1.6915  0.8951 -1.4254
 8416SOL     OW25825   4.466   4.838   9.707 -0.2224  0.1408 -0.0725
 8416SOL    HW125826   4.520   4.887   9.769  0.6079 -1.0504  0.1879
 8416SOL    HW225827   4.510   4.849   9.622 -1.0490  1.3064 -0.3827
 8417SOL     OW25828   5.259   8.374   6.214  0.2042  0.0103 -0.4662
 8417SOL    HW125829   5.196   8.303   6.206 -1.0698  1.0478  0.0338
 8417SOL    HW225830   5.307   8.373   6.131 -1.0254 -0.2999 -1.1946
 8418SOL     OW25831   5.803   1.023   8.233 -0.1921  0.4672  0.2490
 8418SOL    HW125832   5.729   1.077   8.206 -0.5149  0.2432  0.6611
 8418SOL    HW225833   5.767   0.967   8.302  0.2600  0.0751  0.1702
 8419SOL     OW25834   9.833   4.945   0.423 -0.1114  0.5631  0.2786
 8419SOL    HW125835   9.928   4.932   0.422 -0.2415 -0.6333 -1.3163
 8419SOL    HW225836   9.821   5.034   0.390  0.4472  0.4250 -0.3360
 8420SOL     OW25837   9.684   3.376   9.635 -0.2940  0.2183  0.1245
 8420SOL    HW125838   9.674   3.344   9.725  0.1174  0.2382  0.1806
 8420SOL    HW225839   9.690   3.471   9.645 -2.5679  0.4374 -0.1327
 8421SOL     OW25840   9.276   4.437   1.619  0.0493 -0.0327  0.4369
 8421SOL    HW125841   9.183   4.452   1.637 -0.0195  0.5164 -0.3260
 8421SOL    HW225842   9.291   4.481   1.536  1.1452  0.4166  0.8642
 8422SOL     OW25843   5.717   6.894   8.666 -0.4168 -0.3514  0.2720
 8422SOL    HW125844   5.691   6.823   8.607 -1.9221 -0.9635  1.6117
 8422SOL    HW225845   5.670   6.877   8.747 -0.9881  2.3038  0.5866
 8423SOL     OW25846   6.870   1.992   8.269 -0.0048  0.3264 -0.0044
 8423SOL    HW125847   6.914   2.077   8.261 -0.3774  0.5774  0.5988
 8423SOL    HW225848   6.871   1.973   8.363 -0.1770 -0.2024 -0.1066
 8424SOL     OW25849   2.131   2.540   2.109 -0.9584 -0.4212  0.2141
 8424SOL    HW125850   2.056   2.508   2.159 -0.9031  0.6307  0.9944
 8424SOL    HW225851   2.149   2.626   2.145 -0.5288  0.1122 -1.2217
 8425SOL     OW25852   0.756   4.161   0.901 -0.3286  0.4822  1.3014
 8425SOL    HW125853   0.801   4.217   0.838 -1.0319 -1.1899 -0.8322
 8425SOL    HW225854   0.688   4.217   0.938  0.6364  1.7511  1.2207
 8426SOL     OW25855   6.147   1.224   2.421  0.3526 -0.3814 -0.1641
 8426SOL    HW125856   6.073   1.183   2.376 -1.0664  0.6366  1.1036
 8426SOL    HW225857   6.109   1.302   2.461  2.2615  0.4542  0.1105
 8427SOL     OW25858   7.382   5.032   4.483  0.1574  0.1233 -0.2831
 8427SOL    HW125859   7.337   5.103   4.437 -1.0449  0.0015  0.6557
 8427SOL    HW225860   7.370   5.052   4.576  1.3565 -0.3647 -0.0046
 8428SOL     OW25861   8.251   7.035   5.494 -0.4964 -0.0033 -0.2158
 8428SOL    HW125862   8.176   7.088   5.519 -0.9646 -0.2499 -1.0728
 8428SOL    HW225863   8.250   7.035   5.399  0.9908  0.5530 -0.2610
 8429SOL     OW25864   5.851   8.509   5.496 -0.0406  0.4655 -0.1144
 8429SOL    HW125865   5.771   8.561   5.494  0.8150  2.0829  2.6054
 8429SOL    HW225866   5.912   8.557   5.439 -0.3590  0.4150 -0.4993
 8430SOL     OW25867   6.039   9.682   4.853 -0.2777  0.1431  0.1392
 8430SOL    HW125868   6.034   9.589   4.832 -1.3632  0.6247 -1.9467
 8430SOL    HW225869   6.132   9.704   4.842 -0.1146 -0.5504  0.0709
 8431SOL     OW25870   1.922   8.163   4.984 -0.6446  0.1889  0.0576
 8431SOL    HW125871   1.871   8.178   5.064  1.5443 -2.7888  2.2707
 8431SOL    HW225872   2.010   8.194   5.007 -0.1509  0.0689 -1.5644
 8432SOL     OW25873   4.561   8.624   7.055 -0.4938  0.4034 -0.3096
 8432SOL    HW125874   4.606   8.650   7.136 -1.6521 -0.1745  0.5595
 8432SOL    HW225875   4.623   8.645   6.985  1.8493 -1.8585  0.9132
 8433SOL     OW25876   4.886   4.269   2.093  0.4103  0.5121 -0.1681
 8433SOL    HW125877   4.825   4.206   2.054 -1.6415  1.5929  1.1233
 8433SOL    HW225878   4.952   4.215   2.136  0.1361 -0.7143 -1.2191
 8434SOL     OW25879   4.977   1.700   9.572  0.0076 -0.0268 -0.2892
 8434SOL    HW125880   5.050   1.742   9.526  0.0163 -1.0821 -1.2803
 8434SOL    HW225881   4.983   1.733   9.662 -0.2152  2.3557 -1.0967
 8435SOL     OW25882   5.150   2.490   4.118 -0.2078 -0.3270 -0.1179
 8435SOL    HW125883   5.178   2.559   4.058  1.7650  0.0883  1.1630
 8435SOL    HW225884   5.078   2.529   4.167 -1.3773 -0.4341 -1.6989
 8436SOL     OW25885   7.219   3.233   6.982 -0.2425  0.0985  0.1188
 8436SOL    HW125886   7.220   3.178   7.061  1.6129  1.5044  1.1806
 8436SOL    HW225887   7.310   3.231   6.951 -0.8842 -0.2047 -1.8652
 8437SOL     OW25888   6.403   1.541   5.301 -0.6901  0.2096  0.2773
 8437SOL    HW125889   6.425   1.488   5.224  0.4986  0.2900  0.5450
 8437SOL    HW225890   6.312   1.568   5.286 -0.8849 -0.7994 -0.4965
 8438SOL     OW25891   1.694   3.589   4.432  0.0361 -0.4389 -0.5439
 8438SOL    HW125892   1.737   3.652   4.489  0.4671 -1.1476 -0.0658
 8438SOL    HW225893   1.646   3.642   4.368  0.4450  0.3598 -0.1940
 8439SOL     OW25894   1.060   7.957   0.224 -0.4696 -0.0613 -0.4006
 8439SOL    HW125895   0.972   7.992   0.214 -1.4729 -2.5635 -1.0918
 8439SOL    HW225896   1.109   7.994   0.152 -1.0325  1.1009 -0.2063
 8440SOL     OW25897   0.592   9.775   4.378  0.0354 -0.0130  0.1716
 8440SOL    HW125898   0.513   9.767   4.324  0.6918 -1.9101 -0.5971
 8440SOL    HW225899   0.592   9.866   4.407 -1.4122  0.5390 -1.3940
 8441SOL     OW25900   7.675   9.244   9.058 -0.2545  0.0155  0.2784
 8441SOL    HW125901   7.682   9.154   9.089 -0.3860 -0.1521 -0.1671
 8441SOL    HW225902   7.689   9.298   9.136  0.2370 -0.3831  0.4735
 8442SOL     OW25903   6.182   4.413   7.495  0.1011 -0.7991 -0.3167
 8442SOL    HW125904   6.201   4.489   7.440 -1.2751 -0.5563 -0.4980
 8442SOL    HW225905   6.166   4.342   7.434 -3.4913 -0.0668 -0.4718
 8443SOL     OW25906   1.159   5.571   5.470  0.0812  0.5244  0.6034
 8443SOL    HW125907   1.079   5.621   5.487 -0.2600  0.4808 -0.8014
 8443SOL    HW225908   1.129   5.491   5.426  0.6331 -0.8727  2.5939
 8444SOL     OW25909   8.460   6.742   6.789  0.0836  0.4328  0.0499
 8444SOL    HW125910   8.377   6.747   6.741  1.2593  1.2637 -2.0178
 8444SOL    HW225911   8.522   6.793   6.736  1.9197 -0.1278  1.5453
 8445SOL     OW25912   9.755   1.952   1.618  0.0917 -0.1191 -0.4967
 8445SOL    HW125913   9.691   2.011   1.578  0.5415  1.4357  0.9456
 8445SOL    HW225914   9.834   2.006   1.628  1.1221 -1.5122 -0.7544
 8446SOL     OW25915   0.093   3.558   7.094 -0.2054  0.1854  0.0590
 8446SOL    HW125916   0.070   3.563   7.001 -0.1403  2.1343  0.0962
 8446SOL    HW225917   0.055   3.476   7.124 -1.9220  0.4334 -1.2538
 8447SOL     OW25918   4.412   4.628   6.012 -0.2294  0.3813  0.0236
 8447SOL    HW125919   4.343   4.566   6.036  0.7942  0.1193  2.6390
 8447SOL    HW225920   4.368   4.713   6.010 -0.4521  0.4715  3.3445
 8448SOL     OW25921   1.252   2.103   1.795 -0.4535 -0.0644 -0.6824
 8448SOL    HW125922   1.278   2.195   1.789  1.8375 -0.6711 -1.1550
 8448SOL    HW225923   1.254   2.072   1.704 -0.2250 -0.8171 -0.4240
 8449SOL     OW25924   1.580   4.868   7.366  0.3710 -0.6691  0.0868
 8449SOL    HW125925   1.588   4.949   7.417  1.5060 -1.8054  1.8256
 8449SOL    HW225926   1.487   4.844   7.375  0.2863 -0.1846  0.5862
 8450SOL     OW25927   5.885   9.872   1.610  0.0314 -0.1406  0.0323
 8450SOL    HW125928   5.871   9.843   1.520 -2.1253  1.1254 -0.1001
 8450SOL    HW225929   5.974   9.842   1.631 -0.6171 -3.4395 -1.3221
 8451SOL     OW25930   1.857   9.019   0.462  0.0203  0.5145 -0.2134
 8451SOL    HW125931   1.794   9.026   0.534  0.5728  1.8692  0.1840
 8451SOL    HW225932   1.922   8.956   0.494 -1.5587 -1.6042 -1.0049
 8452SOL     OW25933   0.083   8.720   4.572  0.4651 -0.6723  0.3109
 8452SOL    HW125934   0.104   8.812   4.559 -0.0235 -0.4857  0.7979
 8452SOL    HW225935   0.153   8.688   4.629 -0.0729 -0.2691  1.2200
 8453SOL     OW25936   6.573   1.736   4.771  0.2409  0.0617 -0.2055
 8453SOL    HW125937   6.498   1.795   4.783  0.7667  0.7040 -0.0283
 8453SOL    HW225938   6.550   1.684   4.694 -0.4098  0.2219 -0.1260
 8454SOL     OW25939   6.260   1.944   0.524 -0.3317  0.2688 -0.1061
 8454SOL    HW125940   6.260   1.859   0.569 -0.2219  0.9774  1.3100
 8454SOL    HW225941   6.179   1.987   0.554  0.3267  1.2220  0.3690
 8455SOL     OW25942   3.261   5.316   9.322 -0.2031 -0.2739 -0.0614
 8455SOL    HW125943   3.226   5.265   9.249 -0.6355 -1.8437  1.1688
 8455SOL    HW225944   3.189   5.374   9.348 -0.0026  0.3810 -0.9388
 8456SOL     OW25945   8.764   1.473   3.192 -0.5269  0.2659  0.0871
 8456SOL    HW125946   8.713   1.424   3.257 -0.7241  0.9390  0.4641
 8456SOL    HW225947   8.799   1.547   3.242 -1.7122  1.4958 -0.8102
 8457SOL     OW25948   0.669   4.207   5.212  0.1364 -0.3199 -0.0761
 8457SOL    HW125949   0.712   4.253   5.284  0.5264 -0.1665 -0.3976
 8457SOL    HW225950   0.590   4.170   5.250  0.0343  0.2654  0.2879
 8458SOL     OW25951   0.189   9.951   7.804 -0.5072  0.3595  0.0631
 8458SOL    HW125952   0.232   9.874   7.842 -0.5128  0.5803  0.5253
 8458SOL    HW225953   0.223   9.955   7.714 -1.2505 -0.7398 -0.2874
 8459SOL     OW25954   3.535   4.442   8.330 -0.6783 -0.1501  0.2347
 8459SOL    HW125955   3.507   4.390   8.405 -2.1373  0.8838  0.4425
 8459SOL    HW225956   3.559   4.377   8.264 -0.4670 -1.0748  1.1816
 8460SOL     OW25957   0.474   3.564   2.484  0.2906 -0.3761 -0.4592
 8460SOL    HW125958   0.441   3.651   2.463  0.2631 -0.5818 -1.3082
 8460SOL    HW225959   0.493   3.524   2.399 -0.0305 -1.3321 -0.0938
 8461SOL     OW25960   6.360   8.358   0.960  0.2052 -0.9763  0.3447
 8461SOL    HW125961   6.451   8.378   0.940  0.2154 -0.4016  0.9247
 8461SOL    HW225962   6.322   8.331   0.876  0.2150  1.4855 -0.5467
 8462SOL     OW25963   6.962   6.561   3.784 -0.5617  0.0110 -0.0386
 8462SOL    HW125964   6.987   6.652   3.801  0.6924 -0.2964 -0.1281
 8462SOL    HW225965   6.948   6.557   3.689  1.2413 -0.2882 -0.3290
 8463SOL     OW25966   9.942   1.626   5.995 -0.2043  0.2177  0.0049
 8463SOL    HW125967  10.035   1.605   6.002 -0.0682  0.9620  0.5931
 8463SOL    HW225968   9.937   1.719   6.018 -1.0793  0.2153 -0.1430
 8464SOL     OW25969   6.065   9.443   5.076  0.3465  0.6779  0.3280
 8464SOL    HW125970   6.089   9.467   5.165 -0.0479 -1.9096  1.2354
 8464SOL    HW225971   5.979   9.482   5.063  0.8356  1.9051  0.6906
 8465SOL     OW25972   8.790   9.050   2.962  0.1460 -0.2008 -0.6146
 8465SOL    HW125973   8.797   9.141   2.990 -1.6739  0.3288 -1.7208
 8465SOL    HW225974   8.874   9.011   2.986  2.1134  2.4654 -2.6358
 8466SOL     OW25975   9.947   7.163   5.352  0.2837 -0.6512  0.8536
 8466SOL    HW125976  10.006   7.224   5.307  0.3619 -1.8330 -0.7064
 8466SOL    HW225977   9.940   7.199   5.441 -0.6824  2.3393 -0.3015
 8467SOL     OW25978   7.956   7.339   7.007 -0.5544 -0.2598 -0.0581
 8467SOL    HW125979   8.008   7.272   6.964  0.8081  0.2793  0.6879
 8467SOL    HW225980   7.897   7.290   7.064 -1.3092 -0.9058 -1.3425
 8468SOL     OW25981   0.984   0.345   2.329 -0.1464 -0.0524 -0.0799
 8468SOL    HW125982   1.036   0.319   2.405  0.9966  0.0599 -0.8071
 8468SOL    HW225983   1.039   0.324   2.254 -1.2330 -0.0941 -0.8842
 8469SOL     OW25984   2.372   7.271   8.691  0.1005 -0.3704  0.1292
 8469SOL    HW125985   2.461   7.304   8.677  0.0250  0.3216  1.1965
 8469SOL    HW225986   2.384   7.179   8.715  0.3906 -0.8175 -1.6409
 8470SOL     OW25987   9.667   5.538   6.194  0.0113  0.3697 -0.1194
 8470SOL    HW125988   9.601   5.511   6.257 -1.0035  2.4658 -0.1925
 8470SOL    HW225989   9.747   5.548   6.246  0.2285 -1.8530  0.0309
 8471SOL     OW25990   7.797   9.341   1.333  0.4444  0.1137  0.0969
 8471SOL    HW125991   7.835   9.374   1.252  0.8306  2.6555  1.2308
 8471SOL    HW225992   7.870   9.304   1.382  0.7759  1.3993  0.5888
 8472SOL     OW25993   7.019   1.650   3.391  0.0010  0.0840  1.0077
 8472SOL    HW125994   7.017   1.745   3.384  0.4996  0.0862  0.8346
 8472SOL    HW225995   7.101   1.624   3.348  0.2999 -0.3469  1.7955
 8473SOL     OW25996   1.346   5.087   9.869 -0.8086  0.0040  0.1058
 8473SOL    HW125997   1.367   4.995   9.885 -1.7698 -0.1685  0.4346
 8473SOL    HW225998   1.301   5.116   9.948 -0.8082  0.6737 -0.1267
 8474SOL     OW25999   4.177   4.270   0.360 -0.1684  0.1578  0.0613
 8474SOL    HW126000   4.178   4.178   0.384  2.2481 -0.1472 -0.9260
 8474SOL    HW226001   4.156   4.316   0.441  0.0016 -1.1826  0.8859
 8475SOL     OW26002   2.542   9.459   8.504 -0.2067 -0.0491  0.0294
 8475SOL    HW126003   2.447   9.452   8.503 -0.1879 -0.3940 -1.3536
 8475SOL    HW226004   2.568   9.453   8.412  0.9758  2.5933  0.1173
 8476SOL     OW26005   0.734   7.479   7.561  0.0998  0.5275  0.5051
 8476SOL    HW126006   0.706   7.388   7.572  0.8168  0.2097 -0.1709
 8476SOL    HW226007   0.826   7.478   7.586 -0.1410  1.2775  1.4388
 8477SOL     OW26008   5.139   1.682   6.443 -0.1373 -0.0484  0.3213
 8477SOL    HW126009   5.164   1.593   6.417 -0.1792  0.0598 -0.1095
 8477SOL    HW226010   5.050   1.672   6.478 -0.0194 -0.2248  0.5718
 8478SOL     OW26011   6.232   4.948   2.881  0.3734  0.5411 -0.7997
 8478SOL    HW126012   6.171   4.919   2.813  0.1720 -0.1761 -0.3338
 8478SOL    HW226013   6.177   4.996   2.944 -0.0269 -1.3560  0.3752
 8479SOL     OW26014   3.144   6.918   2.525  0.1639  0.0874  0.7227
 8479SOL    HW126015   3.108   6.902   2.438  1.1727 -1.1397  0.5054
 8479SOL    HW226016   3.228   6.961   2.509  0.8118 -1.0273  1.0257
 8480SOL     OW26017   6.688   9.362   2.933 -0.2740  0.3636 -0.2369
 8480SOL    HW126018   6.751   9.430   2.959  1.3464 -0.9263 -0.5668
 8480SOL    HW226019   6.603   9.406   2.933  0.4862  1.9501  1.1950
 8481SOL     OW26020   9.122   8.449   4.282 -0.4557 -0.0878  0.9237
 8481SOL    HW126021   9.093   8.509   4.350 -2.9332 -2.2103  1.9523
 8481SOL    HW226022   9.057   8.460   4.212 -0.2360 -0.6813  0.6233
 8482SOL     OW26023   6.546   5.486   8.889  0.1831 -0.0759  0.1540
 8482SOL    HW126024   6.499   5.451   8.813  1.7424 -0.1798 -0.7911
 8482SOL    HW226025   6.481   5.542   8.933 -0.8843 -0.3756 -0.9769
 8483SOL     OW26026   3.734   0.142   3.874 -0.1219  0.2702 -0.4441
 8483SOL    HW126027   3.761   0.228   3.843  0.5654  0.1312 -0.2403
 8483SOL    HW226028   3.710   0.094   3.794  1.0404  0.1227 -0.7208
 8484SOL     OW26029   7.901   8.260   0.876  0.0509 -0.4619  0.6481
 8484SOL    HW126030   7.982   8.246   0.828 -0.1472 -1.0484  0.4733
 8484SOL    HW226031   7.905   8.351   0.906 -0.5451  0.4308 -1.8132
 8485SOL     OW26032   5.627   2.032   7.021  0.1579 -0.5111 -0.0793
 8485SOL    HW126033   5.681   2.097   6.976 -1.5974  0.8862 -0.2625
 8485SOL    HW226034   5.613   2.069   7.108  0.2563 -1.3031  0.2798
 8486SOL     OW26035   1.278   6.983   0.910 -0.0476  0.0041  0.7529
 8486SOL    HW126036   1.329   6.922   0.857  0.3227  0.7976  0.1854
 8486SOL    HW226037   1.268   7.061   0.855 -1.2577  0.1366  1.1291
 8487SOL     OW26038   4.717   2.166   7.891 -0.0021 -0.2210 -0.0448
 8487SOL    HW126039   4.729   2.175   7.797 -0.5675 -0.6391 -0.1554
 8487SOL    HW226040   4.806   2.158   7.925  0.2395  0.4938 -0.4772
 8488SOL     OW26041   7.502   6.595   0.331 -0.1282 -0.7769  0.4598
 8488SOL    HW126042   7.426   6.603   0.388 -1.4617  1.7195 -1.4635
 8488SOL    HW226043   7.577   6.604   0.389 -1.3937  1.7522  1.8891
 8489SOL     OW26044   7.660   4.575   8.941 -0.1225 -0.4302  0.0879
 8489SOL    HW126045   7.687   4.533   8.860  0.1862 -0.2647  0.1011
 8489SOL    HW226046   7.618   4.506   8.992  0.0277 -0.6273 -0.0539
 8490SOL     OW26047   1.819   4.014   0.545 -0.4549  0.5033 -0.1285
 8490SOL    HW126048   1.790   3.927   0.517 -0.5879  0.2415  0.7814
 8490SOL    HW226049   1.876   4.044   0.475  0.1887 -0.6292 -0.1173
 8491SOL     OW26050   0.320   7.511   0.270 -0.1271  0.3445  0.8175
 8491SOL    HW126051   0.249   7.460   0.310 -0.8021  0.3706 -0.3122
 8491SOL    HW226052   0.374   7.446   0.225  0.0969  0.4226  0.9714
 8492SOL     OW26053   0.985   8.238   8.587 -0.2574 -0.2479  0.8978
 8492SOL    HW126054   1.055   8.177   8.611 -0.3675  0.2617  2.7070
 8492SOL    HW226055   0.923   8.185   8.537  0.8266 -1.0014  0.3136
 8493SOL     OW26056   9.821   3.703   4.919  0.0592  0.2669  0.4166
 8493SOL    HW126057   9.858   3.615   4.912  1.6674  0.6423  3.0538
 8493SOL    HW226058   9.767   3.712   4.840  2.6357 -1.7348 -1.7714
 8494SOL     OW26059   5.790   4.406   4.098  0.0951 -0.1665  0.1407
 8494SOL    HW126060   5.771   4.359   4.180 -0.5238 -0.3535 -0.1055
 8494SOL    HW226061   5.881   4.383   4.079 -0.6990 -2.7646 -0.9146
 8495SOL     OW26062   9.561   3.453   6.393 -0.6116 -0.0014  0.0988
 8495SOL    HW126063   9.530   3.387   6.455 -0.3944 -1.5705 -1.4048
 8495SOL    HW226064   9.509   3.531   6.413 -2.9183 -1.4645  0.0679
 8496SOL     OW26065   4.254   9.172   2.767 -0.6048  0.0099  0.1172
 8496SOL    HW126066   4.168   9.213   2.769 -0.9921 -0.6818 -1.1665
 8496SOL    HW226067   4.316   9.244   2.762 -1.1403  0.4923  0.3960
 8497SOL     OW26068   9.661   6.600   4.369  0.1245  0.4012 -0.1454
 8497SOL    HW126069   9.649   6.505   4.363 -0.4101  0.5096 -1.0962
 8497SOL    HW226070   9.691   6.615   4.458 -0.2017 -0.6190  0.1526
 8498SOL     OW26071   5.716   7.416   6.366  0.3916  0.5141  0.0651
 8498SOL    HW126072   5.781   7.348   6.349  0.0750 -0.4245  2.3126
 8498SOL    HW226073   5.768   7.493   6.388  0.7320  0.6217 -1.0353
 8499SOL     OW26074   1.732   0.939   3.256 -0.0814  0.1964  0.4960
 8499SOL    HW126075   1.797   0.917   3.323 -0.3589  1.2599  1.1390
 8499SOL    HW226076   1.653   0.894   3.285 -0.0349  0.1396  0.5370
 8500SOL     OW26077   3.322   0.457   7.201  0.0419  0.1687 -0.4897
 8500SOL    HW126078   3.305   0.380   7.256  0.2819 -0.0015 -0.6479
 8500SOL    HW226079   3.237   0.480   7.164 -0.0973  0.1997 -0.1555
 8501SOL     OW26080   3.631   4.296   1.332 -0.5616  0.6897  0.6237
 8501SOL    HW126081   3.618   4.264   1.243  0.5066  0.9487  0.3545
 8501SOL    HW226082   3.722   4.274   1.352 -0.2888  2.0996  1.0342
 8502SOL     OW26083   8.632   4.214   1.797  0.4440  0.2501 -0.4093
 8502SOL    HW126084   8.558   4.166   1.833  1.0625 -0.5046 -0.1194
 8502SOL    HW226085   8.621   4.303   1.831  0.7553 -0.3279  1.3191
 8503SOL     OW26086   7.429   2.782   7.539  0.4511 -0.3496  0.0806
 8503SOL    HW126087   7.386   2.780   7.625  1.8055  0.7431  0.8216
 8503SOL    HW226088   7.497   2.849   7.548  0.5196 -0.0995 -1.9034
 8504SOL     OW26089   6.004   4.631   8.366 -0.1340 -0.5948  0.0092
 8504SOL    HW126090   6.092   4.661   8.388 -0.2998  0.1620 -0.3084
 8504SOL    HW226091   6.015   4.540   8.341  0.7493 -0.2030 -1.1230
 8505SOL     OW26092   4.459   1.544   4.987  0.8087  0.1972  0.0422
 8505SOL    HW126093   4.515   1.619   4.967  1.9516 -0.4970  0.5878
 8505SOL    HW226094   4.471   1.485   4.913  0.4192  0.2500 -0.0663
 8506SOL     OW26095   8.205   7.658   4.105 -0.3420 -0.7548  0.0685
 8506SOL    HW126096   8.202   7.735   4.048 -2.1389 -1.9351 -1.5928
 8506SOL    HW226097   8.298   7.637   4.113  0.0200 -1.6596 -4.2166
 8507SOL     OW26098   2.777   2.934   1.409 -0.5852 -0.2275 -0.1504
 8507SOL    HW126099   2.846   2.899   1.352  0.0272 -1.0029  1.0359
 8507SOL    HW226100   2.735   2.856   1.446  0.4880  0.2145  2.1718
 8508SOL     OW26101   9.241   0.606   4.553  0.1212  0.1145 -0.4159
 8508SOL    HW126102   9.323   0.636   4.593 -0.1501 -1.5301  1.5544
 8508SOL    HW226103   9.226   0.667   4.481  1.6815  2.1043  0.8145
 8509SOL     OW26104   4.335   1.834   2.564  0.1568  0.0784  0.0268
 8509SOL    HW126105   4.270   1.770   2.534  0.9868 -0.5250 -0.5321
 8509SOL    HW226106   4.383   1.789   2.632  0.3292  0.3433  0.0816
 8510SOL     OW26107   3.351   1.686   2.725 -0.4099  0.6152 -0.0096
 8510SOL    HW126108   3.268   1.721   2.758 -0.2099 -0.2325  1.4635
 8510SOL    HW226109   3.418   1.726   2.781  0.1769  1.0568 -0.9960
 8511SOL     OW26110   5.192   4.586   7.947  0.0825 -0.5413 -0.1788
 8511SOL    HW126111   5.256   4.642   7.902 -0.8069 -0.1110 -0.9297
 8511SOL    HW226112   5.138   4.647   7.998  0.0693 -0.8742  0.2096
 8512SOL     OW26113   1.252   5.898   6.455 -0.0637 -0.5139  0.3139
 8512SOL    HW126114   1.318   5.947   6.407 -0.8189  0.7254  0.4861
 8512SOL    HW226115   1.289   5.887   6.543  0.6826 -1.4749 -0.1062
 8513SOL     OW26116   9.313   1.733   6.820  0.1282 -0.0173  1.0782
 8513SOL    HW126117   9.364   1.669   6.870 -0.3111 -0.5062  0.9046
 8513SOL    HW226118   9.264   1.680   6.756 -0.2189  0.4945  0.9184
 8514SOL     OW26119   4.298   5.962   7.240  0.3212  0.4672  0.1762
 8514SOL    HW126120   4.207   5.974   7.212  0.5730  1.3447 -0.2866
 8514SOL    HW226121   4.328   5.885   7.192 -0.0773  0.3610  0.0947
 8515SOL     OW26122   1.793   4.846   3.465 -0.2082 -0.3393 -0.3302
 8515SOL    HW126123   1.771   4.807   3.550 -0.7906  0.6456 -0.0136
 8515SOL    HW226124   1.718   4.902   3.445  0.6294  0.6400 -0.7577
 8516SOL     OW26125   5.222   5.778   8.930 -0.2182 -0.5235 -0.7358
 8516SOL    HW126126   5.253   5.865   8.905 -2.3306 -0.1471 -2.3969
 8516SOL    HW226127   5.288   5.745   8.991  1.1252  1.8429 -0.7930
 8517SOL     OW26128   7.455   9.027   1.705  0.3750 -0.3756  0.3003
 8517SOL    HW126129   7.383   9.055   1.762  0.6917  2.5404 -0.5488
 8517SOL    HW226130   7.412   8.983   1.632 -0.5624  0.9587  0.0128
 8518SOL     OW26131   4.901   1.191   5.171  0.0520 -0.6674 -0.0811
 8518SOL    HW126132   4.956   1.142   5.233  1.3155 -0.2050 -0.7990
 8518SOL    HW226133   4.916   1.149   5.087 -1.9696 -1.5417 -0.0692
 8519SOL     OW26134   1.050   0.267   1.426 -0.3257 -0.1243  0.3183
 8519SOL    HW126135   1.041   0.353   1.384 -2.8829 -1.1768 -1.5756
 8519SOL    HW226136   0.960   0.244   1.451  0.1445 -2.6132 -0.0460
 8520SOL     OW26137   1.352   0.362   1.464 -0.3221 -0.2581 -0.0319
 8520SOL    HW126138   1.313   0.334   1.382 -3.4031  2.0238  0.4593
 8520SOL    HW226139   1.296   0.325   1.532 -0.2207  1.0903  0.8405
 8521SOL     OW26140   2.137   6.242   0.910  0.7113  0.0542 -0.4094
 8521SOL    HW126141   2.157   6.243   1.004 -0.2824 -0.3203 -0.1850
 8521SOL    HW226142   2.205   6.297   0.870  1.1055  0.2630  0.5326
 8522SOL     OW26143   3.690   0.953  10.012 -0.1239  0.1239  0.3569
 8522SOL    HW126144   3.644   0.981   9.933 -0.2410  0.3201  0.4939
 8522SOL    HW226145   3.743   0.878   9.984  0.0362  0.3568  0.0350
 8523SOL     OW26146   0.036   0.278   5.844  0.2022 -0.1133 -0.2694
 8523SOL    HW126147   0.002   0.287   5.755 -1.1083 -1.2315  0.0845
 8523SOL    HW226148  -0.036   0.305   5.900  0.4921 -0.8567  0.4841
 8524SOL     OW26149   3.065   3.985   7.736  0.4595  0.5815  0.0652
 8524SOL    HW126150   3.036   3.896   7.714  0.1569  0.5241  0.6621
 8524SOL    HW226151   3.153   3.974   7.771 -0.6328  0.0906  2.9930
 8525SOL     OW26152   6.368   4.147   6.314 -0.1583 -0.2221  0.3070
 8525SOL    HW126153   6.446   4.137   6.259 -0.6531 -2.3624 -0.0918
 8525SOL    HW226154   6.341   4.237   6.300  2.8413  0.9759  1.3396
 8526SOL     OW26155   3.887   0.971   3.110 -0.2711 -0.8425 -0.6119
 8526SOL    HW126156   3.964   1.001   3.062  0.3364 -2.4262 -0.7016
 8526SOL    HW226157   3.857   1.047   3.159  1.8982 -0.3865  0.1186
 8527SOL     OW26158   5.407   2.375   4.138 -0.2518  0.2466  0.0124
 8527SOL    HW126159   5.470   2.443   4.160  0.1696  0.2723 -1.2139
 8527SOL    HW226160   5.324   2.408   4.173 -0.0224  1.3221 -0.3919
 8528SOL     OW26161   1.411   6.328   2.511  0.1638  0.3102  0.5465
 8528SOL    HW126162   1.465   6.294   2.582  2.0260  1.2829 -0.3409
 8528SOL    HW226163   1.384   6.415   2.541  0.3721  0.4425  0.3506
 8529SOL     OW26164   6.199   7.885   5.086 -0.6896  0.1178  0.3214
 8529SOL    HW126165   6.285   7.844   5.080 -0.2266  1.1816 -0.6908
 8529SOL    HW226166   6.213   7.975   5.055 -1.2601  1.7228  4.1940
 8530SOL     OW26167   0.930   1.679   9.134 -0.8142  0.6595  0.5668
 8530SOL    HW126168   0.869   1.617   9.094  0.4052 -0.8189  0.8940
 8530SOL    HW226169   0.950   1.641   9.220  0.5498  1.0926  0.4672
 8531SOL     OW26170   6.837   4.309   5.925 -0.6201 -0.3165  0.5547
 8531SOL    HW126171   6.805   4.271   5.843 -0.8157 -0.1848  0.5709
 8531SOL    HW226172   6.811   4.401   5.921 -0.5337 -0.2842  0.7155
 8532SOL     OW26173   3.562   1.743   0.268 -0.5876 -0.0323  0.1474
 8532SOL    HW126174   3.622   1.740   0.194  0.3038 -0.6443  0.8703
 8532SOL    HW226175   3.619   1.734   0.345 -1.6092 -0.7075  0.8476
 8533SOL     OW26176   1.788   2.796   1.802 -0.4693  0.4605  0.2476
 8533SOL    HW126177   1.712   2.853   1.810 -0.2733  0.8160 -0.4165
 8533SOL    HW226178   1.840   2.815   1.881 -1.2895 -0.1338  0.9491
 8534SOL     OW26179   7.938   7.633   3.061  0.1102 -0.3842 -0.0595
 8534SOL    HW126180   7.936   7.613   3.154  0.0236 -0.7528 -0.1373
 8534SOL    HW226181   7.886   7.563   3.021  2.3180 -1.7794 -0.6706
 8535SOL     OW26182   2.246   1.691   3.350  0.3751 -0.1831  0.5498
 8535SOL    HW126183   2.325   1.725   3.392  1.5062 -1.8121 -0.1743
 8535SOL    HW226184   2.265   1.694   3.256  0.2184 -2.0143  0.4207
 8536SOL     OW26185   5.573   6.077   6.810  0.0380 -0.1124  0.4254
 8536SOL    HW126186   5.661   6.041   6.822  0.5011  0.9891  0.4622
 8536SOL    HW226187   5.573   6.107   6.719 -1.1048 -2.1809 -0.3238
 8537SOL     OW26188   0.754   3.540   0.260  0.0614 -0.2391 -0.0209
 8537SOL    HW126189   0.732   3.447   0.267  1.4105 -0.6305 -0.6958
 8537SOL    HW226190   0.701   3.572   0.187  0.5698 -0.8021 -0.6458
 8538SOL     OW26191   4.444   6.645   6.845 -0.1977  0.3149 -0.0309
 8538SOL    HW126192   4.352   6.624   6.864  0.5135 -2.5459  0.6646
 8538SOL    HW226193   4.460   6.727   6.892 -2.0065  0.1210  1.0144
 8539SOL     OW26194   9.042   1.516   2.925  0.1219  0.1163 -0.5116
 8539SOL    HW126195   8.957   1.558   2.941  0.1209  0.7452 -1.9762
 8539SOL    HW226196   9.072   1.554   2.842  1.9727  0.1082  0.1172
 8540SOL     OW26197   2.007   1.306   6.987  0.0749  0.4331 -0.0926
 8540SOL    HW126198   2.093   1.336   6.959  0.1784  0.0666 -0.1751
 8540SOL    HW226199   2.023   1.219   7.025 -0.0818  0.8651  0.9918
 8541SOL     OW26200   8.840   4.640   5.574  0.8185 -0.5864  0.5304
 8541SOL    HW126201   8.897   4.684   5.511  0.5746  1.9846  1.9394
 8541SOL    HW226202   8.865   4.677   5.658 -2.1665 -0.1180  1.3333
 8542SOL     OW26203   4.350   5.971   7.552 -0.4278 -0.0197  0.3169
 8542SOL    HW126204   4.407   5.898   7.576 -0.9990 -0.6233 -0.1183
 8542SOL    HW226205   4.364   5.983   7.458  0.1346  0.8601  0.4977
 8543SOL     OW26206   4.356   4.408   5.309 -0.7821  0.2201 -0.4046
 8543SOL    HW126207   4.431   4.407   5.369 -0.1149 -0.2115 -1.2289
 8543SOL    HW226208   4.284   4.443   5.362 -0.1510  0.0893  0.5732
 8544SOL     OW26209   2.944   2.830   5.921 -0.0630 -0.0579  0.6492
 8544SOL    HW126210   2.916   2.755   5.974 -2.6093  0.6676  0.4857
 8544SOL    HW226211   2.877   2.897   5.937  0.8984  1.3827 -0.9492
 8545SOL     OW26212   4.056   5.371   3.537 -0.1818 -0.2726  0.1341
 8545SOL    HW126213   3.980   5.354   3.594 -0.7980 -0.8565 -0.8338
 8545SOL    HW226214   4.095   5.285   3.524 -1.1799 -0.4851 -1.8501
 8546SOL     OW26215   6.480   3.993   6.531  0.1950  0.7885 -0.1717
 8546SOL    HW126216   6.436   4.000   6.446 -0.7029  0.5543  0.2620
 8546SOL    HW226217   6.450   4.070   6.580  0.7990  0.9853 -0.1057
 8547SOL     OW26218   2.298   5.409   5.670  0.5338  0.0546 -0.2957
 8547SOL    HW126219   2.309   5.462   5.749  0.0659 -1.9356  1.1669
 8547SOL    HW226220   2.387   5.380   5.649  0.7280  0.9810 -0.8360
 8548SOL     OW26221   8.810   1.951   2.558  0.4272 -0.2342 -0.1463
 8548SOL    HW126222   8.717   1.939   2.539  0.0201 -1.1445  2.0969
 8548SOL    HW226223   8.851   1.869   2.531  0.4826 -0.0611 -0.5901
 8549SOL     OW26224   5.733   7.840   8.948  0.2873 -0.5716 -0.1023
 8549SOL    HW126225   5.746   7.774   8.879  0.7621  0.5873 -1.1704
 8549SOL    HW226226   5.642   7.867   8.939  0.7808  0.8041 -1.4722
 8550SOL     OW26227   3.461   5.742   1.810  0.1669 -0.2565 -0.0826
 8550SOL    HW126228   3.486   5.754   1.901 -1.4118  0.5808  0.2811
 8550SOL    HW226229   3.524   5.794   1.760  0.4052  0.1389  0.6289
 8551SOL     OW26230   2.848   9.481   0.116  0.2836  0.0675 -0.0663
 8551SOL    HW126231   2.841   9.549   0.183  0.0644  0.2221 -0.2459
 8551SOL    HW226232   2.766   9.485   0.068  0.6978  0.3911 -0.7669
 8552SOL     OW26233   9.978   2.345   9.035  0.2348 -0.1513 -0.0511
 8552SOL    HW126234   9.911   2.378   9.095  1.0657  1.2561  0.1402
 8552SOL    HW226235   9.948   2.372   8.948  0.9643  1.2597  0.1143
 8553SOL     OW26236   2.313   4.472   0.530  0.1967 -0.0865 -0.8567
 8553SOL    HW126237   2.325   4.555   0.575  0.3074  0.4070 -1.7832
 8553SOL    HW226238   2.383   4.469   0.466  1.2112 -1.6513  0.2445
 8554SOL     OW26239   2.579   6.822   3.579 -0.1417 -0.3139 -0.3444
 8554SOL    HW126240   2.668   6.791   3.596 -0.6198 -1.4923  0.0995
 8554SOL    HW226241   2.574   6.907   3.623  1.0513  0.2156 -1.1909
 8555SOL     OW26242   3.147   7.112   1.489 -0.6904 -0.2911  0.3750
 8555SOL    HW126243   3.226   7.155   1.456 -1.2723  0.0983 -0.5582
 8555SOL    HW226244   3.076   7.172   1.465 -1.5361 -1.7904 -1.0252
 8556SOL     OW26245   6.807   5.184   4.227 -0.0382 -0.3135 -0.8252
 8556SOL    HW126246   6.880   5.140   4.183 -0.5229 -2.1915  0.1253
 8556SOL    HW226247   6.739   5.117   4.233 -0.7521  0.4992  0.8854
 8557SOL     OW26248   0.305   8.100   6.958 -0.3152 -0.1647 -0.3838
 8557SOL    HW126249   0.372   8.167   6.944 -1.7342  1.0323 -1.8652
 8557SOL    HW226250   0.354   8.018   6.967  1.4536  0.9925  1.1938
 8558SOL     OW26251   7.957   1.141   2.463 -0.1771  0.5449 -0.6027
 8558SOL    HW126252   8.012   1.213   2.493  0.2354 -0.0140  0.0160
 8558SOL    HW226253   7.934   1.093   2.543 -1.7935  0.9163 -0.8168
 8559SOL     OW26254   5.067   5.473   1.350  0.0459  0.0063 -0.3792
 8559SOL    HW126255   5.081   5.403   1.286  1.3606 -0.4920  0.4242
 8559SOL    HW226256   5.127   5.543   1.323 -0.4924  0.4042 -0.5601
 8560SOL     OW26257   6.365   9.179   6.116  0.1697 -0.4781  0.0574
 8560SOL    HW126258   6.340   9.272   6.120 -3.2477 -1.2792  0.9670
 8560SOL    HW226259   6.401   9.161   6.203 -1.5304 -0.4803  0.8127
 8561SOL     OW26260   9.276   8.995   2.216 -0.4578  0.2041 -0.0301
 8561SOL    HW126261   9.199   9.005   2.273 -0.4173  0.8029 -0.0736
 8561SOL    HW226262   9.243   9.015   2.128 -0.3929 -0.1823 -0.1473
 8562SOL     OW26263   1.818   3.856   4.376 -0.2210 -0.4400  0.2232
 8562SOL    HW126264   1.790   3.942   4.406  0.2060  1.1040 -3.2764
 8562SOL    HW226265   1.896   3.836   4.427  0.3995  1.8720  0.2706
 8563SOL     OW26266   7.421   1.293   1.212  0.0534  0.3910 -0.1632
 8563SOL    HW126267   7.487   1.224   1.203  0.6314  1.0582 -1.1968
 8563SOL    HW226268   7.398   1.316   1.122 -0.5432  1.1657  0.1766
 8564SOL     OW26269   0.449   1.465   7.638 -0.3863  0.8715  0.7715
 8564SOL    HW126270   0.372   1.444   7.691 -1.0789 -0.3062 -0.6280
 8564SOL    HW226271   0.432   1.553   7.605 -0.7973  0.9079  1.0770
 8565SOL     OW26272   9.073   3.891   4.134 -1.0453 -0.1661  0.0016
 8565SOL    HW126273   8.997   3.927   4.179  0.4794  2.5005  0.5948
 8565SOL    HW226274   9.050   3.896   4.041 -0.9667  2.3278  0.0596
 8566SOL     OW26275   5.632   4.152   1.346  0.0227  0.1224 -0.6877
 8566SOL    HW126276   5.709   4.179   1.396 -0.8526  0.0387  0.7809
 8566SOL    HW226277   5.667   4.113   1.266  1.4961  0.2064 -0.1079
 8567SOL     OW26278   0.620   4.646   4.120 -0.8605 -0.2844  0.5684
 8567SOL    HW126279   0.650   4.732   4.093  1.2253 -1.5560 -1.6101
 8567SOL    HW226280   0.650   4.636   4.210 -0.2628  0.8960  0.5096
 8568SOL     OW26281   1.763   4.448   9.566  0.1710  0.0027 -0.4086
 8568SOL    HW126282   1.782   4.541   9.579  0.0921  0.1440 -1.2566
 8568SOL    HW226283   1.720   4.421   9.647 -0.5043  0.8933 -0.4575
 8569SOL     OW26284   8.491   4.230   9.813 -0.1057  0.0665  0.3323
 8569SOL    HW126285   8.486   4.140   9.782 -2.0385  0.5981 -1.0730
 8569SOL    HW226286   8.556   4.228   9.883 -3.4328 -3.4317  3.7880
 8570SOL     OW26287   9.923   8.319   4.660  0.6186 -0.0837 -0.2989
 8570SOL    HW126288   9.977   8.342   4.735  0.2160 -2.7046  0.9208
 8570SOL    HW226289   9.986   8.300   4.590  0.9719  3.5946 -1.1948
 8571SOL     OW26290   4.425   7.827   5.426  0.3459  0.3557 -0.0052
 8571SOL    HW126291   4.501   7.797   5.376  0.6862 -0.7212  1.1103
 8571SOL    HW226292   4.463   7.881   5.496 -0.0555  1.1345 -0.3772
 8572SOL     OW26293   4.694   6.650   2.927 -0.6406  0.0010  0.4444
 8572SOL    HW126294   4.720   6.680   2.840  0.9293  0.4677  1.0483
 8572SOL    HW226295   4.671   6.558   2.915 -0.0760 -0.0389 -0.4007
 8573SOL     OW26296   0.934   2.228   2.023  0.5046 -0.5512  0.0704
 8573SOL    HW126297   0.896   2.145   2.052  0.5709 -0.5703  0.1045
 8573SOL    HW226298   0.924   2.227   1.928 -0.1651 -0.2653  0.1312
 8574SOL     OW26299   6.010   3.503   3.433  0.0887 -0.0920  0.0651
 8574SOL    HW126300   5.923   3.467   3.414  0.4344 -0.7563 -0.3060
 8574SOL    HW226301   6.008   3.522   3.527 -0.3373 -0.4433  0.1312
 8575SOL     OW26302   1.640   9.952   6.774  0.2356 -0.1287 -0.8624
 8575SOL    HW126303   1.638  10.037   6.819  0.9442  1.2320 -3.2159
 8575SOL    HW226304   1.718   9.909   6.808  0.2731  0.4707 -0.1566
 8576SOL     OW26305   6.468   0.629   9.063  0.8130 -0.4054 -0.0825
 8576SOL    HW126306   6.540   0.566   9.064  0.5888 -0.6669 -0.0663
 8576SOL    HW226307   6.496   0.697   9.002  2.0019  0.6075  1.5341
 8577SOL     OW26308   2.425   4.817   5.978 -0.1679  0.2357 -0.5220
 8577SOL    HW126309   2.347   4.860   5.943 -0.2540  1.1059  0.6642
 8577SOL    HW226310   2.487   4.816   5.905  0.0655  2.9916 -0.4963
 8578SOL     OW26311   4.630   3.399   0.598 -0.2079 -0.2796  0.7458
 8578SOL    HW126312   4.593   3.421   0.513  1.3218  1.7065  0.5214
 8578SOL    HW226313   4.688   3.324   0.581 -0.6346 -0.5056  0.2550
 8579SOL     OW26314   1.931   6.515   8.905  0.5789 -0.6515 -0.0613
 8579SOL    HW126315   1.837   6.496   8.901  0.9103 -2.5911  0.4838
 8579SOL    HW226316   1.973   6.433   8.879  2.1469  0.4345 -1.1871
 8580SOL     OW26317   8.438   6.845   1.166  0.4807 -0.2688  0.1728
 8580SOL    HW126318   8.405   6.906   1.231  0.4216  0.2141 -0.3073
 8580SOL    HW226319   8.500   6.790   1.214  1.6273  1.0900  0.3056
 8581SOL     OW26320   8.287   3.199   8.472 -0.3325 -0.3718  0.6464
 8581SOL    HW126321   8.218   3.251   8.513  0.7129  1.4642  0.1868
 8581SOL    HW226322   8.258   3.187   8.382 -0.0908  0.3269  0.4757
 8582SOL     OW26323   8.421   3.906   6.683  0.3423 -0.4595  0.0449
 8582SOL    HW126324   8.507   3.930   6.717  1.1587 -1.7644 -1.0086
 8582SOL    HW226325   8.434   3.821   6.642 -0.8703  0.4459 -2.3737
 8583SOL     OW26326   3.843   4.487   1.869 -0.0259 -0.4474  0.4865
 8583SOL    HW126327   3.893   4.479   1.788 -2.0903 -0.7490 -0.8376
 8583SOL    HW226328   3.797   4.571   1.860 -1.1866 -1.0327  0.7899
 8584SOL     OW26329   9.336   3.859   0.525  0.0556 -0.3344 -0.0875
 8584SOL    HW126330   9.382   3.939   0.501  0.0481 -0.1360  0.5387
 8584SOL    HW226331   9.244   3.880   0.514  0.0514 -0.2395  0.1258
 8585SOL     OW26332   0.515   4.755   2.220  0.1088 -0.1976 -0.6675
 8585SOL    HW126333   0.521   4.848   2.198 -1.7610  0.5739  1.6923
 8585SOL    HW226334   0.427   4.730   2.194  0.5187 -1.2973 -1.0629
 8586SOL     OW26335   2.929   9.971   4.095  0.1385  0.2867 -0.4275
 8586SOL    HW126336   3.001   9.930   4.046 -0.1436  0.9499 -1.4157
 8586SOL    HW226337   2.854   9.913   4.080  0.0055  0.5877 -0.9477
 8587SOL     OW26338   9.155   3.854   1.564 -0.2548 -0.1760 -0.3382
 8587SOL    HW126339   9.192   3.813   1.486 -0.2736  0.0349 -0.4605
 8587SOL    HW226340   9.061   3.840   1.556 -0.3011  0.2415 -0.5905
 8588SOL     OW26341   6.923   4.578   6.127 -0.4584 -0.2854 -0.1754
 8588SOL    HW126342   6.883   4.583   6.040 -1.3576  1.8582  0.2895
 8588SOL    HW226343   6.984   4.652   6.130  0.7927 -1.2940  0.4799
 8589SOL     OW26344   9.493   8.422   1.339 -0.2905  0.1687 -0.9635
 8589SOL    HW126345   9.436   8.437   1.263 -1.1986  0.3071 -0.2658
 8589SOL    HW226346   9.580   8.409   1.301 -0.3147  2.4090 -1.9017
 8590SOL     OW26347   1.027   1.604   8.615 -0.5234 -0.1817 -0.5374
 8590SOL    HW126348   1.050   1.571   8.701  2.4622  0.6944 -0.8799
 8590SOL    HW226349   1.052   1.697   8.617  0.7786 -0.4049 -2.6495
 8591SOL     OW26350   1.788   2.609   7.212 -0.1407  0.5395 -0.1274
 8591SOL    HW126351   1.868   2.634   7.257  0.3235  2.0891 -1.7144
 8591SOL    HW226352   1.779   2.672   7.141 -3.3290  1.0526  0.5738
 8592SOL     OW26353   6.054   3.706   8.889  0.3892 -0.1023  0.1624
 8592SOL    HW126354   6.113   3.632   8.880 -0.1448 -0.3505 -2.0492
 8592SOL    HW226355   6.108   3.777   8.924  1.2036 -1.1824  1.1421
 8593SOL     OW26356   1.578   5.623   8.016  0.2327 -0.2472 -0.4248
 8593SOL    HW126357   1.579   5.529   8.032 -0.1786 -0.3413 -0.9191
 8593SOL    HW226358   1.487   5.649   8.030  0.6527  0.3932  1.3999
 8594SOL     OW26359   0.805   6.185   0.968 -0.7081 -0.4880  0.5115
 8594SOL    HW126360   0.774   6.226   0.888 -0.1182  3.0168  1.8935
 8594SOL    HW226361   0.874   6.125   0.940 -0.2612  0.9018 -1.5586
 8595SOL     OW26362   5.682   8.551   1.274  0.0160 -0.5029  0.1784
 8595SOL    HW126363   5.707   8.617   1.210  2.3167 -1.9126 -0.5059
 8595SOL    HW226364   5.651   8.477   1.222  1.2647 -1.4083  0.6763
 8596SOL     OW26365   8.945   3.609   8.637 -0.0722 -0.4982  0.2651
 8596SOL    HW126366   8.884   3.683   8.636 -1.4432 -1.5754  0.4640
 8596SOL    HW226367   9.030   3.648   8.655 -0.7767  1.0046  0.5143
 8597SOL     OW26368   1.630   9.477   8.442  0.2935  0.0240 -0.0154
 8597SOL    HW126369   1.660   9.479   8.533  0.4313  0.8455 -0.0686
 8597SOL    HW226370   1.537   9.453   8.448  0.2667  0.2121  0.3542
 8598SOL     OW26371   0.914   2.756   9.854 -0.1356 -0.0056 -0.0335
 8598SOL    HW126372   0.879   2.731   9.940 -0.6413 -1.3393 -0.6041
 8598SOL    HW226373   0.846   2.730   9.792  0.0325  1.3514 -0.8275
 8599SOL     OW26374   1.097   3.928   1.511 -0.5506  0.0208 -0.2299
 8599SOL    HW126375   1.107   3.992   1.441  0.5572  0.4229  0.2769
 8599SOL    HW226376   1.010   3.891   1.497 -0.7416  0.8005 -1.2213
 8600SOL     OW26377   8.684   3.732   3.974 -0.5130 -0.4440  0.0083
 8600SOL    HW126378   8.737   3.655   3.993  1.0570  0.1278 -1.6912
 8600SOL    HW226379   8.734   3.779   3.907 -3.8723 -0.6411 -2.9692
 8601SOL     OW26380   6.904   3.461   8.376 -0.2097 -0.4329  0.2534
 8601SOL    HW126381   6.919   3.514   8.454  2.3431 -0.3584 -0.1994
 8601SOL    HW226382   6.956   3.382   8.390 -1.9715 -1.7180 -0.1762
 8602SOL     OW26383   1.414   2.771   2.812 -0.9106  0.1599  0.4033
 8602SOL    HW126384   1.445   2.829   2.881 -1.1227 -0.3381  0.9193
 8602SOL    HW226385   1.451   2.808   2.731  0.8495 -0.2537  0.9629
 8603SOL     OW26386   0.528   8.938   4.734 -0.4028 -0.2194 -0.2201
 8603SOL    HW126387   0.491   9.003   4.794 -1.2428 -0.0181 -0.9525
 8603SOL    HW226388   0.605   8.982   4.697  0.3725 -0.4925  0.9883
 8604SOL     OW26389   5.840   0.119   4.915  0.2903  0.5617 -0.2421
 8604SOL    HW126390   5.927   0.130   4.876  0.1175 -1.9354 -1.5291
 8604SOL    HW226391   5.838   0.027   4.943 -2.6348 -0.0717 -2.1638
 8605SOL     OW26392   3.423   9.380   5.942 -0.1186 -0.6403  0.2823
 8605SOL    HW126393   3.360   9.325   5.896  0.3145 -2.3633  1.6252
 8605SOL    HW226394   3.453   9.326   6.015  2.2379  0.4444  0.2235
 8606SOL     OW26395   9.547   9.642   1.848 -0.4936 -0.1400  0.2574
 8606SOL    HW126396   9.554   9.548   1.832 -2.1386 -0.2338 -0.0288
 8606SOL    HW226397   9.568   9.682   1.763 -1.8008 -0.3485 -0.1841
 8607SOL     OW26398   9.240   8.157   9.470 -0.0394 -0.4542  0.1497
 8607SOL    HW126399   9.319   8.142   9.522 -0.0070  2.1985  1.0427
 8607SOL    HW226400   9.272   8.201   9.390 -0.2793 -2.8592 -1.3626
 8608SOL     OW26401   6.417   9.093   1.758  0.2550  0.0397 -0.4953
 8608SOL    HW126402   6.408   9.136   1.843 -0.5747 -0.8544 -0.1009
 8608SOL    HW226403   6.340   9.035   1.753 -0.4969  1.1052 -2.4620
 8609SOL     OW26404   4.936   3.697   0.253 -0.0715 -0.1169 -0.4416
 8609SOL    HW126405   4.986   3.774   0.225  1.1731 -0.9950 -0.7204
 8609SOL    HW226406   4.994   3.651   0.314 -1.7649  0.4245  1.6967
 8610SOL     OW26407   7.517   1.251   3.878  0.1536 -0.2249  0.1581
 8610SOL    HW126408   7.572   1.269   3.955  0.6293  0.5811 -0.3676
 8610SOL    HW226409   7.569   1.281   3.804 -1.1293  0.8495 -0.3286
 8611SOL     OW26410   1.617   9.784   1.566  0.1946 -0.0566  0.0732
 8611SOL    HW126411   1.546   9.746   1.618  1.2038  0.1358  1.6463
 8611SOL    HW226412   1.589   9.873   1.548  0.3221  0.2410  1.2881
 8612SOL     OW26413   3.030   3.939   3.292 -0.5958  0.1610 -0.4295
 8612SOL    HW126414   2.979   3.871   3.336 -2.2305  2.6103  1.7616
 8612SOL    HW226415   3.100   3.960   3.354 -1.5940  2.1041  0.1256
 8613SOL     OW26416   2.938   9.000   4.675  0.4282  0.1985  0.2734
 8613SOL    HW126417   2.960   9.046   4.595  1.7627 -1.4024 -0.3587
 8613SOL    HW226418   2.908   8.914   4.646 -1.2792  0.3688  1.4258
 8614SOL     OW26419   1.931   4.501   5.668  0.1944 -0.3470 -0.2181
 8614SOL    HW126420   1.868   4.572   5.682 -0.4758 -0.8846 -0.5070
 8614SOL    HW226421   1.882   4.421   5.687  0.2574 -0.8967 -2.1516
 8615SOL     OW26422   3.852   3.340   6.374  0.0324 -0.2106  0.3320
 8615SOL    HW126423   3.860   3.261   6.320  0.3564  0.9282 -1.3431
 8615SOL    HW226424   3.919   3.329   6.441  1.7720 -0.2712 -1.3369
 8616SOL     OW26425   6.375   7.476   8.528 -0.2398 -0.2288  0.3618
 8616SOL    HW126426   6.454   7.450   8.481 -0.2197  1.3800 -0.5480
 8616SOL    HW226427   6.307   7.417   8.494  0.3525 -0.9774  0.4403
 8617SOL     OW26428   3.813   6.764   7.209  0.1020 -0.1354 -0.0042
 8617SOL    HW126429   3.876   6.817   7.162 -0.2035 -0.2374 -0.5358
 8617SOL    HW226430   3.863   6.723   7.280  0.2911  1.0330  0.5572
 8618SOL     OW26431   9.712   8.120   6.049  0.1688 -0.1212  0.2485
 8618SOL    HW126432   9.776   8.185   6.021 -0.1050  1.2027  2.4474
 8618SOL    HW226433   9.748   8.037   6.020  0.9417  0.8994 -1.9305
 8619SOL     OW26434   5.321   2.451   3.052  0.0998 -0.2684 -0.2797
 8619SOL    HW126435   5.241   2.422   3.009 -0.2641  1.5046 -0.9006
 8619SOL    HW226436   5.391   2.407   3.004 -0.3784  0.5629 -1.8239
 8620SOL     OW26437   7.834   7.665   7.616  0.2229  0.0711 -0.2028
 8620SOL    HW126438   7.926   7.681   7.595  0.2074  1.4207  0.6628
 8620SOL    HW226439   7.786   7.708   7.546  0.2345 -0.3585 -0.4798
 8621SOL     OW26440   5.518   6.715   3.048 -0.1877  0.4557  0.8153
 8621SOL    HW126441   5.476   6.799   3.069  0.4850  0.5301  1.9752
 8621SOL    HW226442   5.520   6.668   3.132  0.5106 -0.2349  0.4246
 8622SOL     OW26443   8.452   7.986   9.391 -0.2966 -0.2588 -0.4684
 8622SOL    HW126444   8.365   7.959   9.363 -0.6198  0.9979 -0.7633
 8622SOL    HW226445   8.498   7.905   9.410 -1.4284 -0.9541 -0.6201
 8623SOL     OW26446   4.828   5.799   6.162  0.3425 -0.7349 -0.2459
 8623SOL    HW126447   4.861   5.827   6.076  2.2304  0.1017  0.6803
 8623SOL    HW226448   4.886   5.727   6.187  1.7376  0.8753  1.5077
 8624SOL     OW26449   1.645   4.023   9.659  0.4180 -0.1570 -0.1764
 8624SOL    HW126450   1.739   4.037   9.669  0.2735 -0.0042  1.0676
 8624SOL    HW226451   1.624   4.058   9.572  1.5021 -0.2064 -0.4670
 8625SOL     OW26452   4.628   1.094   5.585  0.8086 -0.1154 -0.5136
 8625SOL    HW126453   4.544   1.061   5.552  0.1719  0.6806  0.2576
 8625SOL    HW226454   4.690   1.024   5.566 -0.1939 -1.0977 -0.3314
 8626SOL     OW26455   7.867   9.601   1.518  0.6986 -0.2180 -0.8178
 8626SOL    HW126456   7.868   9.600   1.614  0.1805  1.2609 -0.7665
 8626SOL    HW226457   7.777   9.579   1.495  0.3697  1.1194 -0.8873
 8627SOL     OW26458   8.185   9.290   8.846 -0.0673 -0.5940 -0.0308
 8627SOL    HW126459   8.213   9.218   8.903 -0.3512 -0.5986  0.1037
 8627SOL    HW226460   8.207   9.369   8.894  0.6997 -0.5816 -0.3937
 8628SOL     OW26461   7.549   3.822   8.845 -0.5271 -0.0517 -0.5230
 8628SOL    HW126462   7.548   3.899   8.902 -1.4216 -0.8847  0.6289
 8628SOL    HW226463   7.481   3.765   8.880  1.3016 -2.2052 -0.1839
 8629SOL     OW26464   7.067   6.653   5.823  0.7459 -0.2355 -0.3965
 8629SOL    HW126465   6.988   6.603   5.845  0.8098  0.0064  0.3937
 8629SOL    HW226466   7.079   6.713   5.896  2.8939 -1.7244  0.5752
 8630SOL     OW26467   7.840   3.917   7.570 -0.3571  0.1911  0.1128
 8630SOL    HW126468   7.902   3.883   7.507  3.2225 -1.9396  4.2304
 8630SOL    HW226469   7.851   4.012   7.566  1.2773 -0.0184 -1.0779
 8631SOL     OW26470   1.102   4.734   8.053 -0.0939 -0.2934 -0.1282
 8631SOL    HW126471   1.179   4.684   8.081  0.1790  0.5628  0.6732
 8631SOL    HW226472   1.057   4.756   8.135  1.6647  3.8070 -0.0232
 8632SOL     OW26473   5.883   3.163   0.978  0.6710 -0.4705  0.2208
 8632SOL    HW126474   5.960   3.215   1.001  0.4004  0.7676 -1.4497
 8632SOL    HW226475   5.910   3.072   0.990  1.6935 -0.0248  1.6415
 8633SOL     OW26476   6.255   8.030   2.660  0.3894  0.1376  0.1471
 8633SOL    HW126477   6.250   7.949   2.711 -0.0737  0.6209  0.8947
 8633SOL    HW226478   6.237   8.003   2.570 -1.7736 -0.3376  0.6492
 8634SOL     OW26479   4.194   1.575   6.652  0.9472  0.1472 -0.3850
 8634SOL    HW126480   4.136   1.641   6.691 -1.6684 -2.4784  0.4942
 8634SOL    HW226481   4.256   1.626   6.600  0.9604  3.4758  2.5152
 8635SOL     OW26482   3.418   2.913   7.903  0.1695 -0.1139  0.0538
 8635SOL    HW126483   3.367   2.950   7.831 -0.5901  0.0733  0.6726
 8635SOL    HW226484   3.387   2.959   7.981 -1.7907 -2.8704  1.0820
 8636SOL     OW26485   2.272   0.875   2.820  0.1192  1.1273  0.0033
 8636SOL    HW126486   2.209   0.846   2.754 -0.2361 -0.7744  1.1416
 8636SOL    HW226487   2.220   0.924   2.883  0.4131  2.6821 -0.8906
 8637SOL     OW26488   4.708   8.544   3.919  0.3320 -0.6061  0.4568
 8637SOL    HW126489   4.764   8.467   3.924  1.3263  0.0419 -0.2637
 8637SOL    HW226490   4.769   8.618   3.922 -0.5543  0.1365  0.4994
 8638SOL     OW26491   8.450   0.136   2.184 -0.8844 -0.1886 -0.0564
 8638SOL    HW126492   8.524   0.195   2.174  0.0596 -1.2846  0.1727
 8638SOL    HW226493   8.373   0.189   2.165  0.0396  0.7027 -1.5130
 8639SOL     OW26494   5.010   4.641   4.194 -0.3611 -0.5861 -0.4619
 8639SOL    HW126495   4.924   4.600   4.185 -0.2944 -0.5324 -1.4875
 8639SOL    HW226496   5.040   4.616   4.282 -0.4215 -2.5332 -0.9526
 8640SOL     OW26497   1.904   4.633   8.638  0.2062  0.2158 -0.0670
 8640SOL    HW126498   1.913   4.562   8.701 -0.0660 -0.4878 -0.8020
 8640SOL    HW226499   1.971   4.616   8.572  0.8031  1.2111  0.2589
 8641SOL     OW26500   6.591   0.749   0.205 -0.2113 -0.0283  0.0846
 8641SOL    HW126501   6.550   0.724   0.122 -2.0518  0.6492  0.7311
 8641SOL    HW226502   6.678   0.781   0.180 -0.2002 -1.1290 -1.4103
 8642SOL     OW26503   9.428   7.782   8.350  0.2166  0.2054 -0.0756
 8642SOL    HW126504   9.406   7.815   8.263  0.8108 -0.8682 -0.6493
 8642SOL    HW226505   9.417   7.858   8.407  0.0482  0.9932 -1.1135
 8643SOL     OW26506   2.514   1.136   1.607 -0.6309  0.0474 -0.4786
 8643SOL    HW126507   2.524   1.094   1.521 -0.3375 -0.0733 -0.3877
 8643SOL    HW226508   2.590   1.193   1.615 -0.0036 -0.8432  0.2027
 8644SOL     OW26509   4.694   2.858   5.534  0.0397 -0.6924  0.3551
 8644SOL    HW126510   4.658   2.876   5.447  0.0991  0.2494  0.5201
 8644SOL    HW226511   4.635   2.792   5.570 -1.0031  0.1574  0.2661
 8645SOL     OW26512   0.771   9.803   3.795  0.4729  0.3174  0.0552
 8645SOL    HW126513   0.818   9.814   3.713  2.0978  1.3053  1.0664
 8645SOL    HW226514   0.694   9.859   3.787  0.3410  0.0139 -0.9577
 8646SOL     OW26515   9.271   3.894   6.692  0.0736  0.1416  0.9730
 8646SOL    HW126516   9.352   3.927   6.652  1.0663 -1.1620  1.8040
 8646SOL    HW226517   9.218   3.972   6.709  1.1509  1.0247  0.4010
 8647SOL     OW26518   4.908   5.493   9.837  0.4489  0.2307 -0.0452
 8647SOL    HW126519   4.951   5.466   9.919 -0.0648  2.0089  0.8498
 8647SOL    HW226520   4.815   5.494   9.858 -0.0675 -2.6343 -1.6995
 8648SOL     OW26521   7.511   4.952   3.884  0.4344 -0.0623 -0.5038
 8648SOL    HW126522   7.526   4.948   3.978 -0.5485 -1.3313 -0.3755
 8648SOL    HW226523   7.461   5.033   3.872  1.5891  0.7358 -0.1203
 8649SOL     OW26524   7.074   1.508   6.272  0.5337  0.7847  0.2693
 8649SOL    HW126525   7.062   1.595   6.312  1.2849  0.6464  0.8250
 8649SOL    HW226526   7.062   1.523   6.179 -0.5829  1.2527  0.4704
 8650SOL     OW26527   9.052   0.716   3.767  0.5501 -0.2285  0.4263
 8650SOL    HW126528   9.039   0.684   3.678  0.2412 -1.6787  0.9646
 8650SOL    HW226529   8.985   0.671   3.819  0.8292  0.4624  1.4246
 8651SOL     OW26530   7.153   4.259   9.150 -0.0920  0.4292  0.2600
 8651SOL    HW126531   7.095   4.204   9.202 -0.4701 -0.4604 -1.0637
 8651SOL    HW226532   7.114   4.260   9.063  1.0127  1.1394 -0.2508
 8652SOL     OW26533   1.384   7.829   4.808  0.2291 -0.3547 -0.5933
 8652SOL    HW126534   1.353   7.919   4.814  0.2982 -0.4063  1.1173
 8652SOL    HW226535   1.462   7.834   4.753  0.1925  0.6189 -0.5647
 8653SOL     OW26536   7.399   6.086   3.178 -0.0084 -0.2253 -0.4814
 8653SOL    HW126537   7.311   6.114   3.201  0.5692  1.4460 -0.1265
 8653SOL    HW226538   7.394   6.063   3.085 -1.0153 -1.0917 -0.2237
 8654SOL     OW26539   4.542   6.413   1.846  0.1754  0.0297  0.5447
 8654SOL    HW126540   4.510   6.426   1.757  0.2780 -0.1736  0.4782
 8654SOL    HW226541   4.634   6.390   1.836  0.0232 -0.6471  0.6637
 8655SOL     OW26542   0.983   8.190   2.257  0.1645  0.1948 -0.0693
 8655SOL    HW126543   1.012   8.258   2.317  0.9856  0.6373 -0.9312
 8655SOL    HW226544   1.011   8.221   2.170  0.2223 -1.0549 -0.5206
 8656SOL     OW26545   7.849   5.297   6.078  0.1517 -0.1242  0.0044
 8656SOL    HW126546   7.924   5.315   6.135 -0.1902  1.8993 -0.1273
 8656SOL    HW226547   7.797   5.232   6.126  1.1307 -0.3079  0.8392
 8657SOL     OW26548   3.321   7.851   6.613  0.2005 -0.1995  0.5535
 8657SOL    HW126549   3.316   7.939   6.651  0.1920 -0.4485  1.1403
 8657SOL    HW226550   3.326   7.793   6.688  1.1186 -0.6543  0.1509
 8658SOL     OW26551   2.342   3.810   1.974 -0.2086  0.1648 -0.2088
 8658SOL    HW126552   2.344   3.891   1.923 -1.6445 -0.0006 -0.5708
 8658SOL    HW226553   2.414   3.819   2.037 -0.2292  1.6194 -0.3769
 8659SOL     OW26554   3.778   4.340   3.872 -0.4812 -0.4913 -0.0651
 8659SOL    HW126555   3.862   4.296   3.883 -0.3912 -0.2592  0.1871
 8659SOL    HW226556   3.734   4.330   3.956 -0.4722 -0.1311 -0.0149
 8660SOL     OW26557   6.509   7.002   3.459 -0.2522 -0.8117  0.3452
 8660SOL    HW126558   6.483   6.940   3.527 -0.0620 -1.6792 -0.3536
 8660SOL    HW226559   6.578   6.956   3.411 -0.0469 -0.0162 -0.1255
 8661SOL     OW26560   3.301   2.388   9.613 -0.0910  0.8136  0.4676
 8661SOL    HW126561   3.397   2.382   9.608 -0.1514  0.1230 -0.0668
 8661SOL    HW226562   3.282   2.481   9.606  0.4626  0.8405 -1.2238
 8662SOL     OW26563   7.896   1.484   3.024  0.7324  0.4504 -0.4779
 8662SOL    HW126564   7.847   1.548   3.075  1.0194  0.1931  0.1306
 8662SOL    HW226565   7.849   1.478   2.940 -0.7949 -0.4506  0.3960
 8663SOL     OW26566   7.358   7.613   2.726  0.0915  0.0075  0.2108
 8663SOL    HW126567   7.277   7.563   2.713  0.2373 -0.1586 -0.0799
 8663SOL    HW226568   7.339   7.700   2.691  0.8925 -0.7908 -2.4505
 8664SOL     OW26569   2.775   0.367   6.029  0.0855 -0.0318  0.1425
 8664SOL    HW126570   2.694   0.416   6.041 -1.0589 -2.3096  2.7409
 8664SOL    HW226571   2.752   0.298   5.967  0.6142  0.4270 -0.5796
 8665SOL     OW26572   8.622   0.916   0.093 -0.5581 -0.1311  0.0240
 8665SOL    HW126573   8.574   0.998   0.090  0.2029  0.2979 -1.4214
 8665SOL    HW226574   8.554   0.848   0.100 -1.2578  0.5564  0.0086
 8666SOL     OW26575   0.616   1.775   3.658 -0.0911 -0.0705  0.1399
 8666SOL    HW126576   0.564   1.734   3.727  2.3061  0.4393  2.4116
 8666SOL    HW226577   0.586   1.866   3.655  0.6988  0.2722  1.5731
 8667SOL     OW26578   6.784   1.854   0.232  0.0717  0.1741 -0.0669
 8667SOL    HW126579   6.817   1.826   0.318 -1.2997  0.6483  0.6460
 8667SOL    HW226580   6.697   1.890   0.250  0.4813  2.0042 -1.3923
 8668SOL     OW26581   3.490   3.907   6.454  0.0750  0.2926  0.1136
 8668SOL    HW126582   3.468   3.815   6.439  1.9883 -0.1816 -0.0139
 8668SOL    HW226583   3.410   3.954   6.432 -0.9703 -1.3349  0.2260
 8669SOL     OW26584   9.950   2.410   6.390  0.1594  0.0027 -0.4680
 8669SOL    HW126585   9.917   2.382   6.304 -0.9469  0.7948 -0.3230
 8669SOL    HW226586  10.025   2.354   6.406  0.4030 -0.1518 -1.9745
 8670SOL     OW26587   1.009   9.590   9.117  0.2578 -0.4208 -0.1846
 8670SOL    HW126588   1.021   9.553   9.205 -0.4543 -1.3039 -0.4439
 8670SOL    HW226589   1.095   9.582   9.076 -0.0195 -2.4602 -0.4633
 8671SOL     OW26590   5.038   8.260   8.316 -0.1777 -0.3042 -0.4629
 8671SOL    HW126591   5.121   8.294   8.283 -0.8996  1.3925 -0.6536
 8671SOL    HW226592   5.062   8.184   8.369  1.3897 -0.4237 -1.3053
 8672SOL     OW26593   4.572   6.255   3.850  0.0872 -0.3492 -0.7437
 8672SOL    HW126594   4.654   6.264   3.898 -0.3339 -0.4271  0.0037
 8672SOL    HW226595   4.582   6.175   3.799 -0.1551 -1.2821  0.6379
 8673SOL     OW26596   7.249   7.189   7.241  0.6268  0.2343 -0.4934
 8673SOL    HW126597   7.310   7.243   7.292 -0.8281  1.1261  0.3566
 8673SOL    HW226598   7.185   7.251   7.206 -0.7450 -0.8427  0.0055
 8674SOL     OW26599   1.176   6.092   4.841 -0.4044 -0.2415 -0.0700
 8674SOL    HW126600   1.139   6.161   4.897 -3.0668  1.1962 -3.2838
 8674SOL    HW226601   1.126   6.014   4.863 -0.9202  0.1261  0.0837
 8675SOL     OW26602   4.864   3.980   6.838 -0.2538  0.0530  0.0318
 8675SOL    HW126603   4.779   3.992   6.797 -0.4300 -1.6614 -0.1640
 8675SOL    HW226604   4.844   3.965   6.931  0.0868  2.9455  0.6922
 8676SOL     OW26605   4.621   3.863   4.644 -0.1461 -0.7500  0.2597
 8676SOL    HW126606   4.570   3.943   4.653  0.1310 -0.5655  0.2223
 8676SOL    HW226607   4.556   3.793   4.635 -0.3839 -0.4666 -0.2488
 8677SOL     OW26608   5.002   4.099   0.500  0.1608  0.0675  0.1526
 8677SOL    HW126609   4.944   4.092   0.424  1.0339 -0.8136 -0.4582
 8677SOL    HW226610   5.072   4.036   0.482  0.0778 -0.6090  1.9608
 8678SOL     OW26611   3.179   4.859   1.959  0.1494  0.1306 -0.2180
 8678SOL    HW126612   3.263   4.869   1.914  0.6796  2.8541  1.1821
 8678SOL    HW226613   3.114   4.894   1.897  0.4235  0.6280 -0.2300
 8679SOL     OW26614   1.936   6.150   7.535 -0.7999  0.2950 -0.1067
 8679SOL    HW126615   1.909   6.080   7.595 -3.6700  0.0846 -1.4418
 8679SOL    HW226616   1.890   6.228   7.567 -1.2233  0.4960 -1.1434
 8680SOL     OW26617   2.825   5.012   6.755 -0.1934  0.0882 -0.1632
 8680SOL    HW126618   2.821   4.932   6.808  0.4060  0.6129  0.6909
 8680SOL    HW226619   2.907   5.005   6.707  0.5005  0.7621  0.8773
 8681SOL     OW26620   4.204   3.764   0.633  0.4250  0.0490 -0.1323
 8681SOL    HW126621   4.260   3.782   0.708 -0.7445 -0.9671  1.0306
 8681SOL    HW226622   4.195   3.848   0.589  0.5447  0.8232  1.2813
 8682SOL     OW26623   2.576   6.068   1.994  0.5045 -0.2797  0.5849
 8682SOL    HW126624   2.520   6.142   1.974  1.8814  0.4005 -0.9562
 8682SOL    HW226625   2.515   5.995   2.009 -0.8629 -0.2894 -3.7806
 8683SOL     OW26626   2.342   0.419   0.892  0.3468  0.2469 -0.7476
 8683SOL    HW126627   2.310   0.370   0.817 -0.7190 -0.5145  0.1817
 8683SOL    HW226628   2.408   0.362   0.932  0.3779  0.3323 -0.6755
 8684SOL     OW26629   2.479   7.519   5.448 -0.1697  0.1039 -0.1034
 8684SOL    HW126630   2.470   7.453   5.379 -2.3773  1.5618 -1.3218
 8684SOL    HW226631   2.573   7.530   5.459  0.2420 -1.9459 -1.1083
 8685SOL     OW26632   7.321   5.015   7.208  0.5887  0.3565 -0.6302
 8685SOL    HW126633   7.251   4.984   7.150  1.9191 -1.3957 -1.3831
 8685SOL    HW226634   7.275   5.055   7.282 -1.2203 -0.9511 -0.9882
 8686SOL     OW26635   3.593   5.371   1.938  0.3225  0.3676 -0.2361
 8686SOL    HW126636   3.571   5.434   1.870  1.5902  3.5799  2.1004
 8686SOL    HW226637   3.618   5.292   1.890 -1.3651  1.5241 -3.3307
 8687SOL     OW26638   5.794   4.912   1.344 -0.4445 -0.1233  0.0296
 8687SOL    HW126639   5.761   4.911   1.254 -1.4048 -0.6088  0.3641
 8687SOL    HW226640   5.758   4.993   1.381  1.5928  1.1218 -0.5696
 8688SOL     OW26641   1.708   5.934   0.136  0.4365 -0.2059  0.3137
 8688SOL    HW126642   1.783   5.991   0.115 -0.5055  0.4851 -1.3653
 8688SOL    HW226643   1.642   5.994   0.173  0.6691 -0.8159  1.8110
 8689SOL     OW26644   7.702   3.487   7.263 -0.1179 -0.2181 -0.3976
 8689SOL    HW126645   7.694   3.527   7.177  0.3601  0.1815 -0.2593
 8689SOL    HW226646   7.758   3.411   7.249  1.0266  0.5619 -0.2253
 8690SOL     OW26647   6.404   0.942   2.151  0.2862 -0.5415  0.0332
 8690SOL    HW126648   6.335   0.960   2.216  0.3326  0.3126 -0.1472
 8690SOL    HW226649   6.447   0.863   2.184 -0.5545 -0.8968  0.3324
 8691SOL     OW26650   4.568   2.198   4.911  0.0469 -0.2402  0.1630
 8691SOL    HW126651   4.626   2.124   4.891  1.0816  0.5186  0.2899
 8691SOL    HW226652   4.601   2.270   4.858  0.2367  0.6463  1.4330
 8692SOL     OW26653   1.683   6.564   8.203 -0.3274  0.0017 -0.1796
 8692SOL    HW126654   1.675   6.589   8.111  0.1889  1.4598  0.1402
 8692SOL    HW226655   1.595   6.538   8.229  0.0391 -3.2970 -1.8068
 8693SOL     OW26656   5.633   2.879   8.274  0.0797 -0.5910 -0.3529
 8693SOL    HW126657   5.642   2.796   8.320 -0.4749 -1.1827 -1.2970
 8693SOL    HW226658   5.718   2.922   8.284  0.3857 -1.2942  0.0880
 8694SOL     OW26659   9.681   9.465   5.594  0.1425 -0.5377 -0.3985
 8694SOL    HW126660   9.750   9.527   5.569  1.3221 -1.6020  0.1305
 8694SOL    HW226661   9.728   9.386   5.620 -1.1505 -0.5903  2.0740
 8695SOL     OW26662   8.007   2.996   8.684  0.4297 -0.0152 -0.2381
 8695SOL    HW126663   7.989   3.012   8.777 -0.3668  0.0321 -0.3914
 8695SOL    HW226664   8.101   2.977   8.681  0.2768 -1.1035  0.7378
 8696SOL     OW26665   4.202   4.691   1.870 -0.2774 -0.1654  0.4747
 8696SOL    HW126666   4.145   4.753   1.916 -0.1756 -1.7774  2.9824
 8696SOL    HW226667   4.179   4.606   1.908  1.8776 -1.2246 -0.4438
 8697SOL     OW26668   7.177   1.254   2.181  0.6763 -0.3151  0.2496
 8697SOL    HW126669   7.239   1.318   2.145 -0.6096  1.1192  0.4751
 8697SOL    HW226670   7.114   1.240   2.111  0.2337 -0.3524  0.6537
 8698SOL     OW26671   7.433   8.053   6.065 -0.3429  0.1570  0.1098
 8698SOL    HW126672   7.511   8.061   6.010 -1.0544 -1.1623 -1.1763
 8698SOL    HW226673   7.455   8.100   6.145  1.5474  0.3219 -0.4488
 8699SOL     OW26674   4.553   8.934   6.064  0.1244 -0.2715 -0.3013
 8699SOL    HW126675   4.541   9.022   6.028  0.9472 -0.9064 -2.2288
 8699SOL    HW226676   4.483   8.926   6.129  0.4236  2.0198  0.3838
 8700SOL     OW26677   7.570   7.193   4.688 -0.1766 -0.4913  0.1033
 8700SOL    HW126678   7.630   7.139   4.635  0.0346 -0.9932  0.8338
 8700SOL    HW226679   7.613   7.278   4.694  0.2871 -0.7329  0.2985
 8701SOL     OW26680   7.745   4.269   1.400  0.1550 -0.0372 -0.4029
 8701SOL    HW126681   7.719   4.249   1.490 -2.2053  0.3755 -0.9221
 8701SOL    HW226682   7.717   4.193   1.349 -0.9285  0.8125 -1.1261
 8702SOL     OW26683   2.291   9.438   3.926  0.8851 -0.3594  0.4014
 8702SOL    HW126684   2.371   9.456   3.975  2.1137 -0.2620 -1.5466
 8702SOL    HW226685   2.310   9.357   3.878  0.0042 -0.0727 -0.4625
 8703SOL     OW26686   4.382   7.575   5.905 -0.3438 -0.8163 -0.0786
 8703SOL    HW126687   4.321   7.647   5.925 -1.5612 -1.7798 -0.1595
 8703SOL    HW226688   4.412   7.592   5.816 -0.5861 -0.3747 -0.0790
 8704SOL     OW26689   6.501   8.396   0.284  0.2070 -0.0573  0.2490
 8704SOL    HW126690   6.406   8.385   0.272  0.1240 -0.0446  0.8545
 8704SOL    HW226691   6.537   8.389   0.196 -0.4656  1.0936 -0.1337
 8705SOL     OW26692   1.451   2.572   9.444 -0.0732  0.0694  0.1976
 8705SOL    HW126693   1.433   2.664   9.464 -0.7441 -0.0362  0.1211
 8705SOL    HW226694   1.535   2.554   9.486  0.2174  0.8020 -0.0557
 8706SOL     OW26695   7.588   3.457   1.393 -0.1569 -0.1778 -0.1948
 8706SOL    HW126696   7.571   3.383   1.451  0.1856  0.4368  0.7061
 8706SOL    HW226697   7.505   3.504   1.388  0.4121  1.1363  1.7897
 8707SOL     OW26698   9.091   8.930   9.891 -0.5670  0.3170  0.2270
 8707SOL    HW126699   9.000   8.918   9.865 -0.8063 -1.5751  1.7006
 8707SOL    HW226700   9.091   9.012   9.941 -1.4508  0.3412  0.2081
 8708SOL     OW26701   7.129   0.031   9.046 -0.3745 -0.1585 -0.2149
 8708SOL    HW126702   7.167   0.061   8.963 -0.6008  1.5848  0.2750
 8708SOL    HW226703   7.195  -0.027   9.083  0.6812  0.7631 -0.6012
 8709SOL     OW26704   6.610   1.345   8.259  0.3631 -0.0906 -0.0884
 8709SOL    HW126705   6.526   1.362   8.216  0.2359  0.6102  0.4213
 8709SOL    HW226706   6.674   1.389   8.204  0.1324  1.3475  0.7388
 8710SOL     OW26707   5.739   0.736   3.720  0.7544  0.1438 -0.1595
 8710SOL    HW126708   5.833   0.730   3.735  0.6646  1.4472  1.0316
 8710SOL    HW226709   5.713   0.820   3.757 -1.0801 -0.6857  0.5575
 8711SOL     OW26710   5.417   8.491   9.483  0.0896 -0.0377 -0.1061
 8711SOL    HW126711   5.396   8.539   9.403  0.2682 -0.1153 -0.2014
 8711SOL    HW226712   5.423   8.558   9.551  0.7047  0.1238 -0.3100
 8712SOL     OW26713   4.990   2.508   9.257 -0.1867 -0.0818 -0.0322
 8712SOL    HW126714   4.971   2.556   9.337 -0.9021  0.0429 -0.2702
 8712SOL    HW226715   5.067   2.456   9.278  1.2130  1.8697 -0.0510
 8713SOL     OW26716   3.428   8.858   0.344 -0.2347  0.0939 -0.3563
 8713SOL    HW126717   3.403   8.901   0.426  1.2010  0.8676 -0.2922
 8713SOL    HW226718   3.446   8.768   0.369 -1.4665 -0.1171 -0.1525
 8714SOL     OW26719   0.969   3.958   2.059 -0.3079  0.2335 -0.0801
 8714SOL    HW126720   1.034   4.002   2.003 -1.1554  0.3661 -0.9891
 8714SOL    HW226721   0.941   3.883   2.008  1.2288 -1.5336  1.5176
 8715SOL     OW26722   6.326   4.920   5.299 -0.0342 -0.0643  0.5511
 8715SOL    HW126723   6.233   4.909   5.316 -0.6632  2.8345 -0.4208
 8715SOL    HW226724   6.368   4.903   5.383 -1.5996  0.1930  1.4241
 8716SOL     OW26725   6.907   3.805   5.515  0.5320 -0.2947 -0.3320
 8716SOL    HW126726   6.986   3.823   5.566  0.2417  0.7372 -0.2097
 8716SOL    HW226727   6.933   3.737   5.453  0.6174 -2.4075  1.8600
 8717SOL     OW26728   4.734   9.330   6.124  0.5825  0.3734  0.4295
 8717SOL    HW126729   4.713   9.420   6.148  0.6453  1.0278 -1.7522
 8717SOL    HW226730   4.666   9.306   6.060  0.4398 -1.2158  1.1356
 8718SOL     OW26731   1.055   7.846   0.532 -0.5235  0.0609 -0.4365
 8718SOL    HW126732   0.998   7.923   0.534 -1.8127 -0.8700  0.7956
 8718SOL    HW226733   1.141   7.878   0.558 -1.1755  0.9871  0.6436
 8719SOL     OW26734   3.157   9.321   3.230  0.3133 -0.1566  0.5283
 8719SOL    HW126735   3.133   9.413   3.233  1.8834  0.4706 -2.4114
 8719SOL    HW226736   3.075   9.274   3.216 -0.2084  1.0669 -0.6603
 8720SOL     OW26737   2.233   3.158   4.689  0.2293 -0.5030 -1.0213
 8720SOL    HW126738   2.159   3.217   4.677  0.5238  0.0547 -0.2396
 8720SOL    HW226739   2.203   3.073   4.657 -1.1876 -0.5912  0.4453
 8721SOL     OW26740   7.588   9.707   3.068  0.0479 -0.1995  0.0443
 8721SOL    HW126741   7.567   9.616   3.091 -0.1801 -0.1355  0.0940
 8721SOL    HW226742   7.562   9.715   2.976 -0.1372 -0.1261  0.1006
 8722SOL     OW26743   8.477   1.344   7.977 -0.1393  0.8701 -1.0237
 8722SOL    HW126744   8.457   1.316   8.067 -0.3197  0.7163 -1.1087
 8722SOL    HW226745   8.440   1.432   7.971  1.1529  1.4639 -0.5009
 8723SOL     OW26746   6.107   8.811   9.267 -0.1416 -0.0138 -0.0806
 8723SOL    HW126747   6.074   8.794   9.355  0.0645  1.4101  0.2890
 8723SOL    HW226748   6.173   8.879   9.278  0.1207 -0.0387 -1.3039
 8724SOL     OW26749   0.249   7.959   0.366 -0.1748  0.8286 -0.0360
 8724SOL    HW126750   0.339   7.966   0.399  0.2115  0.6931 -1.0296
 8724SOL    HW226751   0.200   8.025   0.415  0.2673  0.3066  1.1438
 8725SOL     OW26752   2.192   9.043   1.532 -0.2958  0.1908 -0.0494
 8725SOL    HW126753   2.252   9.022   1.604 -0.3699 -1.5272 -0.4545
 8725SOL    HW226754   2.242   9.102   1.476  0.0324  0.9466  0.9914
 8726SOL     OW26755   7.177   7.389   3.595  0.2024 -0.8093 -0.3709
 8726SOL    HW126756   7.086   7.367   3.616 -0.0062 -0.1034 -0.4913
 8726SOL    HW226757   7.198   7.334   3.519 -0.8223  0.4759 -1.6528
 8727SOL     OW26758   5.522   0.367   2.158  0.1940 -1.1556  0.2405
 8727SOL    HW126759   5.432   0.341   2.138 -1.0997  2.3183  0.7843
 8727SOL    HW226760   5.564   0.373   2.072 -0.8721 -0.5235 -0.2708
 8728SOL     OW26761   6.390   9.784   7.205 -0.1820 -0.5499  0.6786
 8728SOL    HW126762   6.391   9.774   7.301 -3.3742 -1.7058  0.7297
 8728SOL    HW226763   6.310   9.832   7.187  1.0797  0.9099 -1.4043
 8729SOL     OW26764   6.926   1.719   9.968  0.1680 -0.5246  0.0636
 8729SOL    HW126765   6.977   1.781  10.020  0.2944 -1.2790  0.8536
 8729SOL    HW226766   6.847   1.768   9.942 -0.2900 -0.3849  1.6563
 8730SOL     OW26767   6.288   8.677   3.696 -0.5031 -0.2061 -0.1909
 8730SOL    HW126768   6.221   8.616   3.664 -0.1408 -0.4109 -0.5752
 8730SOL    HW226769   6.277   8.755   3.642 -2.1031  0.7565  1.4517
 8731SOL     OW26770   1.576   7.453   2.786 -0.6490  0.0269 -0.3572
 8731SOL    HW126771   1.554   7.387   2.720  1.7164 -3.1403  1.6900
 8731SOL    HW226772   1.643   7.507   2.744 -2.6586  1.3315 -2.0963
 8732SOL     OW26773   2.215   5.385   0.694 -0.3793 -0.2817 -0.2651
 8732SOL    HW126774   2.257   5.373   0.609  0.3294  0.1347  0.0184
 8732SOL    HW226775   2.143   5.322   0.695  0.5008 -1.3152 -0.6014
 8733SOL     OW26776   7.474   9.689   7.540 -0.2148 -0.2934  0.5407
 8733SOL    HW126777   7.433   9.662   7.458  0.2957 -0.2611  0.2676
 8733SOL    HW226778   7.559   9.645   7.540 -0.0073  0.0974  0.8168
 8734SOL     OW26779   5.701   8.655   9.254  0.0116  0.0178 -0.3707
 8734SOL    HW126780   5.757   8.714   9.205  1.8871  0.8131  2.5129
 8734SOL    HW226781   5.697   8.692   9.342 -0.7363 -2.8420  0.9297
 8735SOL     OW26782   5.852   4.746   4.138 -0.7920 -0.1774 -0.1756
 8735SOL    HW126783   5.768   4.700   4.136 -1.6133  1.2386  0.2076
 8735SOL    HW226784   5.848   4.806   4.064 -0.4675  0.4768  0.3284
 8736SOL     OW26785   2.786   5.008   8.987 -0.1900 -0.0220 -0.4024
 8736SOL    HW126786   2.846   4.953   8.936  1.2871  0.5268  0.6885
 8736SOL    HW226787   2.751   4.949   9.053 -1.0491 -0.3945 -1.1657
 8737SOL     OW26788   8.089   4.853   5.866  0.3515 -0.0367 -0.1673
 8737SOL    HW126789   8.150   4.917   5.829  0.5515  0.4132  0.8953
 8737SOL    HW226790   8.020   4.906   5.906 -0.6334 -0.5368 -1.1440
 8738SOL     OW26791   8.961   5.615   1.694 -0.1457 -0.2189 -0.4637
 8738SOL    HW126792   9.044   5.658   1.673  0.0426 -1.1506 -1.7543
 8738SOL    HW226793   8.908   5.684   1.733  0.6750  0.8042 -1.0939
 8739SOL     OW26794   0.782   2.324   9.697 -0.0901 -0.5607 -0.2292
 8739SOL    HW126795   0.845   2.285   9.758  0.2398  0.0313 -0.1778
 8739SOL    HW226796   0.753   2.404   9.741  1.2592  0.6660 -1.4565
 8740SOL     OW26797   7.380   3.797   0.111 -0.4164 -0.0520  0.1885
 8740SOL    HW126798   7.451   3.856   0.136 -1.8690  1.7097  0.3654
 8740SOL    HW226799   7.385   3.725   0.173  1.9887 -0.6864 -0.6059
 8741SOL     OW26800   3.422   4.916   9.848  0.3268 -0.4275  0.2327
 8741SOL    HW126801   3.348   4.972   9.827  0.4382  0.9294  2.9603
 8741SOL    HW226802   3.494   4.950   9.794  0.2245  1.7277  1.3484
 8742SOL     OW26803   8.512   3.244   1.800  0.6617 -0.1915  0.1095
 8742SOL    HW126804   8.465   3.196   1.868 -0.1143 -0.0419 -0.3080
 8742SOL    HW226805   8.444   3.279   1.743  1.2924 -0.4593 -0.8518
 8743SOL     OW26806   0.930   9.476   8.204  0.5130  0.3316  0.2750
 8743SOL    HW126807   0.847   9.432   8.185 -0.6353  2.5036  0.0034
 8743SOL    HW226808   0.928   9.492   8.298  0.6418  0.3881  0.2689
 8744SOL     OW26809   4.133   6.505   4.205  0.1201 -0.5381 -0.5571
 8744SOL    HW126810   4.100   6.431   4.257 -0.7322  0.5950  0.5683
 8744SOL    HW226811   4.218   6.524   4.242  0.5418 -1.2143 -1.1436
 8745SOL     OW26812   1.941   8.690   4.256  0.2284 -0.1743  0.8936
 8745SOL    HW126813   1.929   8.774   4.300  1.8064  0.5209  0.1034
 8745SOL    HW226814   1.873   8.688   4.189  0.1080  0.4516  0.9894
 8746SOL     OW26815   0.748   9.141   9.513 -0.3726  0.6059 -0.3517
 8746SOL    HW126816   0.772   9.158   9.604 -1.3235  0.3045 -0.0367
 8746SOL    HW226817   0.832   9.128   9.468  0.1154  1.0466  0.4173
 8747SOL     OW26818   2.006   9.048   8.635 -0.4452  0.1617  0.0747
 8747SOL    HW126819   1.989   9.140   8.618  0.2199  0.6653  1.9171
 8747SOL    HW226820   1.999   9.039   8.730  1.4610 -1.2515  0.1468
 8748SOL     OW26821   6.800   4.696   9.180 -0.0426 -0.0440  0.2124
 8748SOL    HW126822   6.800   4.608   9.142  0.3647  0.2211 -0.4097
 8748SOL    HW226823   6.881   4.736   9.149 -0.5461  0.7847 -0.0593
 8749SOL     OW26824   8.069   1.210   7.275  0.4705 -0.3944  0.3656
 8749SOL    HW126825   8.086   1.127   7.232 -1.5155 -0.1864 -0.9688
 8749SOL    HW226826   8.101   1.276   7.214  4.7430 -0.0381  2.6415
 8750SOL     OW26827   6.681   0.213   2.424  0.1773 -0.0172  0.0015
 8750SOL    HW126828   6.679   0.292   2.477  0.9443  0.1064 -0.1422
 8750SOL    HW226829   6.705   0.243   2.336  0.6995 -0.4363 -0.0017
 8751SOL     OW26830   3.517   3.331   4.429  0.0591  0.0132 -0.2157
 8751SOL    HW126831   3.521   3.245   4.470  0.1155 -0.7700 -1.7901
 8751SOL    HW226832   3.517   3.393   4.503 -1.8443 -1.3619  1.0158
 8752SOL     OW26833   5.140   6.401   1.232  0.5283  0.1895 -0.3184
 8752SOL    HW126834   5.110   6.387   1.321 -2.6947  0.0689 -1.2958
 8752SOL    HW226835   5.144   6.497   1.223 -0.3337  0.2267 -0.3696
 8753SOL     OW26836   3.158   1.352   0.252  0.6172 -0.3276  0.0535
 8753SOL    HW126837   3.218   1.309   0.312 -0.8865 -0.7949  1.2758
 8753SOL    HW226838   3.121   1.281   0.200 -0.6323 -0.3603  0.9439
 8754SOL     OW26839   4.819   3.827   9.657  0.3266 -0.1859  0.4077
 8754SOL    HW126840   4.913   3.837   9.643  0.3153 -1.7783 -1.1741
 8754SOL    HW226841   4.798   3.890   9.727  2.0152  2.4097 -1.2308
 8755SOL     OW26842   9.527   3.781   8.888 -0.0429  0.5132  0.0637
 8755SOL    HW126843   9.492   3.869   8.905  1.2820  0.9663  0.5416
 8755SOL    HW226844   9.599   3.771   8.949 -0.9260 -1.4136  0.8878
 8756SOL     OW26845   5.029   7.226   2.355 -0.3312  0.2813 -0.2809
 8756SOL    HW126846   5.081   7.242   2.433 -0.5935 -0.1702 -0.0067
 8756SOL    HW226847   5.016   7.312   2.316 -2.0655  0.8205  1.3637
 8757SOL     OW26848   8.607   9.257   4.520 -0.7142  0.1811  0.1850
 8757SOL    HW126849   8.683   9.277   4.574  0.0535 -4.4398  1.2271
 8757SOL    HW226850   8.533   9.289   4.570  0.2910  0.9652  1.2237
 8758SOL     OW26851   9.172   2.663   7.663  0.6868 -0.3369 -0.3804
 8758SOL    HW126852   9.240   2.730   7.666  1.1432 -0.8145  0.5199
 8758SOL    HW226853   9.092   2.711   7.641  0.8110  0.6880  1.1959
 8759SOL     OW26854   1.910   7.081   9.778  1.0202  0.1391  0.0177
 8759SOL    HW126855   1.820   7.088   9.745  0.6166 -0.4602  0.9497
 8759SOL    HW226856   1.958   7.039   9.707  0.3049 -0.5703 -0.0602
 8760SOL     OW26857   1.812   3.405   7.770 -0.1067  0.7560  0.5250
 8760SOL    HW126858   1.720   3.426   7.786 -0.5737 -1.1082  0.5817
 8760SOL    HW226859   1.845   3.377   7.856  0.0898 -0.0167  0.2016
 8761SOL     OW26860   2.988   4.716   8.527  0.4945  0.4753 -0.2603
 8761SOL    HW126861   2.995   4.671   8.443  0.2619 -1.1444  0.5391
 8761SOL    HW226862   3.026   4.802   8.512 -1.2932  0.9671 -2.5309
 8762SOL     OW26863   0.333   3.514   7.700 -0.0235 -0.3465 -0.1197
 8762SOL    HW126864   0.349   3.606   7.677 -0.8281 -0.2780 -0.4316
 8762SOL    HW226865   0.283   3.519   7.782  1.0006 -0.5407  0.5281
 8763SOL     OW26866   8.129   9.404   5.703 -0.3389 -0.6528  0.0447
 8763SOL    HW126867   8.078   9.449   5.636 -0.7906 -0.3255  0.6020
 8763SOL    HW226868   8.119   9.311   5.682  1.4342 -0.5025 -1.7176
 8764SOL     OW26869   3.731   0.908   6.426 -0.0179 -0.4267  0.0039
 8764SOL    HW126870   3.650   0.959   6.417 -0.4692 -1.3393 -1.3610
 8764SOL    HW226871   3.798   0.964   6.385 -0.1724 -0.1823  0.0782
 8765SOL     OW26872   0.181   7.329   2.238 -0.4080  0.1845  0.2029
 8765SOL    HW126873   0.105   7.270   2.240 -0.5304  0.3539  1.2306
 8765SOL    HW226874   0.255   7.273   2.261 -0.1373 -0.0675 -1.1949
 8766SOL     OW26875   3.877   0.302   1.517  0.1900 -0.2777 -0.0792
 8766SOL    HW126876   3.914   0.374   1.466 -0.7086  0.0565 -0.2725
 8766SOL    HW226877   3.918   0.223   1.480  1.5921  0.1529  0.4928
 8767SOL     OW26878   3.067   8.157   9.445  0.3436 -0.2377  0.4587
 8767SOL    HW126879   3.106   8.121   9.525  0.5009 -2.6294 -0.6008
 8767SOL    HW226880   2.976   8.175   9.469  0.7178  0.3532  1.5044
 8768SOL     OW26881   5.272   8.120   4.432 -0.6556 -0.0812  0.3904
 8768SOL    HW126882   5.198   8.078   4.475 -1.1250 -1.3539 -1.5518
 8768SOL    HW226883   5.307   8.054   4.372  1.3558  0.8640  0.4213
 8769SOL     OW26884   7.726   8.646   9.875  0.1800  0.0723 -0.0318
 8769SOL    HW126885   7.680   8.625   9.957  1.1516 -2.8558 -0.1376
 8769SOL    HW226886   7.693   8.582   9.812  2.5800 -0.5762 -0.7331
 8770SOL     OW26887   0.361   5.257   2.297  0.1653 -0.0823 -0.1188
 8770SOL    HW126888   0.389   5.333   2.246  2.0505  0.1608  1.1658
 8770SOL    HW226889   0.332   5.294   2.381 -0.9062 -0.6270 -0.2386
 8771SOL     OW26890   8.969   9.554   5.322 -0.3533  0.1332 -0.6002
 8771SOL    HW126891   8.878   9.534   5.300 -0.8853  0.8376  0.8122
 8771SOL    HW226892   8.991   9.493   5.392 -0.7099  1.7709  1.0220
 8772SOL     OW26893   0.394   7.392   4.147  0.1561 -0.0419  0.2092
 8772SOL    HW126894   0.476   7.355   4.179  0.9561  1.6265  0.2002
 8772SOL    HW226895   0.419   7.477   4.111 -1.1803 -0.5967 -2.2134
 8773SOL     OW26896   0.458   1.238   9.518 -0.4523 -0.2496  0.0330
 8773SOL    HW126897   0.482   1.181   9.446 -0.3877 -0.5754  0.3115
 8773SOL    HW226898   0.475   1.326   9.485 -0.6243 -0.3831 -0.4250
 8774SOL     OW26899   1.741   5.697   2.084 -0.2168  0.1142  0.3626
 8774SOL    HW126900   1.683   5.772   2.068 -0.1556 -0.1842 -1.4943
 8774SOL    HW226901   1.786   5.718   2.166 -2.5055  0.6230  1.5567
 8775SOL     OW26902   7.780   4.133   2.948  0.2326 -0.1750 -0.3737
 8775SOL    HW126903   7.765   4.211   2.895  1.0256 -1.1194 -2.0888
 8775SOL    HW226904   7.867   4.104   2.922 -0.3884 -2.1059 -0.4488
 8776SOL     OW26905   7.011   0.289   8.210  0.4091  0.1844  0.0700
 8776SOL    HW126906   7.089   0.302   8.265 -1.3125  3.0896  2.1301
 8776SOL    HW226907   6.948   0.246   8.268 -0.2438 -0.1296 -0.8522
 8777SOL     OW26908   5.989   7.765   2.460  0.0255 -0.4159  0.5160
 8777SOL    HW126909   5.991   7.732   2.549  0.1269 -0.4706  0.4936
 8777SOL    HW226910   5.918   7.717   2.418  0.8310 -1.3677  0.1874
 8778SOL     OW26911   2.766   6.678   3.999  0.3624 -0.2638  0.4521
 8778SOL    HW126912   2.672   6.675   3.982  0.1694 -2.3546  1.5396
 8778SOL    HW226913   2.778   6.756   4.054 -1.3138 -1.6500  2.9970
 8779SOL     OW26914   8.098   0.280   0.444 -0.6288  0.3553  0.0334
 8779SOL    HW126915   8.030   0.280   0.511  0.1389  1.3612  0.8563
 8779SOL    HW226916   8.174   0.240   0.487 -0.6156 -0.5343 -0.7906
 8780SOL     OW26917   2.610   9.441   8.227 -0.5419  0.4599 -0.5588
 8780SOL    HW126918   2.649   9.424   8.141 -0.1105  0.5036 -0.3722
 8780SOL    HW226919   2.550   9.368   8.241  1.9876 -1.5309  0.6596
 8781SOL     OW26920   5.996   0.622   3.566 -0.0898 -0.0069 -0.2589
 8781SOL    HW126921   6.070   0.617   3.627 -0.7579  0.7572  0.6355
 8781SOL    HW226922   6.024   0.685   3.500 -0.6255  1.7381  1.1063
 8782SOL     OW26923   6.645   8.249   9.659  1.2636 -0.3409  0.0797
 8782SOL    HW126924   6.624   8.185   9.591  0.0398  0.1907 -0.0774
 8782SOL    HW226925   6.692   8.199   9.726 -0.3506 -1.5876  0.3346
 8783SOL     OW26926   7.726   0.709   1.950  0.2694 -0.2027  0.2294
 8783SOL    HW126927   7.705   0.801   1.964 -0.1417 -0.1219 -0.8544
 8783SOL    HW226928   7.689   0.664   2.026 -0.2997  0.4176  0.3279
 8784SOL     OW26929   3.983   3.635   0.023 -0.6759 -0.4232  0.0599
 8784SOL    HW126930   3.906   3.680   0.057 -0.0682  1.6618 -1.1215
 8784SOL    HW226931   3.953   3.547   0.004 -1.6411 -1.0296  3.6199
 8785SOL     OW26932   2.813   9.175   8.700  0.1303  0.3745  0.3315
 8785SOL    HW126933   2.840   9.214   8.617  2.5246  0.2202  0.9788
 8785SOL    HW226934   2.740   9.117   8.676  0.6103  0.4918 -1.6070
 8786SOL     OW26935   7.269   3.885   8.688  0.2248  0.3001  0.0788
 8786SOL    HW126936   7.267   3.921   8.776  3.3163  0.5839  0.1198
 8786SOL    HW226937   7.182   3.905   8.653 -1.3664 -0.4526  3.2211
 8787SOL     OW26938   2.416   5.447   6.194 -0.4098  0.1612 -0.2140
 8787SOL    HW126939   2.465   5.524   6.165  0.5482 -0.7717 -1.1639
 8787SOL    HW226940   2.455   5.424   6.278 -0.0070  0.1387 -0.4011
 8788SOL     OW26941   2.883   5.171   2.247  0.5015  0.3549  0.1288
 8788SOL    HW126942   2.792   5.143   2.251  0.5397  0.3253  1.1740
 8788SOL    HW226943   2.881   5.264   2.271  0.9829 -0.2554  2.8189
 8789SOL     OW26944   7.652   0.148   9.715 -0.7592  0.0422  0.2222
 8789SOL    HW126945   7.576   0.205   9.703 -0.0562  0.8017 -0.8079
 8789SOL    HW226946   7.663   0.142   9.810 -0.9235  1.5656  0.3666
 8790SOL     OW26947   0.403   1.242   2.209 -0.6111  0.7421 -0.2407
 8790SOL    HW126948   0.380   1.328   2.173  0.9478  1.9764  1.5234
 8790SOL    HW226949   0.402   1.255   2.304  3.4674 -0.0329  0.0762
 8791SOL     OW26950   7.478   6.323   8.687  0.6143 -0.2498 -0.7729
 8791SOL    HW126951   7.421   6.272   8.744 -0.1070  0.5263 -0.7735
 8791SOL    HW226952   7.566   6.308   8.721  0.4444 -1.6509 -0.9209
 8792SOL     OW26953   7.048   0.476   5.590  0.6641  0.1253  0.2625
 8792SOL    HW126954   6.979   0.460   5.655 -0.6094  1.8628 -0.5697
 8792SOL    HW226955   7.120   0.514   5.641  0.4896 -0.4629  0.9613
 8793SOL     OW26956   1.038   7.426   6.523  0.0170 -0.2887  0.1608
 8793SOL    HW126957   1.030   7.521   6.509 -0.3799 -0.0097  1.9456
 8793SOL    HW226958   0.955   7.401   6.564  0.1470 -1.4134 -0.2257
 8794SOL     OW26959   5.925   2.007   9.808  0.1303  0.5183  0.2109
 8794SOL    HW126960   6.013   2.024   9.774 -0.6347  0.6209 -1.8808
 8794SOL    HW226961   5.869   2.006   9.730 -1.2978 -2.4025  1.1145
 8795SOL     OW26962   8.764   4.759   4.490  0.7552  0.5868  0.2558
 8795SOL    HW126963   8.819   4.682   4.509  0.3312 -0.2366 -1.6236
 8795SOL    HW226964   8.679   4.722   4.467  0.1738  1.7199  0.5362
 8796SOL     OW26965   4.479   0.234   8.924  0.3696 -0.0608 -0.6138
 8796SOL    HW126966   4.541   0.163   8.941 -0.0227 -0.3092 -0.1948
 8796SOL    HW226967   4.531   0.301   8.879  0.6955 -0.6890 -1.1896
 8797SOL     OW26968   3.661   4.586   2.168  0.0945  0.2102  0.4333
 8797SOL    HW126969   3.677   4.492   2.154  1.6892  0.5757 -0.5525
 8797SOL    HW226970   3.659   4.596   2.263  2.3265 -0.5240  0.6284
 8798SOL     OW26971   5.663   0.007   0.416  0.4562  0.6303  0.5585
 8798SOL    HW126972   5.578   0.048   0.433 -0.1360 -0.3241 -0.0185
 8798SOL    HW226973   5.694  -0.020   0.503  0.8190  2.1586  0.9398
 8799SOL     OW26974   8.914   4.597   2.953 -0.1019  0.2834  0.3310
 8799SOL    HW126975   8.853   4.582   2.880 -3.1265  1.4546  2.3912
 8799SOL    HW226976   8.945   4.687   2.940  0.1729  0.1406 -0.0241
 8800SOL     OW26977   1.399   5.535   3.704  0.0227 -0.1748  0.2990
 8800SOL    HW126978   1.432   5.507   3.789 -0.3565 -2.1414 -0.1549
 8800SOL    HW226979   1.478   5.555   3.653  0.7874 -5.0291 -0.8524
 8801SOL     OW26980   6.149   5.867   7.490 -0.0940  0.0714  0.0412
 8801SOL    HW126981   6.203   5.894   7.416 -2.0167  0.8430 -1.1469
 8801SOL    HW226982   6.158   5.772   7.494 -0.1963 -0.0131 -1.3948
 8802SOL     OW26983   7.863   7.614   8.109  0.1574  0.1882 -0.2512
 8802SOL    HW126984   7.830   7.588   8.196  0.7629 -0.8760 -0.3199
 8802SOL    HW226985   7.890   7.531   8.068 -2.4895  0.2837 -2.4899
 8803SOL     OW26986   6.238   1.417   8.410  0.1428 -0.2286 -0.1254
 8803SOL    HW126987   6.300   1.367   8.462 -0.1750 -1.2838 -0.7194
 8803SOL    HW226988   6.267   1.405   8.319 -0.0693  0.4875 -0.2952
 8804SOL     OW26989   9.398   4.372   6.353  0.5362 -0.3983  0.3781
 8804SOL    HW126990   9.317   4.402   6.312  1.1194  1.5540  0.5399
 8804SOL    HW226991   9.377   4.369   6.447  0.9543  1.3802  0.5713
 8805SOL     OW26992   2.265   8.236   7.291 -0.5251  0.6908 -0.6073
 8805SOL    HW126993   2.274   8.229   7.386 -0.1776 -1.4661 -0.7539
 8805SOL    HW226994   2.300   8.322   7.270  1.1189  0.4828  1.0456
 8806SOL     OW26995   5.177   3.449   9.146  0.2997  0.0096 -0.0391
 8806SOL    HW126996   5.217   3.443   9.233 -0.1637 -0.3612  0.1482
 8806SOL    HW226997   5.222   3.381   9.095 -0.9795 -1.3120  0.5298
 8807SOL     OW26998   0.299   6.351   5.516  0.7609  0.3160  0.5685
 8807SOL    HW126999   0.296   6.445   5.529  1.4735  0.3381  0.6114
 8807SOL    HW227000   0.313   6.340   5.422  0.5614  0.2485  0.5458
 8808SOL     OW27001   3.550   7.969   4.326  0.0145 -0.4388 -0.5493
 8808SOL    HW127002   3.493   7.959   4.402  0.8136 -2.6403 -0.1832
 8808SOL    HW227003   3.639   7.963   4.360  0.3943 -0.8832 -1.5674
 8809SOL     OW27004   0.408   4.316   3.182  0.7529 -0.1472  0.3777
 8809SOL    HW127005   0.371   4.310   3.094  0.7658 -2.2981  0.4628
 8809SOL    HW227006   0.355   4.382   3.226 -0.8354 -0.7728 -0.5251
 8810SOL     OW27007   4.630   3.496   3.687  0.3553 -0.3966  0.2732
 8810SOL    HW127008   4.688   3.421   3.698  0.4656 -0.3033  0.3283
 8810SOL    HW227009   4.553   3.474   3.740 -0.1307 -1.0021 -0.6483
 8811SOL     OW27010   2.048   8.647   9.550 -0.4311 -0.0648 -0.1303
 8811SOL    HW127011   2.130   8.669   9.594  0.8167  0.0508 -2.3339
 8811SOL    HW227012   1.990   8.721   9.568 -0.7719 -0.9608  2.9648
 8812SOL     OW27013   7.640   9.608   0.751  0.2741 -0.4248 -0.5221
 8812SOL    HW127014   7.614   9.655   0.830  0.1613 -0.1614 -0.7166
 8812SOL    HW227015   7.566   9.619   0.690  0.4176 -0.5124 -0.7150
 8813SOL     OW27016   8.766   3.002   6.171 -0.2406 -0.2554  0.1323
 8813SOL    HW127017   8.743   3.077   6.116 -2.5060 -0.2778  0.9275
 8813SOL    HW227018   8.689   2.988   6.226  0.7849 -2.1067  1.2190
 8814SOL     OW27019   3.037   6.522   6.000  0.2936 -0.0919  0.0144
 8814SOL    HW127020   3.083   6.440   5.987  0.8813  0.4102 -1.1973
 8814SOL    HW227021   3.088   6.569   6.066  2.7547  1.2943 -2.6846
 8815SOL     OW27022   2.254   7.235   7.834  0.6853  0.4144  0.0782
 8815SOL    HW127023   2.163   7.257   7.816  0.2461 -1.1165  0.3160
 8815SOL    HW227024   2.300   7.249   7.750 -0.7827 -3.8157 -1.7326
 8816SOL     OW27025   5.296   6.317   8.606  0.1123  0.0787  0.1991
 8816SOL    HW127026   5.234   6.361   8.548  0.0959  1.2210  1.0758
 8816SOL    HW227027   5.286   6.224   8.583 -1.6974  0.2490  0.1070
 8817SOL     OW27028   5.774   4.148   0.347  0.3142 -0.4249  0.6127
 8817SOL    HW127029   5.712   4.210   0.384  2.2334  1.3771  0.9579
 8817SOL    HW227030   5.726   4.105   0.277 -1.6516  0.0832  1.5888
 8818SOL     OW27031   3.206   6.911   6.693  0.0295  0.2721 -0.1228
 8818SOL    HW127032   3.206   6.834   6.749  2.2061  0.2026 -0.1523
 8818SOL    HW227033   3.183   6.983   6.752  1.9466  0.1509  0.8594
 8819SOL     OW27034   0.777   7.580   5.755  0.3676 -0.0077  0.0528
 8819SOL    HW127035   0.749   7.586   5.663  1.0320 -0.5323 -0.1987
 8819SOL    HW227036   0.863   7.622   5.756  0.9776 -1.2155  0.1346
 8820SOL     OW27037   3.644   4.697   1.877  0.2954  0.5788 -0.1170
 8820SOL    HW127038   3.597   4.687   1.794 -0.0766 -1.0342  0.2451
 8820SOL    HW227039   3.576   4.691   1.944  0.3806  3.3802  0.3318
 8821SOL     OW27040   8.947   7.876   6.683 -0.3466  0.0438  0.3662
 8821SOL    HW127041   8.904   7.936   6.743 -0.8827 -1.9284  2.0745
 8821SOL    HW227042   9.041   7.891   6.696 -0.4535 -0.3838  1.7809
 8822SOL     OW27043   3.086   9.036   8.922 -0.3382 -0.1211 -0.4324
 8822SOL    HW127044   3.064   9.113   8.974  0.4407  0.7880 -1.4269
 8822SOL    HW227045   3.182   9.030   8.927 -0.4673 -1.9374  0.8988
 8823SOL     OW27046   5.583   3.452   5.001  0.9927 -0.1530 -0.0755
 8823SOL    HW127047   5.600   3.487   4.914 -0.3553  1.2722  0.1853
 8823SOL    HW227048   5.600   3.526   5.060  0.3838 -0.6424  0.7308
 8824SOL     OW27049   7.582   7.184   2.881 -0.2900 -0.3761  0.0387
 8824SOL    HW127050   7.530   7.108   2.854  0.4678 -1.0223  0.3827
 8824SOL    HW227051   7.574   7.245   2.807 -0.9835 -0.7418 -0.1998
 8825SOL     OW27052   5.510   0.275   4.740 -0.5062 -0.3718  0.1720
 8825SOL    HW127053   5.536   0.184   4.734 -0.4512 -0.3810  0.5763
 8825SOL    HW227054   5.441   0.285   4.673  1.2859 -0.0684 -1.7319
 8826SOL     OW27055   4.619   8.696   4.840  0.1102  0.6984  0.0971
 8826SOL    HW127056   4.561   8.649   4.782 -0.7650 -0.5832  1.9118
 8826SOL    HW227057   4.701   8.704   4.792 -0.5935 -0.2513 -1.2906
 8827SOL     OW27058   5.007   3.086   3.405  0.3241 -0.0435  0.6039
 8827SOL    HW127059   5.076   3.148   3.426 -0.0521  0.8757 -0.7721
 8827SOL    HW227060   5.049   3.000   3.412  1.1486  0.4108  1.3962
 8828SOL     OW27061   3.539   6.341   8.174 -0.1643  0.0306 -0.0446
 8828SOL    HW127062   3.593   6.326   8.096 -0.9397  0.2220 -0.6335
 8828SOL    HW227063   3.449   6.335   8.142 -0.4947  1.0138  0.6706
 8829SOL     OW27064   6.182   9.372   3.730  0.4719  0.1288 -0.1698
 8829SOL    HW127065   6.109   9.396   3.673  1.3021  0.2405 -1.1985
 8829SOL    HW227066   6.140   9.333   3.807 -0.6437 -0.7844 -1.1936
 8830SOL     OW27067   7.659   7.769   1.037 -0.1565 -0.7525 -0.2885
 8830SOL    HW127068   7.730   7.710   1.012  0.0181 -0.5413 -0.2970
 8830SOL    HW227069   7.701   7.855   1.043 -0.3450 -0.6830  0.0316
 8831SOL     OW27070   7.664   9.177   3.157 -0.0611  0.4363  0.3781
 8831SOL    HW127071   7.656   9.241   3.227  0.6479  0.5948  0.3215
 8831SOL    HW227072   7.653   9.092   3.200 -1.9082  0.6108  0.3086
 8832SOL     OW27073   0.750   5.129   1.644 -0.2349 -0.1609  0.6675
 8832SOL    HW127074   0.663   5.167   1.635  0.3337  0.9250 -0.5975
 8832SOL    HW227075   0.805   5.202   1.674  0.3556 -0.6925  0.9165
 8833SOL     OW27076   5.926   0.355   3.624 -0.1191 -0.1544 -0.7103
 8833SOL    HW127077   5.972   0.294   3.568 -1.5431 -1.0695 -0.9319
 8833SOL    HW227078   5.964   0.441   3.604  2.4028 -1.0040  0.1206
 8834SOL     OW27079   4.398   4.974   5.561  0.2079 -0.4849 -0.3645
 8834SOL    HW127080   4.440   4.940   5.482 -0.7333 -0.8558 -0.7130
 8834SOL    HW227081   4.339   4.904   5.589 -1.4118  0.6427 -0.8275
 8835SOL     OW27082   4.654   7.454   8.776 -0.2569 -0.3614  0.0456
 8835SOL    HW127083   4.714   7.485   8.709 -0.2445  0.5263  0.4634
 8835SOL    HW227084   4.586   7.408   8.727 -1.1287  1.6641 -0.7482
 8836SOL     OW27085   9.299   9.914   5.483  0.2820 -0.1311  0.0100
 8836SOL    HW127086   9.302   9.895   5.577 -1.0889  1.4483  0.4277
 8836SOL    HW227087   9.338   9.837   5.442 -0.6107 -1.6258  1.7805
 8837SOL     OW27088   9.473   7.881   0.174 -0.3229 -0.2067  0.4680
 8837SOL    HW127089   9.491   7.934   0.252 -0.2575  1.6891 -0.7825
 8837SOL    HW227090   9.377   7.877   0.170 -0.4082  1.6375 -0.5357
 8838SOL     OW27091   0.341   0.640   2.379  0.1194  0.1405  0.1542
 8838SOL    HW127092   0.282   0.714   2.379  1.0019  0.8606  0.2593
 8838SOL    HW227093   0.349   0.615   2.287 -1.0080 -0.5239  0.2163
 8839SOL     OW27094   8.280   9.899   4.757 -0.9635 -0.3193  0.1748
 8839SOL    HW127095   8.283   9.986   4.795  0.3605 -0.0746 -0.4222
 8839SOL    HW227096   8.286   9.840   4.832 -0.8876  0.1146  0.5139
 8840SOL     OW27097   6.678   9.565   0.347 -0.0138 -0.7914  0.0641
 8840SOL    HW127098   6.727   9.578   0.266  0.4486  0.0620  0.4655
 8840SOL    HW227099   6.647   9.653   0.370  1.8972 -0.5689  2.0724
 8841SOL     OW27100   4.664   6.364   2.962 -0.7023 -0.3831 -1.2858
 8841SOL    HW127101   4.746   6.326   2.996 -0.3684  0.0257 -1.6212
 8841SOL    HW227102   4.630   6.296   2.904 -2.0215 -1.7099  0.8678
 8842SOL     OW27103   1.692   1.165   2.489  0.6304 -0.2202  0.1220
 8842SOL    HW127104   1.644   1.223   2.430 -2.2392 -1.5458  0.9976
 8842SOL    HW227105   1.658   1.185   2.576  1.2164 -1.6580  0.7124
 8843SOL     OW27106   2.721   6.996   0.323 -0.2721 -0.0164  0.1298
 8843SOL    HW127107   2.668   7.026   0.396 -0.8961 -0.7186 -0.0163
 8843SOL    HW227108   2.680   7.034   0.245  3.0746  4.7633  0.2709
 8844SOL     OW27109   6.468   8.705   5.855  0.0988 -0.5298 -0.6267
 8844SOL    HW127110   6.441   8.717   5.946 -0.5838 -1.6071 -0.6596
 8844SOL    HW227111   6.388   8.718   5.804  0.4882  0.1264 -1.0821
 8845SOL     OW27112   6.599   5.821   8.554  0.4613 -0.4220 -0.6798
 8845SOL    HW127113   6.504   5.823   8.558  0.4341 -1.4697  2.9116
 8845SOL    HW227114   6.619   5.768   8.477 -1.8142 -0.1815 -1.5120
 8846SOL     OW27115   3.469   9.527   3.324  0.1425 -0.7166 -0.1639
 8846SOL    HW127116   3.433   9.457   3.269  0.9831 -1.6773  0.4642
 8846SOL    HW227117   3.563   9.528   3.303  0.3784 -0.7180  0.8420
 8847SOL     OW27118   0.560   8.674   8.234  0.2837 -0.0993  0.1062
 8847SOL    HW127119   0.506   8.614   8.182  1.5423 -2.0066  0.8647
 8847SOL    HW227120   0.509   8.754   8.240 -2.1002 -1.5314  0.1261
 8848SOL     OW27121   3.704   8.448   8.418  0.1592  0.6828 -0.0524
 8848SOL    HW127122   3.615   8.475   8.395  0.1211  1.2660  0.7447
 8848SOL    HW227123   3.752   8.530   8.428  0.9426  0.3607 -1.0233
 8849SOL     OW27124   8.158   8.182   5.956 -0.2595  0.2544 -0.5194
 8849SOL    HW127125   8.160   8.097   5.912  0.4423 -0.6911  1.2202
 8849SOL    HW227126   8.111   8.165   6.038  0.5885  1.3364  0.2132
 8850SOL     OW27127   9.912   4.669   1.396 -0.0098  0.0822  0.4389
 8850SOL    HW127128   9.858   4.705   1.466  1.6127  1.5907  0.9940
 8850SOL    HW227129   9.898   4.728   1.322  0.9236  0.5523  0.6232
 8851SOL     OW27130   9.332   2.480   5.323  0.0933 -0.2946 -0.4038
 8851SOL    HW127131   9.388   2.404   5.335  1.3674  0.7607  0.6685
 8851SOL    HW227132   9.379   2.552   5.365 -2.8962  0.3286  2.2402
 8852SOL     OW27133   9.184   2.837   8.397 -0.1778  0.0648  0.2897
 8852SOL    HW127134   9.154   2.792   8.318 -0.9514 -0.3977  0.8278
 8852SOL    HW227135   9.278   2.820   8.401 -0.6813 -3.1893  1.4851
 8853SOL     OW27136   6.882   7.111   6.678 -0.0616 -0.1367 -0.2515
 8853SOL    HW127137   6.804   7.162   6.655  1.1252  1.7977 -0.2372
 8853SOL    HW227138   6.935   7.110   6.598 -0.1175 -1.4952 -0.2856
 8854SOL     OW27139   0.310   6.473   2.714  0.7128 -0.1401  0.1675
 8854SOL    HW127140   0.311   6.566   2.691  0.5457 -0.4388 -1.1096
 8854SOL    HW227141   0.219   6.454   2.735  0.4741 -0.3521 -1.0365
 8855SOL     OW27142   4.163   5.588   0.481 -0.3789 -0.7380 -0.1654
 8855SOL    HW127143   4.103   5.659   0.459  0.0248 -0.2298  0.3443
 8855SOL    HW227144   4.150   5.523   0.412 -1.3821 -0.5578 -0.1491
 8856SOL     OW27145   9.000   8.140   5.726  0.2644 -0.0838  0.3929
 8856SOL    HW127146   8.957   8.055   5.729  0.0389 -0.0191 -0.6598
 8856SOL    HW227147   9.087   8.122   5.690  0.8379 -0.0873  1.7008
 8857SOL     OW27148   1.129   0.631   7.190  0.0673  0.3955 -0.4965
 8857SOL    HW127149   1.217   0.634   7.151  0.5258  1.5028  0.5414
 8857SOL    HW227150   1.132   0.557   7.250 -0.1002 -0.2948 -1.3349
 8858SOL     OW27151   9.367   6.743   4.062 -0.3348 -0.6259 -0.0548
 8858SOL    HW127152   9.440   6.757   4.002 -0.4363  0.8902  0.1158
 8858SOL    HW227153   9.376   6.814   4.127 -0.5099 -1.9129  1.4352
 8859SOL     OW27154   7.094   9.642   9.201 -0.8137 -0.7700  0.4422
 8859SOL    HW127155   7.031   9.615   9.268 -1.8485  3.1066  1.2681
 8859SOL    HW227156   7.125   9.727   9.230  1.6207 -0.6104 -2.1665
 8860SOL     OW27157   6.384   5.899   8.255 -0.1204  0.2860 -0.1202
 8860SOL    HW127158   6.322   5.827   8.265 -0.9633  0.8724 -0.9255
 8860SOL    HW227159   6.364   5.958   8.328 -0.0901  0.1738 -0.0219
 8861SOL     OW27160   7.611   3.528   7.669  0.8622 -0.3498  0.1031
 8861SOL    HW127161   7.529   3.570   7.643  0.2192 -1.3568  0.4349
 8861SOL    HW227162   7.676   3.561   7.606 -0.1089 -0.6815 -1.1168
 8862SOL     OW27163   3.316   7.486   1.499  0.5644 -0.0892  0.2076
 8862SOL    HW127164   3.251   7.554   1.480 -1.5838 -1.4858  1.9279
 8862SOL    HW227165   3.353   7.510   1.584 -0.4204 -1.1229  0.9698
 8863SOL     OW27166   1.337   7.868   2.009  1.1842  0.0827 -0.1459
 8863SOL    HW127167   1.342   7.928   2.084 -1.2442 -0.9647  0.9756
 8863SOL    HW227168   1.244   7.848   2.002  1.5969 -1.2685 -2.3495
 8864SOL     OW27169   6.342   7.820   7.075  0.0744 -0.0337 -0.1410
 8864SOL    HW127170   6.254   7.786   7.054 -1.1795  2.0965  1.3092
 8864SOL    HW227171   6.369   7.866   6.996 -1.1234  1.1720  0.1099
 8865SOL     OW27172   6.655   6.534   9.694  0.3675  0.0475  0.0808
 8865SOL    HW127173   6.622   6.457   9.740 -1.4106  0.5351 -0.3299
 8865SOL    HW227174   6.707   6.581   9.760 -0.1405 -0.5050  0.8835
 8866SOL     OW27175   8.085   0.040   1.874  0.1746 -0.2333  0.0854
 8866SOL    HW127176   8.038   0.005   1.950  0.1228  0.8370  0.5571
 8866SOL    HW227177   8.177   0.038   1.900  0.1168  0.5809  0.3729
 8867SOL     OW27178   7.355   4.045   0.943  0.5006 -0.1309  0.8061
 8867SOL    HW127179   7.285   4.102   0.909  0.3416  0.2111  1.6946
 8867SOL    HW227180   7.316   4.001   1.018  1.2210  0.0030  1.2628
 8868SOL     OW27181   2.699   6.291   2.101  0.0190 -0.0381 -0.2335
 8868SOL    HW127182   2.673   6.204   2.069 -0.4485 -0.5600  1.4316
 8868SOL    HW227183   2.660   6.296   2.188  0.4808  1.6538 -0.0958
 8869SOL     OW27184   6.932   2.129   3.542 -0.3822 -0.3049  0.1862
 8869SOL    HW127185   6.993   2.151   3.612 -0.3311  0.1801 -0.0027
 8869SOL    HW227186   6.846   2.126   3.584 -0.2602 -0.7465  0.4057
 8870SOL     OW27187   5.215   2.358   9.251 -0.2355 -0.4363 -0.4141
 8870SOL    HW127188   5.272   2.434   9.242 -1.2036  0.5646  1.3153
 8870SOL    HW227189   5.216   2.317   9.164 -0.0046  1.7699 -1.5311
 8871SOL     OW27190   2.466   0.271   2.579  0.2618 -0.4190 -0.2020
 8871SOL    HW127191   2.421   0.322   2.646  1.5174  0.5625 -0.0575
 8871SOL    HW227192   2.459   0.181   2.609 -0.8765 -0.2066  0.2241
 8872SOL     OW27193   7.186   1.906   6.258 -0.2281  0.2128  0.2992
 8872SOL    HW127194   7.240   1.862   6.324 -0.9025 -0.5312  0.3554
 8872SOL    HW227195   7.111   1.940   6.306 -0.9316 -0.6877 -0.1476
 8873SOL     OW27196   1.461   6.936   9.417  0.2787  0.0778 -0.2766
 8873SOL    HW127197   1.435   6.879   9.345 -1.6652 -1.5918  1.6144
 8873SOL    HW227198   1.494   6.877   9.484 -0.2050  1.3094  1.1125
 8874SOL     OW27199   6.801   4.910   2.930  0.1253 -0.1835 -0.0030
 8874SOL    HW127200   6.863   4.957   2.985  0.2487  0.7498 -0.9187
 8874SOL    HW227201   6.740   4.870   2.991  0.3203  0.7474  0.8108
 8875SOL     OW27202   2.366   5.335   8.078  0.5030 -0.3704 -0.0888
 8875SOL    HW127203   2.364   5.243   8.053  1.4653 -0.9469  1.7681
 8875SOL    HW227204   2.420   5.337   8.157  0.0471  1.7181  0.2212
 8876SOL     OW27205   6.488   7.101   8.454 -0.0666  0.0721 -0.1980
 8876SOL    HW127206   6.525   7.015   8.436  0.6633  0.1445  0.8463
 8876SOL    HW227207   6.561   7.162   8.438 -1.6084  1.0648 -5.1565
 8877SOL     OW27208   8.721   7.184   3.718  0.6578 -0.0225  0.0372
 8877SOL    HW127209   8.727   7.102   3.767  1.1424  0.6906  1.2074
 8877SOL    HW227210   8.805   7.193   3.674 -0.0186 -1.0065 -1.5477
 8878SOL     OW27211   6.676   8.697   8.658 -0.3299 -0.3583 -0.0051
 8878SOL    HW127212   6.756   8.652   8.632 -0.0511  0.4078 -0.5065
 8878SOL    HW227213   6.608   8.630   8.654 -0.0728 -0.5505 -1.5290
 8879SOL     OW27214   3.791   1.506   8.055  0.2497 -0.1248 -0.1328
 8879SOL    HW127215   3.792   1.419   8.014 -0.0612  0.0738 -0.5621
 8879SOL    HW227216   3.702   1.515   8.088  0.1148  0.2737 -0.6047
 8880SOL     OW27217   2.911   2.027   4.849  0.2464  0.0237  0.3421
 8880SOL    HW127218   2.957   2.086   4.790  1.0661 -0.5465  0.3931
 8880SOL    HW227219   2.931   2.060   4.937 -0.2994  0.3892  0.3296
 8881SOL     OW27220   6.486   3.941   9.263 -0.2049 -0.6975 -0.4166
 8881SOL    HW127221   6.580   3.920   9.268  0.2004  1.2901  1.7705
 8881SOL    HW227222   6.483   4.026   9.218 -1.1537 -1.5088 -1.9832
 8882SOL     OW27223   0.134   4.262   7.804 -0.4145 -0.8650  0.1856
 8882SOL    HW127224   0.203   4.310   7.850 -0.3918 -1.3389  0.6725
 8882SOL    HW227225   0.080   4.329   7.762  1.1229 -0.5328 -1.3610
 8883SOL     OW27226   0.768   5.050   9.567  0.6501 -0.2280  0.4640
 8883SOL    HW127227   0.845   5.023   9.518  1.3569  1.3973  0.6194
 8883SOL    HW227228   0.709   5.088   9.501  1.1232  0.9230  0.6747
 8884SOL     OW27229   1.706   2.540   0.907 -0.2403 -0.2597  0.2241
 8884SOL    HW127230   1.618   2.542   0.869  0.0933  1.4453 -0.5428
 8884SOL    HW227231   1.709   2.617   0.965  1.0043  0.2203 -0.4281
 8885SOL     OW27232   2.897   2.838   5.451 -0.5288  0.2559 -0.5972
 8885SOL    HW127233   2.941   2.847   5.366  0.5167  2.5011  0.1065
 8885SOL    HW227234   2.806   2.818   5.429 -0.4451  1.5063 -2.2987
 8886SOL     OW27235   8.496   7.883   5.553 -0.9961 -0.1147 -0.6944
 8886SOL    HW127236   8.576   7.876   5.500 -0.4818  0.5191 -0.0212
 8886SOL    HW227237   8.521   7.849   5.638 -1.2056  0.8398 -0.2402
 8887SOL     OW27238   6.945   3.822   9.738 -0.1828 -0.2126 -0.2577
 8887SOL    HW127239   6.999   3.795   9.813  0.0619 -0.5255 -0.5416
 8887SOL    HW227240   6.898   3.899   9.769  0.3662  0.0183  0.0244
 8888SOL     OW27241   7.129   9.950   8.507  0.2863 -0.4294  0.4942
 8888SOL    HW127242   7.069   9.910   8.444 -0.6467  0.7269  0.6199
 8888SOL    HW227243   7.072   9.992   8.571  1.2312  0.3021  0.8773
 8889SOL     OW27244   7.351   8.133   9.337  0.3671 -0.0268  0.3929
 8889SOL    HW127245   7.385   8.123   9.426 -1.5977  3.0311  1.6223
 8889SOL    HW227246   7.428   8.150   9.284  1.8114 -3.5922  1.0135
 8890SOL     OW27247   4.733   1.425   1.366 -0.5314  0.0943  0.2797
 8890SOL    HW127248   4.696   1.508   1.397 -1.0723  0.3827 -1.0810
 8890SOL    HW227249   4.736   1.433   1.271  1.4075 -0.6346  0.2379
 8891SOL     OW27250   3.726   9.563   7.039  0.0938 -0.2283  0.0545
 8891SOL    HW127251   3.644   9.600   7.006 -1.0095 -1.4936  1.2927
 8891SOL    HW227252   3.765   9.520   6.963 -0.6217 -0.0546 -0.4221
 8892SOL     OW27253   5.933   9.072   3.516  0.5668  0.0428  0.2469
 8892SOL    HW127254   5.883   9.039   3.441 -0.9589  3.2156 -0.2908
 8892SOL    HW227255   5.884   9.149   3.546  2.7552  0.6518  2.6315
 8893SOL     OW27256   5.773   0.840   4.445 -0.2808 -0.3828 -0.2617
 8893SOL    HW127257   5.767   0.841   4.350 -0.5047 -0.8949 -0.2570
 8893SOL    HW227258   5.831   0.767   4.465 -1.8909 -1.6411  0.0598
 8894SOL     OW27259   0.857   6.655   3.061  0.2696  0.8040 -0.3997
 8894SOL    HW127260   0.809   6.585   3.017 -0.0371  0.2708  0.7506
 8894SOL    HW227261   0.931   6.611   3.103 -0.8732  0.8616  1.7780
 8895SOL     OW27262   6.036   3.523   0.638  0.2869 -0.3458  0.2065
 8895SOL    HW127263   5.948   3.487   0.635 -0.0850  0.5923 -1.1797
 8895SOL    HW227264   6.060   3.521   0.731 -0.2955 -2.6379  0.3601
 8896SOL     OW27265   7.583   8.988   3.362 -0.5657 -0.3250 -0.0834
 8896SOL    HW127266   7.519   8.928   3.324 -1.1248 -1.2521  2.1273
 8896SOL    HW227267   7.654   8.932   3.393  0.4097  0.5062 -0.7289
 8897SOL     OW27268   9.272   3.937   3.294  0.3273 -0.0555  0.3580
 8897SOL    HW127269   9.351   3.887   3.311 -0.8258 -1.5075  1.7750
 8897SOL    HW227270   9.297   4.001   3.227  2.5710 -0.6905  0.5342
 8898SOL     OW27271   2.697   8.504   6.036 -0.0472  0.4538 -0.1124
 8898SOL    HW127272   2.719   8.545   6.119  2.0244  1.1328 -0.9317
 8898SOL    HW227273   2.658   8.574   5.983  0.2828  0.4847 -0.3175
 8899SOL     OW27274   4.993   4.106   3.567 -0.2345  0.1511  0.1333
 8899SOL    HW127275   4.922   4.089   3.628 -0.6207 -0.1487 -0.3857
 8899SOL    HW227276   4.953   4.160   3.499 -0.1759 -0.6598 -0.5647
 8900SOL     OW27277   6.300   4.640   4.863  0.5863 -0.9186 -0.2925
 8900SOL    HW127278   6.367   4.583   4.826 -0.3906 -0.8364 -2.3489
 8900SOL    HW227279   6.265   4.590   4.937  2.3942 -1.2493  0.3947
 8901SOL     OW27280   0.292   6.020   4.330 -0.3903 -0.4910 -0.2416
 8901SOL    HW127281   0.345   6.014   4.409 -1.8204 -1.4330  0.6904
 8901SOL    HW227282   0.242   5.939   4.329 -0.3125 -0.5517 -2.2078
 8902SOL     OW27283   9.639   1.724   4.802 -0.1738 -0.2626  0.4225
 8902SOL    HW127284   9.656   1.745   4.894 -0.9879 -1.2706  0.8257
 8902SOL    HW227285   9.698   1.780   4.753  0.0351  0.5384  1.5549
 8903SOL     OW27286   5.751   2.299   5.094 -0.6293  0.1024  0.2768
 8903SOL    HW127287   5.669   2.340   5.067 -0.5781  1.0354  1.4448
 8903SOL    HW227288   5.724   2.223   5.146 -0.7217 -1.1490 -1.4941
 8904SOL     OW27289   1.541   9.562   9.272  0.2931 -0.8617 -0.4737
 8904SOL    HW127290   1.610   9.626   9.290 -0.0846 -1.2047  2.7457
 8904SOL    HW227291   1.491   9.557   9.354 -2.5835 -1.8398 -2.1271
 8905SOL     OW27292   2.890   5.830   3.139  0.5878  0.0751  0.8266
 8905SOL    HW127293   2.832   5.897   3.174  1.6478  1.0773  0.7165
 8905SOL    HW227294   2.975   5.873   3.130  1.0923 -1.0363 -0.0620
 8906SOL     OW27295   7.990   3.083   3.917  0.1920 -0.0243  0.6614
 8906SOL    HW127296   7.985   3.039   3.832  3.4025 -0.1816  0.4365
 8906SOL    HW227297   7.990   3.176   3.895  0.6302 -0.0575  0.5119
 8907SOL     OW27298   2.068   3.525   4.718  0.5047 -0.1820 -0.3440
 8907SOL    HW127299   2.107   3.525   4.805 -0.9414  1.6354  0.3767
 8907SOL    HW227300   2.138   3.557   4.661  1.0007  0.1441  0.4242
 8908SOL     OW27301   0.049   2.731   6.751  0.5951 -0.0406  0.1696
 8908SOL    HW127302  -0.047   2.726   6.751  0.5644 -0.4627 -2.0517
 8908SOL    HW227303   0.078   2.641   6.742  1.0555  0.2531 -2.1664
 8909SOL     OW27304   2.666   8.975   4.783 -0.4100  0.4522  0.8526
 8909SOL    HW127305   2.617   9.049   4.748  0.5993  0.7815  0.0638
 8909SOL    HW227306   2.758   9.000   4.772  0.1905 -2.6132 -3.5195
 8910SOL     OW27307   8.438   3.929   3.039  0.1239  0.0760  0.7311
 8910SOL    HW127308   8.455   3.851   2.987 -1.2244 -1.9211  3.0462
 8910SOL    HW227309   8.384   3.985   2.983  0.7837 -0.7915 -0.8356
 8911SOL     OW27310   4.746   4.532   4.153  0.3120 -0.0795  0.3959
 8911SOL    HW127311   4.726   4.623   4.132 -1.0496 -0.2668  0.7612
 8911SOL    HW227312   4.703   4.482   4.083 -0.1029 -0.4849  0.9325
 8912SOL     OW27313   3.179   1.506   5.438 -0.6132  0.2621  0.0586
 8912SOL    HW127314   3.265   1.546   5.427 -0.5341  0.1505  0.2676
 8912SOL    HW227315   3.180   1.429   5.381  0.0743 -0.7538  1.3807
 8913SOL     OW27316   2.148   9.821   4.964  0.2245 -0.1467  0.0190
 8913SOL    HW127317   2.243   9.818   4.972  0.1341 -1.2454  0.8279
 8913SOL    HW227318   2.128   9.758   4.895  0.1158  0.4872 -0.5347
 8914SOL     OW27319   9.150   5.474   1.971 -0.1193  0.2434  0.0963
 8914SOL    HW127320   9.106   5.480   1.887 -2.4751  0.1480  1.2478
 8914SOL    HW227321   9.150   5.380   1.991 -0.6501  0.3733  0.7246
 8915SOL     OW27322   8.368   1.609   6.812  0.2738  0.1315 -0.2568
 8915SOL    HW127323   8.362   1.612   6.908  1.8773 -0.8227 -0.0774
 8915SOL    HW227324   8.279   1.588   6.783 -0.8826  3.0550  0.7999
 8916SOL     OW27325   3.955   0.654   4.246  0.2606  0.6723 -0.2898
 8916SOL    HW127326   3.917   0.681   4.162 -0.6761 -3.4596 -1.4383
 8916SOL    HW227327   3.905   0.703   4.312 -1.7602  1.1220 -2.0363
 8917SOL     OW27328   5.330   8.615   8.142  0.0541 -0.5727 -0.2982
 8917SOL    HW127329   5.303   8.699   8.103 -0.9255 -1.5088 -1.7515
 8917SOL    HW227330   5.364   8.565   8.068 -1.0057 -2.0906  0.1979
 8918SOL     OW27331   3.511   0.679   9.808 -0.2532  0.4047 -0.4738
 8918SOL    HW127332   3.498   0.617   9.737  1.7239  0.2580 -0.7709
 8918SOL    HW227333   3.456   0.647   9.879 -2.9003  0.9933 -2.1323
 8919SOL     OW27334   9.354   2.475   6.510 -0.0346 -0.0577 -0.3804
 8919SOL    HW127335   9.376   2.544   6.572  0.0964 -1.7373  1.5331
 8919SOL    HW227336   9.426   2.474   6.447  2.1776 -1.1459  1.9962
 8920SOL     OW27337   0.028   9.196   7.637 -0.0256  0.0803  0.2589
 8920SOL    HW127338  -0.066   9.183   7.651 -0.2581 -0.5379 -1.6095
 8920SOL    HW227339   0.042   9.289   7.657 -0.7620 -0.1007  1.7797
 8921SOL     OW27340   5.989   0.730   5.556  0.0095  0.4119  0.0609
 8921SOL    HW127341   5.922   0.792   5.587 -2.6928 -1.9575 -0.6483
 8921SOL    HW227342   5.978   0.729   5.461  0.0674 -1.0269  0.0499
 8922SOL     OW27343   9.815   9.438   6.683 -0.7492  0.0549  0.1916
 8922SOL    HW127344   9.816   9.345   6.663 -1.2853 -0.2830  1.6007
 8922SOL    HW227345   9.785   9.443   6.774 -0.3531  1.5750  0.2775
 8923SOL     OW27346   8.883   1.874   3.611  0.7992  0.4428 -0.3255
 8923SOL    HW127347   8.910   1.816   3.683  2.0895  3.2039  1.5849
 8923SOL    HW227348   8.800   1.910   3.640  0.2913  0.0428 -1.2401
 8924SOL     OW27349   7.963   7.518   6.372 -0.0143 -0.2271  0.0473
 8924SOL    HW127350   7.989   7.548   6.459  0.6401 -1.9687  0.4812
 8924SOL    HW227351   7.886   7.463   6.388  0.7775 -1.4808 -0.3120
 8925SOL     OW27352   8.359   9.072   4.843 -0.1210 -0.0921  0.2727
 8925SOL    HW127353   8.362   8.978   4.859  0.3838 -0.0036  0.7679
 8925SOL    HW227354   8.306   9.082   4.765  1.7601 -0.9819 -1.2013
 8926SOL     OW27355   9.825   1.066   1.438  0.1800  0.2877 -1.2263
 8926SOL    HW127356   9.892   1.002   1.460 -0.6301 -0.2934 -0.3701
 8926SOL    HW227357   9.783   1.032   1.359  2.5896  1.9929 -3.3983
 8927SOL     OW27358   2.552   9.058   8.091 -0.0963  0.0764  0.4050
 8927SOL    HW127359   2.517   9.007   8.017  0.1070 -1.1830  1.1454
 8927SOL    HW227360   2.624   9.005   8.123  0.9862  1.4990  0.3907
 8928SOL     OW27361   8.561   5.119   4.416  0.0735  0.1260  0.4372
 8928SOL    HW127362   8.625   5.097   4.484  0.4617  0.0085  0.0369
 8928SOL    HW227363   8.515   5.036   4.398  0.1765  0.0905  0.3398
 8929SOL     OW27364   5.923   0.943   0.185 -1.1998  0.3744  0.1151
 8929SOL    HW127365   5.936   0.868   0.242  0.3741 -0.6264 -1.4642
 8929SOL    HW227366   5.917   1.018   0.245 -4.5107 -1.0617  1.8635
 8930SOL     OW27367   6.975   2.036   6.828 -0.2429  0.2867  0.5561
 8930SOL    HW127368   6.885   2.022   6.859 -0.5002 -1.3775 -0.8143
 8930SOL    HW227369   6.975   2.126   6.793 -1.0819  0.6526  1.4561
 8931SOL     OW27370   7.987   5.830   9.947  0.0793 -0.5384  0.0279
 8931SOL    HW127371   7.972   5.902   9.886  0.2259 -0.6571 -0.1495
 8931SOL    HW227372   7.998   5.873  10.032 -0.1768 -0.3761 -0.0186
 8932SOL     OW27373   1.515   9.311   1.281 -0.3058 -0.0085 -0.7829
 8932SOL    HW127374   1.535   9.220   1.258  1.4011  0.5373 -1.5926
 8932SOL    HW227375   1.599   9.357   1.272 -1.0242  1.5474  0.1391
 8933SOL     OW27376   1.819   8.702   5.276  0.0942 -0.2838 -0.2613
 8933SOL    HW127377   1.808   8.651   5.356  0.0760  0.2285  0.0725
 8933SOL    HW227378   1.898   8.754   5.292 -0.4815  0.5897 -0.1432
 8934SOL     OW27379   9.623   0.233   3.208 -0.0800 -0.2336 -0.3774
 8934SOL    HW127380   9.636   0.254   3.116  0.7624  0.4768 -0.1152
 8934SOL    HW227381   9.529   0.234   3.221 -0.3267 -2.0867 -1.6177
 8935SOL     OW27382   8.173   2.556   7.204 -0.0772  0.6944  0.1986
 8935SOL    HW127383   8.193   2.633   7.257  1.2719  1.5547 -1.4526
 8935SOL    HW227384   8.259   2.516   7.186 -0.5539  0.0505 -0.7543
 8936SOL     OW27385   2.918   0.976   9.941  0.2419  0.0801  0.6074
 8936SOL    HW127386   2.873   0.920   9.878  0.1337  0.8242  0.0150
 8936SOL    HW227387   2.848   1.009   9.998  0.3835 -0.8793  1.3602
 8937SOL     OW27388   9.255   8.955   5.650  0.1312 -0.0467  0.4290
 8937SOL    HW127389   9.217   9.030   5.696  1.2476  0.3725  0.7184
 8937SOL    HW227390   9.316   8.917   5.714 -1.2738 -1.9551  0.7304
 8938SOL     OW27391   3.859   4.873   0.722 -0.0918  0.6467 -0.1270
 8938SOL    HW127392   3.942   4.918   0.742  0.2620 -1.2754  3.6369
 8938SOL    HW227393   3.792   4.925   0.767 -0.5294  0.6721 -0.8035
 8939SOL     OW27394   8.843   6.120   5.688 -0.4022  0.5090 -0.1146
 8939SOL    HW127395   8.906   6.134   5.759 -0.7204  2.2607 -0.1165
 8939SOL    HW227396   8.891   6.141   5.608 -0.8024  1.2560 -0.1666
 8940SOL     OW27397   9.816   2.581   5.074  0.0181  0.2603  0.0286
 8940SOL    HW127398   9.790   2.665   5.112 -1.8601  0.1161 -0.8422
 8940SOL    HW227399   9.783   2.516   5.136 -1.1944  0.0963 -0.7584
 8941SOL     OW27400   8.563   0.753   7.498  0.1166 -0.5832  0.0082
 8941SOL    HW127401   8.549   0.713   7.583 -0.0449  0.8096  0.6596
 8941SOL    HW227402   8.476   0.756   7.458  0.2680 -1.6897 -0.4296
 8942SOL     OW27403   1.205   9.192   9.648  0.8376  0.2673 -0.0331
 8942SOL    HW127404   1.260   9.117   9.673 -0.2462 -0.4580  0.2631
 8942SOL    HW227405   1.118   9.169   9.681  0.3963  1.4743 -0.3285
 8943SOL     OW27406   8.082   4.186   9.427  0.6152  0.1334 -0.2782
 8943SOL    HW127407   7.991   4.179   9.455  0.0961 -2.8397 -2.2722
 8943SOL    HW227408   8.133   4.145   9.498  0.2953  0.6759  0.2711
 8944SOL     OW27409   1.221   5.396   6.258 -0.6091 -0.4840 -0.4620
 8944SOL    HW127410   1.186   5.475   6.297  0.0092 -0.6491  0.4697
 8944SOL    HW227411   1.250   5.422   6.171  3.2979  1.3896  1.1697
 8945SOL     OW27412   8.619   4.962   6.027 -0.7371 -0.8966 -0.2796
 8945SOL    HW127413   8.712   4.941   6.032 -0.7610 -1.2617 -1.2357
 8945SOL    HW227414   8.590   4.963   6.118  0.1772 -0.8701  0.0210
 8946SOL     OW27415   0.557   0.660   2.849  0.2637 -0.2954 -0.4549
 8946SOL    HW127416   0.573   0.703   2.765  0.8340  0.7173  0.1468
 8946SOL    HW227417   0.604   0.714   2.913  0.2444 -1.3106  0.4590
 8947SOL     OW27418   7.581   0.675   8.824 -0.2542 -0.1155  0.0491
 8947SOL    HW127419   7.549   0.659   8.913 -0.0176  0.3330  0.2158
 8947SOL    HW227420   7.598   0.769   8.821 -1.0338  0.0142 -0.7253
 8948SOL     OW27421   4.140   2.740   2.927  0.0914 -0.2847 -0.0250
 8948SOL    HW127422   4.120   2.647   2.939 -0.2116 -0.4114 -1.3225
 8948SOL    HW227423   4.217   2.755   2.982  0.2098 -1.3374  0.1246
 8949SOL     OW27424   0.043   9.624   5.821 -0.0288 -0.0499 -0.2471
 8949SOL    HW127425   0.054   9.667   5.736  0.2872  0.1972 -0.0803
 8949SOL    HW227426   0.122   9.572   5.833 -1.3070 -2.4470 -1.4456
 8950SOL     OW27427   1.881   0.795   3.095 -0.6021 -0.4982 -1.1244
 8950SOL    HW127428   1.846   0.787   3.006 -2.3528  0.9610 -0.6236
 8950SOL    HW227429   1.833   0.869   3.133 -0.0858 -1.2461  1.1225
 8951SOL     OW27430   1.512   7.283   6.958 -0.4496  0.8976 -0.2530
 8951SOL    HW127431   1.544   7.193   6.971  1.4549  1.2076 -2.0993
 8951SOL    HW227432   1.554   7.333   7.028 -1.0284  0.4552  0.4187
 8952SOL     OW27433   9.507   6.098   0.173  0.1576 -0.0693 -0.1475
 8952SOL    HW127434   9.505   6.110   0.268  0.5934 -0.1557 -0.1241
 8952SOL    HW227435   9.435   6.039   0.154 -0.6472  0.8465 -0.0011
 8953SOL     OW27436   8.620   2.395   3.435  0.1610  0.3841  0.9451
 8953SOL    HW127437   8.682   2.353   3.495  0.7613 -0.8682 -0.4780
 8953SOL    HW227438   8.596   2.326   3.373 -0.4800  1.6072 -0.2267
 8954SOL     OW27439   4.209   3.791   7.350  0.1267 -0.9351 -0.6634
 8954SOL    HW127440   4.233   3.737   7.426 -0.5635 -0.7558 -0.3100
 8954SOL    HW227441   4.196   3.879   7.386  1.7427 -0.3942 -1.3212
 8955SOL     OW27442   2.243   1.583   8.775  0.5692 -0.4756  0.2208
 8955SOL    HW127443   2.285   1.497   8.784 -0.8092 -0.9426  3.5210
 8955SOL    HW227444   2.150   1.564   8.771  0.2878  0.8538 -0.1363
 8956SOL     OW27445   2.383   8.763   7.350 -0.3925 -0.1506  0.3198
 8956SOL    HW127446   2.452   8.729   7.407 -0.8611  0.0512  1.0206
 8956SOL    HW227447   2.381   8.857   7.368  0.5784  0.2171 -1.2662
 8957SOL     OW27448   9.060   1.868   2.057 -0.7405  0.1999  0.6114
 8957SOL    HW127449   9.087   1.881   2.148 -0.5951  0.5645  0.5160
 8957SOL    HW227450   9.067   1.955   2.017 -0.8336  0.0462  0.2592
 8958SOL     OW27451   0.022   5.805   1.897 -0.0248 -0.4996 -0.5102
 8958SOL    HW127452  -0.019   5.724   1.929 -0.3279 -0.3077 -0.4078
 8958SOL    HW227453   0.086   5.775   1.833  0.2806 -0.8636 -0.0473
 8959SOL     OW27454   8.077   1.601   2.757  0.3741  0.2217  0.1176
 8959SOL    HW127455   8.064   1.693   2.781  0.2305 -0.2123  1.8355
 8959SOL    HW227456   8.024   1.589   2.678 -2.5298  0.7586  1.8255
 8960SOL     OW27457   5.646   7.757   8.381 -0.6086 -0.4432 -0.5034
 8960SOL    HW127458   5.660   7.836   8.434  0.7456  0.9802 -2.8016
 8960SOL    HW227459   5.553   7.761   8.357 -0.8930 -0.3507  0.5452
 8961SOL     OW27460   9.540   9.628   0.321 -0.0681  0.2646 -0.0813
 8961SOL    HW127461   9.557   9.714   0.282 -2.3302  0.7453 -0.1486
 8961SOL    HW227462   9.451   9.607   0.294 -0.0456 -1.4937  1.0734
 8962SOL     OW27463   9.886   9.393   5.903 -0.1418 -0.1560 -0.6399
 8962SOL    HW127464   9.967   9.349   5.875  1.4886  1.9570  0.4536
 8962SOL    HW227465   9.900   9.485   5.880 -2.0076  0.3633  0.1502
 8963SOL     OW27466   6.977   8.374   5.994 -0.3212  0.3109 -0.0761
 8963SOL    HW127467   6.949   8.283   5.997 -0.0302  0.2123 -0.2711
 8963SOL    HW227468   7.073   8.369   5.991 -0.2977  0.5077 -3.1168
 8964SOL     OW27469   8.259   7.302   8.763  0.5813 -0.3586 -0.3547
 8964SOL    HW127470   8.301   7.219   8.739  0.1131 -0.8641  0.5240
 8964SOL    HW227471   8.179   7.304   8.709  0.3100 -0.7578  0.0197
 8965SOL     OW27472   0.077   9.082   4.954  0.3915  0.5732 -0.2256
 8965SOL    HW127473   0.021   9.086   4.877 -0.8198  0.4321  0.6295
 8965SOL    HW227474   0.129   9.002   4.942 -0.5866 -0.0522 -0.3661
 8966SOL     OW27475   1.665   1.660   4.382  0.2561  0.6131  0.4600
 8966SOL    HW127476   1.595   1.594   4.382  0.7142  0.1030  1.5813
 8966SOL    HW227477   1.628   1.734   4.334 -0.2386 -0.4790 -0.9286
 8967SOL     OW27478   4.267   2.905   3.787  0.1645  0.5941  0.2050
 8967SOL    HW127479   4.216   2.986   3.776 -0.5263  0.2234  0.6131
 8967SOL    HW227480   4.320   2.921   3.865 -0.3187  0.4812  0.5598
 8968SOL     OW27481   4.031   3.245   7.684  0.3380  0.2313 -0.1230
 8968SOL    HW127482   3.957   3.195   7.719  0.0759  0.4960 -0.2968
 8968SOL    HW227483   4.101   3.233   7.749  0.1318  0.0070  0.0577
 8969SOL     OW27484   1.395   3.424   3.041 -0.6364 -0.1257  0.0144
 8969SOL    HW127485   1.411   3.391   2.953 -1.0716  1.7505 -0.7902
 8969SOL    HW227486   1.426   3.353   3.098 -0.3221 -1.3605 -1.6135
 8970SOL     OW27487   3.411   6.146   6.075  0.3589 -0.6507 -0.3831
 8970SOL    HW127488   3.475   6.174   6.008  0.6769  0.0811  0.2087
 8970SOL    HW227489   3.461   6.144   6.156  0.3959 -3.2240 -0.4118
 8971SOL     OW27490   6.235   0.594   4.892 -0.6563 -0.4056  0.1592
 8971SOL    HW127491   6.312   0.539   4.909  0.6879  1.4038  0.2542
 8971SOL    HW227492   6.258   0.643   4.813 -2.3813 -0.9146 -0.7065
 8972SOL     OW27493   9.876   9.356   4.415 -0.2140 -0.4589  0.4378
 8972SOL    HW127494   9.929   9.390   4.343  1.2071 -0.9546  1.2184
 8972SOL    HW227495   9.791   9.338   4.375 -0.8961  3.2724 -0.2148
 8973SOL     OW27496   3.662   7.681   1.765  0.0397  0.0635  0.0892
 8973SOL    HW127497   3.631   7.743   1.831  0.4934  0.0914  0.2786
 8973SOL    HW227498   3.584   7.629   1.743 -0.7615  1.7446 -1.2691
 8974SOL     OW27499   6.593   2.423   9.163 -0.2092  0.9340 -0.0545
 8974SOL    HW127500   6.548   2.375   9.231 -1.1310  1.0759 -0.5529
 8974SOL    HW227501   6.573   2.376   9.082 -0.3680  1.6229 -0.4229
 8975SOL     OW27502   0.484   2.684   2.634  0.2963  0.1541 -0.0489
 8975SOL    HW127503   0.474   2.596   2.670  0.1443 -0.1879 -0.8913
 8975SOL    HW227504   0.576   2.706   2.648  0.0012  0.4894  1.5230
 8976SOL     OW27505   3.210   4.327   8.393  0.3492 -0.3985 -0.0995
 8976SOL    HW127506   3.297   4.351   8.423  0.2283 -0.5067  0.3506
 8976SOL    HW227507   3.225   4.258   8.328  0.5954 -0.4241 -0.0158
 8977SOL     OW27508   1.076   7.063   0.011 -0.6264 -0.0017  0.3155
 8977SOL    HW127509   0.983   7.081  -0.002 -0.2268  2.1340  0.0198
 8977SOL    HW227510   1.100   7.115   0.088  0.2918 -0.6008  0.4473
 8978SOL     OW27511   9.238   9.493   6.455  0.1574  0.1213  0.1740
 8978SOL    HW127512   9.315   9.533   6.496 -0.0745 -0.5235  1.2985
 8978SOL    HW227513   9.173   9.491   6.525 -0.2166 -1.1432 -0.1860
 8979SOL     OW27514   3.785   6.150   3.680 -0.3461  0.4574 -0.5616
 8979SOL    HW127515   3.839   6.228   3.690  2.5890 -1.6220  1.9142
 8979SOL    HW227516   3.833   6.096   3.617 -0.5690 -0.6001  0.1371
 8980SOL     OW27517   3.856   5.079   4.491 -0.0298  0.0905  0.4651
 8980SOL    HW127518   3.796   5.009   4.518  0.5241  0.2279  2.1669
 8980SOL    HW227519   3.943   5.044   4.511  0.4903  0.0565 -1.5820
 8981SOL     OW27520   2.006   5.208   4.196 -0.0750  0.3208 -0.3654
 8981SOL    HW127521   1.984   5.120   4.227 -0.8049  0.4650 -0.4570
 8981SOL    HW227522   1.922   5.246   4.171  0.3131  0.8140 -0.9345
 8982SOL     OW27523   8.276   3.804   0.147 -0.3736  0.0750 -0.3359
 8982SOL    HW127524   8.211   3.808   0.077  1.0487 -1.2597 -1.8393
 8982SOL    HW227525   8.238   3.743   0.211 -2.3834  2.4926  0.9396
 8983SOL     OW27526   3.019   5.800   5.912 -1.1616  0.3647 -0.1148
 8983SOL    HW127527   2.975   5.870   5.959  0.8266  1.8786 -0.3583
 8983SOL    HW227528   3.112   5.811   5.934 -0.7680 -2.1868 -0.1908
 8984SOL     OW27529   3.875   2.380   0.478 -0.1436 -0.3744 -0.2962
 8984SOL    HW127530   3.834   2.338   0.554 -1.5216  2.7719  0.8704
 8984SOL    HW227531   3.969   2.372   0.494 -0.4011 -0.3032  1.4751
 8985SOL     OW27532   5.774   2.056   3.388 -0.3070 -0.2489 -0.0537
 8985SOL    HW127533   5.805   2.051   3.297  0.3661 -0.0167  0.1530
 8985SOL    HW227534   5.843   2.105   3.433 -1.0034  0.2943  0.4235
 8986SOL     OW27535   1.878   3.056   0.920 -0.2579 -0.1037 -0.9253
 8986SOL    HW127536   1.861   3.069   0.827 -3.3536  1.3390 -0.3012
 8986SOL    HW227537   1.792   3.068   0.962  1.1587  0.2084  2.2017
 8987SOL     OW27538   0.997   6.924   5.239 -0.2550  0.7179  0.2157
 8987SOL    HW127539   0.994   7.019   5.241 -0.0277  0.7682 -1.1566
 8987SOL    HW227540   1.038   6.902   5.156 -0.7847 -0.5904  0.2674
 8988SOL     OW27541   4.883   4.118   7.689  0.6553 -0.0645 -0.3429
 8988SOL    HW127542   4.891   4.214   7.684  1.1933 -0.1510 -1.3676
 8988SOL    HW227543   4.863   4.092   7.599 -0.0574 -0.8766  0.0384
 8989SOL     OW27544   5.473   7.705   0.818 -0.1876  0.2573  0.0361
 8989SOL    HW127545   5.520   7.765   0.877  0.2681 -1.0938  1.1003
 8989SOL    HW227546   5.428   7.763   0.757 -0.2483  1.7269  1.3848
 8990SOL     OW27547   7.552   4.911   3.296  0.3585  0.0165  0.3170
 8990SOL    HW127548   7.532   4.959   3.377  0.2525 -0.5103  0.6021
 8990SOL    HW227549   7.645   4.927   3.282  0.5870 -0.6347  1.0380
 8991SOL     OW27550   3.798   4.307   8.841  0.2218 -0.4278 -0.1418
 8991SOL    HW127551   3.798   4.403   8.845 -1.9432 -0.3998  0.2998
 8991SOL    HW227552   3.798   4.287   8.748  0.4801 -0.0023 -0.2407
 8992SOL     OW27553   3.698   9.541   9.516  0.1158  0.2951  0.1241
 8992SOL    HW127554   3.605   9.521   9.502  0.0523 -0.0523  1.0069
 8992SOL    HW227555   3.713   9.523   9.608  1.6492 -2.0056 -0.4955
 8993SOL     OW27556   6.846   4.628   3.882  0.5717 -0.1486  0.2751
 8993SOL    HW127557   6.916   4.668   3.832  2.0610 -2.2968  0.4901
 8993SOL    HW227558   6.788   4.590   3.816  0.7884 -0.1975  0.1105
 8994SOL     OW27559   2.988   3.395   6.270  0.3760 -0.2755 -0.0484
 8994SOL    HW127560   2.900   3.433   6.269 -0.0169 -1.1006  1.1157
 8994SOL    HW227561   3.037   3.452   6.330  0.2180 -0.6711  0.4640
 8995SOL     OW27562   0.815   0.251   1.181 -0.6551  0.6905 -0.1652
 8995SOL    HW127563   0.720   0.253   1.174 -0.6755  1.4091  0.2629
 8995SOL    HW227564   0.838   0.334   1.222  0.2305  0.9068 -1.0572
 8996SOL     OW27565   9.741   4.454   1.290 -0.3076  0.4254 -0.1029
 8996SOL    HW127566   9.763   4.451   1.197  0.0932  0.3442 -0.0093
 8996SOL    HW227567   9.814   4.501   1.330  0.2505 -0.8024  0.3681
 8997SOL     OW27568   5.453   6.729   3.783 -0.1379 -0.7795 -0.5410
 8997SOL    HW127569   5.508   6.725   3.861  2.7699 -0.6077 -2.4163
 8997SOL    HW227570   5.436   6.638   3.760 -0.8036 -0.8321  0.1320
 8998SOL     OW27571   9.056   5.761   6.276 -0.2721  0.2433 -0.0002
 8998SOL    HW127572   9.085   5.677   6.241 -0.1741  0.0018  0.6410
 8998SOL    HW227573   9.133   5.797   6.319  0.0096  1.2056 -1.2405
 8999SOL     OW27574   0.972   8.319   4.484  0.2441 -0.0448  0.0669
 8999SOL    HW127575   0.911   8.247   4.466  0.9621 -0.6623  0.0051
 8999SOL    HW227576   0.946   8.388   4.423 -0.5797 -0.1779  0.2565
 9000SOL     OW27577   7.194   3.292   0.402 -0.1184 -0.7302  0.1769
 9000SOL    HW127578   7.231   3.207   0.429 -1.9963 -1.1062  1.7377
 9000SOL    HW227579   7.175   3.281   0.309  0.9667 -1.5126  0.0266
 9001SOL     OW27580   4.402   4.881   3.696  0.0265 -0.3121  0.2534
 9001SOL    HW127581   4.460   4.936   3.644 -1.7666 -0.1257 -1.6977
 9001SOL    HW227582   4.460   4.832   3.754  2.0844  0.0503 -1.3861
 9002SOL     OW27583   0.759   7.701   4.834  0.0917 -0.3658 -0.1816
 9002SOL    HW127584   0.749   7.660   4.748 -2.3329  0.2235 -0.2468
 9002SOL    HW227585   0.853   7.714   4.843  0.4710 -1.0783 -2.4356
 9003SOL     OW27586   5.642   8.270   4.017  0.2611 -0.2468  0.0738
 9003SOL    HW127587   5.616   8.309   3.934  0.1362 -1.4403 -0.4765
 9003SOL    HW227588   5.618   8.335   4.084  1.6591  1.3517 -0.9001
 9004SOL     OW27589   2.630   5.482   2.763 -0.1518  0.0081  0.6235
 9004SOL    HW127590   2.616   5.556   2.821 -2.1356  0.2688 -0.1083
 9004SOL    HW227591   2.611   5.515   2.675  1.5697 -0.6965 -0.0752
 9005SOL     OW27592   7.231   6.049   5.764 -0.0200 -0.2188 -0.2554
 9005SOL    HW127593   7.168   6.104   5.718 -0.7879 -1.1728 -0.3871
 9005SOL    HW227594   7.256   6.099   5.841 -2.1405 -0.4343  0.6381
 9006SOL     OW27595   8.207   3.485   5.299  0.6790  0.4581  0.1542
 9006SOL    HW127596   8.274   3.502   5.364  1.2718 -0.2790 -0.2527
 9006SOL    HW227597   8.174   3.397   5.320 -0.0760  0.7595  0.2766
 9007SOL     OW27598   3.819   2.077   7.935 -0.0244  0.2856  0.0848
 9007SOL    HW127599   3.893   2.079   7.996  0.3925  1.2055 -0.4257
 9007SOL    HW227600   3.842   2.141   7.867 -0.3078 -0.9617 -1.2445
 9008SOL     OW27601   4.120   5.458   3.032  0.2971 -0.1633  0.3442
 9008SOL    HW127602   4.135   5.552   3.033  1.3310 -0.3178  1.0633
 9008SOL    HW227603   4.028   5.448   3.056 -0.2749  0.7098 -1.2928
 9009SOL     OW27604   8.523   9.436   2.952 -0.0867  0.1939  0.0098
 9009SOL    HW127605   8.502   9.382   2.876 -0.6532 -0.7990  0.8465
 9009SOL    HW227606   8.524   9.374   3.025 -0.8042  1.3202  1.0019
 9010SOL     OW27607   5.904   5.739   6.198 -0.1688  0.4793 -0.2926
 9010SOL    HW127608   5.821   5.778   6.169 -0.5196 -0.2247 -0.2352
 9010SOL    HW227609   5.945   5.708   6.117  0.1476  1.0233 -0.3472
 9011SOL     OW27610   4.236   3.940   7.048 -0.1040  0.1458  0.3731
 9011SOL    HW127611   4.329   3.945   7.024 -0.0989 -1.8367 -0.2078
 9011SOL    HW227612   4.207   3.855   7.014 -1.8123  0.1494  1.6892
 9012SOL     OW27613   3.788   8.927   5.665 -0.4045  0.1662 -0.1130
 9012SOL    HW127614   3.715   8.989   5.658 -0.1956  0.5621  1.0270
 9012SOL    HW227615   3.769   8.860   5.600 -1.0364  1.0240 -0.8410
 9013SOL     OW27616   1.345   3.485   7.559  0.2161  0.8578 -0.5961
 9013SOL    HW127617   1.278   3.550   7.582  0.9573  0.5159  3.2317
 9013SOL    HW227618   1.298   3.420   7.506 -1.8890  1.8109  0.0027
 9014SOL     OW27619   5.920   7.670   0.085 -0.4305  0.1124  0.5184
 9014SOL    HW127620   6.008   7.659   0.049 -1.4013 -1.9893 -1.4380
 9014SOL    HW227621   5.871   7.714   0.015 -1.5553 -1.1849  0.4328
 9015SOL     OW27622   1.299   8.995   8.255 -0.5769 -0.0877  0.3082
 9015SOL    HW127623   1.318   8.931   8.185  0.6507 -0.5761  1.0597
 9015SOL    HW227624   1.292   9.078   8.209  1.2558 -0.2276 -0.3357
 9016SOL     OW27625   1.680   1.182   5.643 -0.3981  0.0044  0.6798
 9016SOL    HW127626   1.775   1.182   5.658 -0.2365 -3.1074  0.3271
 9016SOL    HW227627   1.664   1.260   5.590  2.0213  0.3881  0.3781
 9017SOL     OW27628   4.352   8.781   3.170  0.1245  0.1245 -0.1834
 9017SOL    HW127629   4.278   8.812   3.118  0.0567  0.4969  0.1417
 9017SOL    HW227630   4.409   8.857   3.180 -0.3134  0.3032  1.0884
 9018SOL     OW27631   2.262   9.807   2.753  0.2866 -0.3815  0.1380
 9018SOL    HW127632   2.258   9.852   2.668 -1.8487 -0.8913 -0.0988
 9018SOL    HW227633   2.278   9.715   2.731  0.4388 -0.4011  0.3306
 9019SOL     OW27634   0.870   7.892   5.707 -0.3893 -0.2546  0.2581
 9019SOL    HW127635   0.893   7.969   5.655 -0.1644  0.0377  0.7863
 9019SOL    HW227636   0.774   7.887   5.701 -0.9381  2.4815  3.4802
 9020SOL     OW27637   9.335   6.369   8.085 -0.4561  0.4767  0.5817
 9020SOL    HW127638   9.263   6.431   8.075 -1.2634 -0.2877  1.4436
 9020SOL    HW227639   9.351   6.366   8.180  1.0551  1.0102  0.3649
 9021SOL     OW27640   6.170   6.648   7.134  0.2687 -0.6188  0.5883
 9021SOL    HW127641   6.169   6.631   7.040 -1.3177  0.1465  0.4354
 9021SOL    HW227642   6.130   6.570   7.173 -1.9142  0.2958  0.3330
 9022SOL     OW27643   6.697   7.638   6.913 -0.3330 -0.5969  0.7478
 9022SOL    HW127644   6.655   7.566   6.960 -0.3658 -1.1672 -0.1382
 9022SOL    HW227645   6.790   7.630   6.936 -0.2996 -1.0774  0.4583
 9023SOL     OW27646   2.432   9.436   1.981  0.0844 -0.4984  0.0521
 9023SOL    HW127647   2.484   9.399   2.052  0.2932  1.7224  1.1571
 9023SOL    HW227648   2.495   9.485   1.929 -0.0957 -1.9812 -1.6443
 9024SOL     OW27649   9.165   1.293   2.184  0.2190  0.3716  0.2416
 9024SOL    HW127650   9.109   1.287   2.262  0.8275 -0.7592  0.6133
 9024SOL    HW227651   9.225   1.219   2.192  2.7482  2.3345  0.6118
 9025SOL     OW27652   7.962   8.134   4.986 -0.3680  0.0962  0.2656
 9025SOL    HW127653   7.962   8.227   4.962  2.4164  0.2555  0.5922
 9025SOL    HW227654   7.891   8.126   5.050 -0.7686  1.9584  0.1128
 9026SOL     OW27655   0.168   2.875   9.471  0.0260  0.1387 -0.1970
 9026SOL    HW127656   0.155   2.878   9.566 -2.9519 -0.4806 -0.4685
 9026SOL    HW227657   0.212   2.792   9.455 -0.1176 -0.0942  0.5972
 9027SOL     OW27658   0.013   3.885   4.757 -0.5571 -0.0994 -0.2171
 9027SOL    HW127659   0.062   3.806   4.734  0.2178 -0.3503  2.0775
 9027SOL    HW227660  -0.071   3.851   4.790 -0.3579  0.0208  0.4360
 9028SOL     OW27661   5.100   0.967   4.886 -0.2952 -0.2953 -0.2334
 9028SOL    HW127662   5.148   0.966   4.803 -0.4499 -0.4453 -0.3224
 9028SOL    HW227663   5.130   0.888   4.931 -0.8272 -0.6579 -0.5042
 9029SOL     OW27664   4.013   2.023   3.200  0.1409 -0.2473 -0.0234
 9029SOL    HW127665   3.952   2.096   3.205  2.0972  1.4021  0.8296
 9029SOL    HW227666   4.095   2.061   3.170  0.4299 -2.6690 -2.8451
 9030SOL     OW27667   8.219   7.217   3.476  0.0885  0.7731  0.2369
 9030SOL    HW127668   8.307   7.216   3.513  0.4597  0.2699 -0.6291
 9030SOL    HW227669   8.207   7.130   3.439 -1.4300  0.2513  1.7933
 9031SOL     OW27670   7.782   6.681   7.747 -0.5560  0.4601  0.1420
 9031SOL    HW127671   7.820   6.624   7.681 -1.9614 -1.6465  1.0310
 9031SOL    HW227672   7.856   6.731   7.782  0.6292 -0.3781 -1.0824
 9032SOL     OW27673   4.634   3.043   8.883  0.6050  0.0121 -0.2281
 9032SOL    HW127674   4.558   3.102   8.882  0.8613  0.3538 -0.0160
 9032SOL    HW227675   4.705   3.098   8.916  0.2599 -1.1042  2.6930
 9033SOL     OW27676   5.579   7.060   6.825  0.4721  0.3026  0.2719
 9033SOL    HW127677   5.627   7.142   6.837  2.2594 -1.0218  3.4510
 9033SOL    HW227678   5.499   7.071   6.878 -0.6369  0.8782 -1.4438
 9034SOL     OW27679   2.589   1.324   3.044  0.3284 -0.0189 -0.2446
 9034SOL    HW127680   2.505   1.369   3.033 -0.6525 -1.5300  0.6922
 9034SOL    HW227681   2.602   1.277   2.961  1.1516  1.5574 -1.0630
 9035SOL     OW27682   4.994   2.926   6.066  0.5289  0.2001  0.1607
 9035SOL    HW127683   5.042   2.845   6.044 -2.1852 -0.9551 -2.1475
 9035SOL    HW227684   5.021   2.988   5.999 -2.5996 -1.1851 -2.6996
 9036SOL     OW27685   3.659   1.244   9.382 -0.1685 -0.4121 -0.0256
 9036SOL    HW127686   3.609   1.250   9.301 -0.4275  1.3953  0.2210
 9036SOL    HW227687   3.707   1.162   9.375  0.3109 -0.0020 -2.2959
 9037SOL     OW27688   6.704   2.619   6.284  0.5737 -0.5277  0.3006
 9037SOL    HW127689   6.765   2.602   6.212 -0.5587  0.7599 -1.0402
 9037SOL    HW227690   6.640   2.547   6.279 -1.3346  1.1680 -2.1310
 9038SOL     OW27691   2.883   8.790   9.574 -0.3188 -0.3032 -0.5625
 9038SOL    HW127692   2.851   8.791   9.664  0.2681  0.8224 -0.3531
 9038SOL    HW227693   2.847   8.869   9.534  1.6379  0.6955 -0.4901
 9039SOL     OW27694   3.461   5.251   0.268 -0.6417  0.1395  0.4783
 9039SOL    HW127695   3.428   5.242   0.358 -0.9584 -0.2806  0.3237
 9039SOL    HW227696   3.484   5.162   0.242  1.1913  0.4862  0.7798
 9040SOL     OW27697   6.533   2.496   3.755  0.3644 -0.0803 -0.6414
 9040SOL    HW127698   6.594   2.435   3.798  0.8149  0.1682 -0.9252
 9040SOL    HW227699   6.501   2.552   3.826  0.6288 -0.0743 -0.5277
 9041SOL     OW27700   1.700   0.366   2.417  0.0979  0.0218  0.1116
 9041SOL    HW127701   1.648   0.317   2.481  0.3127 -0.1445  0.1585
 9041SOL    HW227702   1.706   0.454   2.454  0.2938 -0.0964  0.3628
 9042SOL     OW27703   6.178   8.331   9.225 -0.2685 -0.5369 -0.5794
 9042SOL    HW127704   6.204   8.269   9.157  0.5699 -0.5471 -0.2652
 9042SOL    HW227705   6.213   8.415   9.196  0.5064 -0.6255  0.0499
 9043SOL     OW27706   6.215   9.801   5.172 -0.4914 -0.5091 -0.1861
 9043SOL    HW127707   6.136   9.853   5.185 -0.1184  0.3615 -1.2124
 9043SOL    HW227708   6.235   9.811   5.079  1.1068 -0.3205  0.1530
 9044SOL     OW27709   3.932   6.890   7.802  0.1442 -0.1592 -0.4636
 9044SOL    HW127710   3.862   6.945   7.766 -0.3090 -0.6160 -0.2825
 9044SOL    HW227711   3.985   6.950   7.854  0.5759  0.4335 -1.5616
 9045SOL     OW27712   5.158   4.966   9.135  0.8460 -0.6046 -0.0651
 9045SOL    HW127713   5.185   4.948   9.045 -2.8528  0.5002 -1.5789
 9045SOL    HW227714   5.130   4.882   9.169 -0.9341 -0.5262 -1.2314
 9046SOL     OW27715   3.866   2.284   6.025 -0.4095  0.8220 -0.8282
 9046SOL    HW127716   3.854   2.202   5.976  0.7416 -0.0115  0.2048
 9046SOL    HW227717   3.782   2.329   6.018 -1.5644 -1.1212 -0.2439
 9047SOL     OW27718   3.443   4.122   0.190 -0.1406  0.3165 -0.3381
 9047SOL    HW127719   3.400   4.039   0.212  1.5859 -0.4798  0.2033
 9047SOL    HW227720   3.514   4.097   0.131  0.5981  1.3642  0.0766
 9048SOL     OW27721   6.829   7.756   4.590 -0.2865  0.3120 -0.4155
 9048SOL    HW127722   6.783   7.673   4.598 -1.4748  0.8032 -1.7300
 9048SOL    HW227723   6.913   7.734   4.550 -0.2332 -0.3536  0.0574
 9049SOL     OW27724   5.706   3.511   4.762 -0.2964  0.7541  0.2886
 9049SOL    HW127725   5.667   3.436   4.717  0.4909 -0.1096  0.9887
 9049SOL    HW227726   5.776   3.541   4.704  0.5313 -0.1784  0.7664
 9050SOL     OW27727   3.272   9.386   2.637 -0.7986 -0.5401  0.3700
 9050SOL    HW127728   3.250   9.466   2.589  0.0872 -0.8879 -0.6678
 9050SOL    HW227729   3.361   9.364   2.607 -1.0973 -2.0191  0.4899
 9051SOL     OW27730   2.357   2.864   8.367  0.4936 -0.4285 -0.2059
 9051SOL    HW127731   2.429   2.813   8.405 -0.9783 -1.3764  1.4475
 9051SOL    HW227732   2.336   2.930   8.434  0.3773  0.4127 -1.0435
 9052SOL     OW27733   7.112   2.161   3.749  0.1875  0.5483  0.1000
 9052SOL    HW127734   7.051   2.210   3.805  1.9299  2.3714  0.4920
 9052SOL    HW227735   7.166   2.228   3.708 -0.5295 -0.7521 -3.3175
 9053SOL     OW27736   4.777   2.070   2.850  0.4946 -0.4217 -0.0835
 9053SOL    HW127737   4.866   2.035   2.861  0.5119 -0.4192 -0.2139
 9053SOL    HW227738   4.764   2.072   2.755 -0.1532 -1.7050 -0.0386
 9054SOL     OW27739   3.228   6.065   1.740  0.1461 -0.3523  0.0787
 9054SOL    HW127740   3.186   5.994   1.691 -0.2468 -2.6384  3.3715
 9054SOL    HW227741   3.246   6.027   1.826  1.5031  3.0913  1.4911
 9055SOL     OW27742   6.383   5.013   6.860 -0.3266  0.5761  0.0708
 9055SOL    HW127743   6.424   5.057   6.786 -0.4296  1.5808  0.5976
 9055SOL    HW227744   6.340   5.083   6.909  1.1455  0.2105  2.0220
 9056SOL     OW27745   9.281   5.798   6.413 -0.4506 -0.2310  0.0129
 9056SOL    HW127746   9.322   5.884   6.411  0.8448 -0.8115 -1.9577
 9056SOL    HW227747   9.354   5.736   6.411 -1.3406 -1.4259  1.7009
 9057SOL     OW27748   2.831   3.552   9.043  0.5265  0.0206 -0.4958
 9057SOL    HW127749   2.746   3.555   9.000 -0.1595  1.1930  0.8505
 9057SOL    HW227750   2.882   3.622   9.002  0.7571 -0.4944 -1.1023
 9058SOL     OW27751   0.132   8.561   2.232 -0.1790  0.4666 -0.3926
 9058SOL    HW127752   0.060   8.567   2.295  0.3251  2.4299  0.0507
 9058SOL    HW227753   0.150   8.652   2.207  0.3159 -0.1690 -2.6136
 9059SOL     OW27754   1.038   6.853   6.622  0.1599  0.1759  0.8895
 9059SOL    HW127755   0.995   6.916   6.565  0.6462  1.1720  1.5983
 9059SOL    HW227756   1.072   6.786   6.562  2.7143  2.3786 -0.3404
 9060SOL     OW27757   3.269   3.002   3.002  0.4369 -0.2000 -0.9118
 9060SOL    HW127758   3.303   2.925   3.049 -1.0283 -1.6721 -2.1706
 9060SOL    HW227759   3.343   3.031   2.948  1.0337 -0.6495 -0.3614
 9061SOL     OW27760   4.652   3.911   1.351 -0.0768  0.1615 -0.0378
 9061SOL    HW127761   4.613   3.956   1.276 -2.1206 -0.3681  0.6262
 9061SOL    HW227762   4.680   3.981   1.409 -2.6869  0.6741  0.7266
 9062SOL     OW27763   0.828   2.462   5.424 -0.0158 -0.5092  0.5003
 9062SOL    HW127764   0.860   2.443   5.336 -0.9535 -0.1384  0.0568
 9062SOL    HW227765   0.881   2.536   5.454 -0.2871 -0.0478 -0.1246
 9063SOL     OW27766   6.810   6.557   4.143 -0.0942  0.3963  0.6298
 9063SOL    HW127767   6.834   6.512   4.224  0.5470 -1.2266 -0.4247
 9063SOL    HW227768   6.826   6.649   4.161  0.6823 -0.0083  2.1263
 9064SOL     OW27769   8.251   2.337   1.073 -0.0201 -0.3495 -0.0794
 9064SOL    HW127770   8.161   2.308   1.084 -0.4823 -0.0349 -2.3784
 9064SOL    HW227771   8.304   2.262   1.097 -1.0272 -1.6243 -1.6398
 9065SOL     OW27772   2.010   6.366   6.259  0.3049 -0.4243 -0.6118
 9065SOL    HW127773   2.085   6.386   6.314 -0.1769  0.9776 -0.4183
 9065SOL    HW227774   1.984   6.450   6.222  1.1308 -1.4036 -3.7144
 9066SOL     OW27775   0.834   1.833   6.225  0.8452  0.0395  0.2478
 9066SOL    HW127776   0.854   1.907   6.283  1.1314 -0.6268  1.0209
 9066SOL    HW227777   0.895   1.765   6.252 -2.2303 -2.0472  2.5808
 9067SOL     OW27778   0.972   7.639   7.609 -0.0117  0.0920 -0.4253
 9067SOL    HW127779   1.048   7.697   7.613 -1.0061  1.7432 -2.8724
 9067SOL    HW227780   1.008   7.554   7.585  1.2529  0.1865  0.9409
 9068SOL     OW27781   5.816   4.372   2.588  0.0627  0.7131  0.0289
 9068SOL    HW127782   5.755   4.365   2.662 -0.1960  0.9008 -0.1644
 9068SOL    HW227783   5.808   4.462   2.559  1.6944  1.2295  1.0651
 9069SOL     OW27784   9.168   9.378   8.571 -0.5536  0.3278  0.2794
 9069SOL    HW127785   9.257   9.390   8.605 -0.2369 -3.0792  0.9443
 9069SOL    HW227786   9.114   9.437   8.623  1.0128  0.8785  1.3493
 9070SOL     OW27787   2.222   2.794   5.579 -0.0355  0.0887  0.3612
 9070SOL    HW127788   2.196   2.756   5.663 -1.7664  1.2443  0.4025
 9070SOL    HW227789   2.178   2.879   5.576 -1.3142 -0.5481 -2.3697
 9071SOL     OW27790   6.447   2.703   8.542  0.0266  0.1347 -0.2613
 9071SOL    HW127791   6.466   2.680   8.452 -1.6512  1.6231 -1.0588
 9071SOL    HW227792   6.404   2.625   8.578  0.2673 -0.2958 -0.8933
 9072SOL     OW27793   5.749   5.867   6.842  0.5472  0.0070 -0.3870
 9072SOL    HW127794   5.777   5.812   6.769  1.3939  1.0829 -0.8946
 9072SOL    HW227795   5.810   5.940   6.842  0.2193  0.3219  1.0581
 9073SOL     OW27796   2.688   6.464   6.730  0.3424  0.5901 -0.1113
 9073SOL    HW127797   2.720   6.553   6.715 -1.7592  1.0402 -2.6278
 9073SOL    HW227798   2.594   6.469   6.712  0.2188 -2.2123 -0.6804
 9074SOL     OW27799   4.265   0.223   7.354  0.2616  0.5652  0.3334
 9074SOL    HW127800   4.320   0.284   7.404  0.0139 -0.2086  1.5833
 9074SOL    HW227801   4.283   0.137   7.393 -1.7549  0.2688  0.7319
 9075SOL     OW27802   7.924   0.268   0.675  0.6472  0.5939  0.2712
 9075SOL    HW127803   7.911   0.196   0.737  2.8357  0.8212  1.0791
 9075SOL    HW227804   7.892   0.346   0.722 -1.2426  0.2892 -0.4097
 9076SOL     OW27805   2.772   9.384   3.913  0.0377  0.1433  0.5285
 9076SOL    HW127806   2.855   9.432   3.917  0.7769 -1.1450  1.5686
 9076SOL    HW227807   2.729   9.404   3.996 -0.0268 -0.3257  0.6091
 9077SOL     OW27808   8.424   3.321   4.809 -0.0427  0.1389 -0.0432
 9077SOL    HW127809   8.473   3.337   4.728  1.8825 -0.1724  0.9905
 9077SOL    HW227810   8.454   3.390   4.869  0.3444 -1.0043  1.1205
 9078SOL     OW27811   2.885   2.232   0.877 -0.5204 -0.0679  0.0095
 9078SOL    HW127812   2.942   2.175   0.929  0.3654  0.4887 -0.3397
 9078SOL    HW227813   2.810   2.248   0.935  0.5652  0.7512  1.2542
 9079SOL     OW27814   3.913   6.358   5.330  0.0646 -0.2858 -0.2517
 9079SOL    HW127815   3.924   6.403   5.247  1.2643 -1.1388 -0.5898
 9079SOL    HW227816   3.896   6.427   5.394 -0.1061  0.4422 -1.0746
 9080SOL     OW27817   4.975   8.405   1.779  0.2204  0.0892 -0.7332
 9080SOL    HW127818   4.887   8.392   1.813  0.6501 -1.6094 -0.1481
 9080SOL    HW227819   4.976   8.359   1.696  0.4121  0.5526 -0.9918
 9081SOL     OW27820   3.376   6.662   0.094  0.3434 -0.6722  0.2063
 9081SOL    HW127821   3.314   6.718   0.046  1.4494 -0.2078 -0.7373
 9081SOL    HW227822   3.432   6.723   0.141  1.0149 -1.0137 -0.1335
 9082SOL     OW27823   5.756   9.903   7.761  0.2917 -0.4629  0.4467
 9082SOL    HW127824   5.843   9.867   7.745 -0.6991 -2.0406 -2.1724
 9082SOL    HW227825   5.717   9.908   7.673 -1.8582  1.2677  1.4237
 9083SOL     OW27826   5.202   8.802   0.875 -0.2920 -0.1943 -0.1135
 9083SOL    HW127827   5.108   8.816   0.889 -0.2577  1.0255 -0.9393
 9083SOL    HW227828   5.207   8.720   0.826 -0.9746  0.0037 -0.5291
 9084SOL     OW27829   1.855   9.235   6.696 -0.4639 -0.1185 -0.4094
 9084SOL    HW127830   1.871   9.239   6.602  2.6571  1.0884  0.0766
 9084SOL    HW227831   1.808   9.316   6.716 -1.5031 -0.5681 -0.9307
 9085SOL     OW27832   0.431   7.485   5.273  0.1011  0.2355 -0.5564
 9085SOL    HW127833   0.469   7.563   5.234 -2.0162 -0.0896 -3.6287
 9085SOL    HW227834   0.504   7.423   5.280  1.0001  1.0597 -2.1023
 9086SOL     OW27835   8.255   6.347   9.378  0.1649  0.3442 -0.6088
 9086SOL    HW127836   8.317   6.366   9.448 -0.1521 -0.0832 -0.2078
 9086SOL    HW227837   8.306   6.298   9.313  0.5507  1.0587 -0.8553
 9087SOL     OW27838   9.426   6.109   1.754  0.6366  0.4437  0.4131
 9087SOL    HW127839   9.490   6.065   1.810  2.0361  3.1019  1.0736
 9087SOL    HW227840   9.440   6.070   1.667  0.7192 -1.4207  1.2137
 9088SOL     OW27841   1.957   3.844   9.813 -0.4668 -0.5639  0.4752
 9088SOL    HW127842   2.036   3.862   9.864 -0.6654  0.6354  0.4104
 9088SOL    HW227843   1.984   3.856   9.722 -1.0338  1.3592  0.5148
 9089SOL     OW27844   9.665   0.667   4.875 -0.6611 -0.5558  0.7265
 9089SOL    HW127845   9.695   0.649   4.964 -1.1569 -1.5347  0.7020
 9089SOL    HW227846   9.653   0.581   4.836 -0.9632 -0.1341 -0.1175
 9090SOL     OW27847   7.912   6.598   2.999  0.4176  0.0293 -0.2160
 9090SOL    HW127848   7.829   6.560   3.028  0.0501  0.9161 -0.0967
 9090SOL    HW227849   7.912   6.588   2.904  0.0070  0.3647 -0.2504
 9091SOL     OW27850   3.977   8.418   3.959  0.2515 -0.5374 -0.1544
 9091SOL    HW127851   3.951   8.373   4.040 -1.2297 -0.1017 -0.3626
 9091SOL    HW227852   3.934   8.369   3.889  2.4790 -1.6353 -0.8427
 9092SOL     OW27853   2.806   7.066   1.579  0.0357 -0.5696 -0.2067
 9092SOL    HW127854   2.886   7.103   1.616  0.2853 -0.9551 -0.3460
 9092SOL    HW227855   2.735   7.111   1.624  0.3334 -0.4793  0.1774
 9093SOL     OW27856   1.744   0.999   9.105  0.0578 -0.4042 -0.7365
 9093SOL    HW127857   1.699   0.948   9.173  1.5910  0.1610  0.7739
 9093SOL    HW227858   1.823   0.948   9.086  0.4681  0.2727 -0.8638
 9094SOL     OW27859   0.146   4.989   5.608 -0.5829 -0.2636 -0.6251
 9094SOL    HW127860   0.209   4.918   5.621  0.1145  0.3058 -0.8249
 9094SOL    HW227861   0.061   4.945   5.602 -0.1292 -1.1122 -1.0889
 9095SOL     OW27862   0.744   7.671   9.304  0.3025 -0.2497  0.3160
 9095SOL    HW127863   0.821   7.659   9.360  1.7874  0.8318 -1.3799
 9095SOL    HW227864   0.733   7.586   9.261  1.4683 -0.0072 -0.5003
 9096SOL     OW27865   9.343   2.002   6.457 -0.8117  0.2551  0.1489
 9096SOL    HW127866   9.302   1.940   6.397  0.8331  0.0607 -0.8277
 9096SOL    HW227867   9.329   2.087   6.416  0.4172  0.1112 -0.6232
 9097SOL     OW27868   1.804   6.358   3.947  0.2009 -0.6814  0.0343
 9097SOL    HW127869   1.866   6.303   3.899  0.4215 -2.1166  1.8206
 9097SOL    HW227870   1.731   6.371   3.887  1.2183 -0.8836 -1.2942
 9098SOL     OW27871   2.997   7.428   2.726 -0.3379  0.1267  0.4693
 9098SOL    HW127872   3.053   7.472   2.790 -0.4722  0.3945  0.4079
 9098SOL    HW227873   3.038   7.343   2.711 -0.1000  0.2135  0.6278
 9099SOL     OW27874   8.611   6.231   6.121 -0.0515  0.5079  0.2871
 9099SOL    HW127875   8.629   6.174   6.046  0.0054  2.4809 -1.2651
 9099SOL    HW227876   8.682   6.212   6.182  0.2282 -0.7323 -0.3866
 9100SOL     OW27877   8.422   9.930   5.897 -0.8716  0.2947  0.0938
 9100SOL    HW127878   8.399   9.837   5.895 -1.0460  0.3409 -0.7026
 9100SOL    HW227879   8.350   9.973   5.850 -0.8246  0.8361  0.5165
 9101SOL     OW27880   5.722   5.627   8.884 -0.2793  0.0432 -0.6000
 9101SOL    HW127881   5.794   5.676   8.846  0.1010  0.4984  0.6569
 9101SOL    HW227882   5.649   5.690   8.887 -0.1131  0.2090  0.0171
 9102SOL     OW27883   1.667   6.092   0.487  0.7323 -0.3479 -0.5180
 9102SOL    HW127884   1.647   6.111   0.396 -0.7917  0.1309 -0.1227
 9102SOL    HW227885   1.612   6.152   0.537  2.9451  0.7782  0.7389
 9103SOL     OW27886   7.044   6.330   5.985  0.4028  0.0108 -0.2428
 9103SOL    HW127887   6.978   6.261   5.996  2.3490 -1.8606  0.3030
 9103SOL    HW227888   7.034   6.359   5.894  0.3659 -1.9187 -0.8879
 9104SOL     OW27889   5.178   7.536   9.249 -0.6381 -0.1525 -0.4965
 9104SOL    HW127890   5.169   7.460   9.193 -0.1282 -1.1073  0.6761
 9104SOL    HW227891   5.107   7.527   9.313 -0.0911 -0.0912  0.1337
 9105SOL     OW27892   9.439   2.988   0.993  0.2215 -0.0158 -0.0826
 9105SOL    HW127893   9.402   3.050   0.929  0.2534 -2.2018 -2.3562
 9105SOL    HW227894   9.522   2.960   0.954  0.4019 -1.1944  1.0923
 9106SOL     OW27895   7.606   7.792   6.126  0.0177 -0.1565  0.0377
 9106SOL    HW127896   7.696   7.821   6.108 -0.0761  2.2908  2.6491
 9106SOL    HW227897   7.552   7.847   6.070  0.0728  0.8781  0.9593
 9107SOL     OW27898   7.827   3.545   3.370 -0.0447 -0.0169  0.0789
 9107SOL    HW127899   7.759   3.488   3.334 -0.0910  0.2054 -0.1872
 9107SOL    HW227900   7.904   3.489   3.377 -0.3144 -0.3267  0.5885
 9108SOL     OW27901   7.190   5.978   2.989 -0.3780  0.0073 -0.1318
 9108SOL    HW127902   7.150   6.064   2.974 -1.7646 -0.4802  0.5937
 9108SOL    HW227903   7.167   5.927   2.912  0.7461  0.3734 -0.7254
 9109SOL     OW27904   6.691   1.233   0.592  0.4405 -0.1518 -0.2895
 9109SOL    HW127905   6.723   1.163   0.536  3.7175  0.1704  0.9656
 9109SOL    HW227906   6.688   1.195   0.679  1.4469  0.9861  0.2727
 9110SOL     OW27907   4.615   0.473   8.158 -0.6047 -0.3011 -0.0027
 9110SOL    HW127908   4.530   0.456   8.199 -1.6457  0.8779 -1.5367
 9110SOL    HW227909   4.679   0.445   8.223 -2.1244 -2.8689  0.5481
 9111SOL     OW27910   2.013   7.801   2.554 -0.0968  0.1936 -0.2580
 9111SOL    HW127911   1.977   7.848   2.479 -3.6273 -0.7422  0.6651
 9111SOL    HW227912   1.995   7.858   2.629 -0.0507 -0.5170  0.3102
 9112SOL     OW27913   9.983   5.419   1.694 -0.1723  0.6523 -0.1965
 9112SOL    HW127914   9.888   5.428   1.684 -0.4695  1.4047  2.4102
 9112SOL    HW227915  10.018   5.506   1.671 -0.2156  0.6297 -0.3453
 9113SOL     OW27916   4.105   1.642   2.526 -0.0655  0.1255 -0.0824
 9113SOL    HW127917   4.027   1.652   2.471  0.0422  1.4465 -0.0232
 9113SOL    HW227918   4.137   1.554   2.506 -1.3295 -0.2806 -0.4143
 9114SOL     OW27919   1.529   2.346   2.352 -0.2801  0.3900  0.6175
 9114SOL    HW127920   1.514   2.322   2.443 -0.5214 -0.3362  0.4000
 9114SOL    HW227921   1.544   2.262   2.308  1.8808  0.8770  0.3448
 9115SOL     OW27922   1.613   3.965   2.722 -0.0159  0.1104  0.6757
 9115SOL    HW127923   1.544   4.032   2.721 -0.2070 -0.0873  0.2120
 9115SOL    HW227924   1.606   3.923   2.636  0.8691  0.2843  0.5125
 9116SOL     OW27925   6.210   2.898   9.621  0.0298  0.0459 -0.2308
 9116SOL    HW127926   6.267   2.952   9.677  0.5774 -1.2049  0.4625
 9116SOL    HW227927   6.130   2.887   9.673  1.0567 -2.2734  1.0131
 9117SOL     OW27928   4.399   4.826   6.479 -0.2774  0.6295  0.3498
 9117SOL    HW127929   4.479   4.838   6.427  0.0824 -1.6356  0.2797
 9117SOL    HW227930   4.332   4.876   6.431 -0.0698 -1.6651 -2.6623
 9118SOL     OW27931   3.737   7.762   6.473 -0.2809 -0.4723  0.0014
 9118SOL    HW127932   3.668   7.699   6.492 -1.3898 -0.3600 -3.1124
 9118SOL    HW227933   3.792   7.718   6.409  0.7270  0.6392  0.0728
 9119SOL     OW27934   0.723   6.546   8.809  0.3368 -0.0223  0.1202
 9119SOL    HW127935   0.728   6.529   8.903 -0.0403  0.8147  0.3031
 9119SOL    HW227936   0.715   6.641   8.802  1.1532 -0.0092 -0.7999
 9120SOL     OW27937   7.471   2.078   1.228 -0.7683  0.1521  0.4259
 9120SOL    HW127938   7.422   2.059   1.148  0.2006 -0.1248 -0.1251
 9120SOL    HW227939   7.436   2.161   1.259 -2.4700 -0.6644  0.7778
 9121SOL     OW27940   3.902   2.377   8.325 -0.0808 -0.1323  0.7038
 9121SOL    HW127941   3.953   2.298   8.340 -1.3531 -1.0676  0.3600
 9121SOL    HW227942   3.956   2.448   8.358  0.8683 -1.2010  1.5273
 9122SOL     OW27943   4.986   8.656   9.298  0.3955  0.3026  0.0777
 9122SOL    HW127944   5.023   8.728   9.349 -2.6471  2.0461  0.0923
 9122SOL    HW227945   4.942   8.601   9.364  1.9216 -1.1250 -0.0412
 9123SOL     OW27946   5.026   3.107   7.283 -0.5174 -0.9267 -0.6511
 9123SOL    HW127947   4.953   3.116   7.222 -0.1246  1.3116 -0.8862
 9123SOL    HW227948   4.986   3.122   7.369 -0.1522  2.5351 -0.9182
 9124SOL     OW27949   4.941   1.710   6.193 -0.7520 -0.5267 -0.1554
 9124SOL    HW127950   5.035   1.710   6.213 -0.3837  0.4313 -1.8073
 9124SOL    HW227951   4.920   1.801   6.173 -2.5713 -0.2845  2.3802
 9125SOL     OW27952   2.416   6.685   8.351  0.4884  0.2660  0.2006
 9125SOL    HW127953   2.471   6.631   8.295  0.0826 -1.5944  1.5017
 9125SOL    HW227954   2.408   6.635   8.433 -0.3645  2.0599  1.2744
 9126SOL     OW27955   0.509   3.713   4.023  0.0704  0.2304  0.4828
 9126SOL    HW127956   0.479   3.639   4.076  0.3142 -1.1784 -1.2458
 9126SOL    HW227957   0.471   3.698   3.936 -1.6480  3.3156  0.5583
 9127SOL     OW27958   1.570   5.467   6.832 -0.4085 -0.2938  0.0814
 9127SOL    HW127959   1.588   5.451   6.924 -0.4579 -0.9753 -0.0254
 9127SOL    HW227960   1.657   5.475   6.792 -0.3342 -1.9556 -0.1468
 9128SOL     OW27961   6.954   0.040   4.711  0.0156 -0.0361  0.0240
 9128SOL    HW127962   6.946  -0.002   4.797  0.5260 -1.2190 -0.4822
 9128SOL    HW227963   7.044   0.073   4.708  0.3469 -0.9561 -0.4606
 9129SOL     OW27964   1.025   7.314   1.295 -0.0235 -0.2069  0.6301
 9129SOL    HW127965   0.958   7.374   1.262  0.1271 -0.9873 -1.1749
 9129SOL    HW227966   0.983   7.269   1.368 -1.1413  0.0071  0.1380
 9130SOL     OW27967   2.687   0.718   9.037 -0.0013 -0.1650  0.2132
 9130SOL    HW127968   2.610   0.664   9.056 -0.0552 -0.0314  0.3790
 9130SOL    HW227969   2.656   0.808   9.044 -0.3002 -0.0966 -1.6702
 9131SOL     OW27970   9.505   2.700   5.538 -0.5427  0.4600 -0.2273
 9131SOL    HW127971   9.577   2.762   5.524  1.3729 -1.2269  1.4660
 9131SOL    HW227972   9.547   2.614   5.536 -2.7362 -0.6701 -0.2671
 9132SOL     OW27973   3.483   9.098   4.951  0.4462 -0.0989 -0.3806
 9132SOL    HW127974   3.547   9.120   4.883  0.1394 -0.1417 -0.6881
 9132SOL    HW227975   3.449   9.013   4.925 -1.7691  1.0996 -1.7982
 9133SOL     OW27976   5.320   2.131   3.355 -0.1990 -0.2916 -0.1054
 9133SOL    HW127977   5.402   2.118   3.307  0.0341 -0.0418  0.2173
 9133SOL    HW227978   5.266   2.056   3.331 -0.0588 -0.2045 -0.6972
 9134SOL     OW27979   8.454   3.912   1.624 -0.3492  0.0525 -0.0064
 9134SOL    HW127980   8.537   3.882   1.660 -0.1823  1.4702  0.8287
 9134SOL    HW227981   8.473   3.932   1.532  0.9908  2.9749  0.7968
 9135SOL     OW27982   6.904   4.873   9.507 -0.3469 -0.3512  0.2743
 9135SOL    HW127983   6.818   4.859   9.466  0.3499 -1.9758 -0.7185
 9135SOL    HW227984   6.945   4.941   9.454 -0.6456 -0.2332  0.1893
 9136SOL     OW27985   4.417   0.907   7.186 -0.2083  0.2878 -0.4699
 9136SOL    HW127986   4.384   0.876   7.270  1.0849  1.6285  0.5751
 9136SOL    HW227987   4.355   0.871   7.122 -1.5472 -0.3018  1.0722
 9137SOL     OW27988   3.914   9.226   5.262  0.3820 -0.0508  0.0755
 9137SOL    HW127989   3.905   9.182   5.178  0.0441  0.6142 -0.2347
 9137SOL    HW227990   3.840   9.286   5.267  1.0208  0.7252  0.3590
 9138SOL     OW27991   3.323   0.914   0.953 -0.8876 -0.5154 -0.4603
 9138SOL    HW127992   3.405   0.938   0.909 -1.4184 -0.9757 -1.7302
 9138SOL    HW227993   3.310   0.822   0.932 -2.1841 -0.2196 -1.0363
 9139SOL     OW27994   8.260   6.663   4.741 -0.4683  0.6946 -0.4837
 9139SOL    HW127995   8.324   6.593   4.752 -0.4008  1.1290  2.7322
 9139SOL    HW227996   8.312   6.738   4.711 -0.1480  0.0974 -1.5052
 9140SOL     OW27997   7.255   8.632   8.234 -0.1765  0.4946 -0.6966
 9140SOL    HW127998   7.331   8.642   8.176  1.4396 -0.0884  1.1816
 9140SOL    HW227999   7.245   8.718   8.274 -1.4910  0.9862 -2.0101
 9141SOL     OW28000   4.794   6.404   6.394  0.0448 -0.1645  0.0507
 9141SOL    HW128001   4.703   6.393   6.370  0.0438 -0.3929  0.1579
 9141SOL    HW228002   4.794   6.403   6.490  0.3899 -2.1994  0.0839
 9142SOL     OW28003   2.259   1.238   1.374 -0.2618 -0.0767 -0.5938
 9142SOL    HW128004   2.298   1.150   1.374 -1.5038 -0.6617  0.4449
 9142SOL    HW228005   2.209   1.242   1.293  0.5034  0.0291 -1.0775
 9143SOL     OW28006   3.798   5.701   9.424  0.2318 -0.3727 -0.1549
 9143SOL    HW128007   3.807   5.609   9.449  0.3224 -0.5036 -0.6646
 9143SOL    HW228008   3.878   5.720   9.375  0.0368 -0.1267 -0.3779
 9144SOL     OW28009   1.573   8.758   2.826 -0.1133 -0.4164  0.0936
 9144SOL    HW128010   1.641   8.815   2.789  0.7407 -0.3758  1.6274
 9144SOL    HW228011   1.621   8.700   2.885 -1.4199 -0.3142  1.3066
 9145SOL     OW28012   8.303   7.039   6.553 -0.0131 -0.1700  0.2021
 9145SOL    HW128013   8.224   7.088   6.529 -1.0854 -1.4310  1.0073
 9145SOL    HW228014   8.329   6.993   6.474  0.0882  0.4670 -0.1409
 9146SOL     OW28015   6.519   9.936   3.852  0.2410  0.1668 -0.8489
 9146SOL    HW128016   6.511   9.901   3.940 -2.2280 -0.3595 -1.2055
 9146SOL    HW228017   6.463  10.014   3.852 -1.0378 -0.6829 -2.2950
 9147SOL     OW28018   2.968   5.630   1.091 -0.4716  0.0628 -0.0547
 9147SOL    HW128019   2.933   5.675   1.168 -1.5119  0.9857 -1.0259
 9147SOL    HW228020   3.024   5.561   1.126 -1.6868 -0.1609  1.5376
 9148SOL     OW28021   1.017   0.861   0.085 -0.2527 -0.4077 -0.2639
 9148SOL    HW128022   1.071   0.833   0.011  0.2272  1.4667 -0.6723
 9148SOL    HW228023   0.927   0.847   0.057 -0.2204  2.4614 -2.2760
 9149SOL     OW28024   1.019   8.268   2.014 -0.5932 -0.5098  0.2676
 9149SOL    HW128025   1.093   8.248   1.957  0.4945 -1.5532  1.9453
 9149SOL    HW228026   0.963   8.326   1.962  0.9144 -0.4650 -1.3959
 9150SOL     OW28027   5.433   8.094   2.004  0.1385 -0.4017 -0.3380
 9150SOL    HW128028   5.430   7.999   2.005 -0.6462 -0.4030 -1.1522
 9150SOL    HW228029   5.501   8.115   1.939 -1.2179 -0.4295 -1.8167
 9151SOL     OW28030   4.670   3.431   7.332  0.1905  0.0023  0.2020
 9151SOL    HW128031   4.732   3.370   7.373 -0.9398 -1.1745  0.2341
 9151SOL    HW228032   4.644   3.490   7.404 -0.9229 -1.3449  0.9575
 9152SOL     OW28033   7.457   2.058   6.727 -0.2947 -0.4597 -0.1627
 9152SOL    HW128034   7.529   2.085   6.671  1.3464 -0.4576  1.8392
 9152SOL    HW228035   7.382   2.110   6.696  1.5438  2.7586  0.3609
 9153SOL     OW28036   1.784   0.984   4.001  0.5113  0.6496  0.0837
 9153SOL    HW128037   1.880   0.982   4.006  0.4736 -1.4861  1.5724
 9153SOL    HW228038   1.758   1.046   4.068  0.8656 -0.9911  1.8385
 9154SOL     OW28039   5.206   0.593   6.015 -0.2201 -0.2865  0.4105
 9154SOL    HW128040   5.296   0.578   6.044 -0.0521  1.8676  1.1439
 9154SOL    HW228041   5.192   0.687   6.026 -2.8343 -0.6775  1.0653
 9155SOL     OW28042   1.322   2.657   3.475 -0.3045 -0.1407 -0.1814
 9155SOL    HW128043   1.415   2.636   3.489 -0.0769  0.8446 -0.1575
 9155SOL    HW228044   1.292   2.590   3.413  1.7467  2.3276 -4.2760
 9156SOL     OW28045   8.343   2.316   4.099  0.1665 -0.1387 -0.4055
 9156SOL    HW128046   8.411   2.293   4.162 -1.4211  0.0359  1.4573
 9156SOL    HW228047   8.318   2.232   4.060  0.9657 -0.2886 -0.6165
 9157SOL     OW28048   7.224   5.703   8.968 -0.5093  0.5554  0.4391
 9157SOL    HW128049   7.309   5.736   8.939 -0.8423  2.9000  1.8134
 9157SOL    HW228050   7.168   5.709   8.891  0.6552 -1.6490 -0.6658
 9158SOL     OW28051   8.479   6.468   4.801 -0.0460  0.8992 -0.0075
 9158SOL    HW128052   8.472   6.376   4.828  1.5181  1.1443  1.3886
 9158SOL    HW228053   8.565   6.496   4.834 -0.2909  2.7348 -0.8239
 9159SOL     OW28054   8.159   3.212   7.336  0.2146  0.8152 -0.5330
 9159SOL    HW128055   8.175   3.203   7.242  0.2340  0.2251 -0.4805
 9159SOL    HW228056   8.241   3.246   7.371  0.9925 -1.0281 -0.4402
 9160SOL     OW28057   8.199   6.851   2.811  0.4389 -0.1198 -0.0777
 9160SOL    HW128058   8.271   6.797   2.843  0.6386 -0.0132 -0.3414
 9160SOL    HW228059   8.204   6.843   2.716  0.3124  0.1590 -0.1075
 9161SOL     OW28060   4.380   0.264   0.202  0.2240  0.2105  0.4651
 9161SOL    HW128061   4.289   0.289   0.186  0.2833 -0.1860 -0.5608
 9161SOL    HW228062   4.430   0.344   0.187  0.0651  0.3846  0.8523
 9162SOL     OW28063   7.593   8.696   8.334  0.2953  0.0639 -0.2582
 9162SOL    HW128064   7.598   8.622   8.395 -1.3480  0.4413  0.3874
 9162SOL    HW228065   7.656   8.674   8.266  1.1698 -1.0477  0.8492
 9163SOL     OW28066   4.030   3.216   5.263 -0.1973 -0.0878  0.2691
 9163SOL    HW128067   4.028   3.168   5.346  1.3056  1.3040  1.1805
 9163SOL    HW228068   3.946   3.262   5.261 -0.6752 -0.9220  0.5052
 9164SOL     OW28069   5.754   5.546   7.271  0.3764  0.0546 -0.3073
 9164SOL    HW128070   5.829   5.605   7.269  1.6348 -1.4932 -0.3297
 9164SOL    HW228071   5.684   5.595   7.227  0.7162  2.3207  1.4810
 9165SOL     OW28072   8.287   5.146   0.674 -0.1352  0.1400 -0.5277
 9165SOL    HW128073   8.219   5.093   0.633 -1.7270  0.2421  1.7517
 9165SOL    HW228074   8.266   5.236   0.650  0.5930  0.0228 -1.6781
 9166SOL     OW28075   6.419   5.779   6.363 -0.2264 -0.1683 -0.1680
 9166SOL    HW128076   6.337   5.731   6.374  0.0011 -1.2714 -2.6102
 9166SOL    HW228077   6.439   5.813   6.450 -2.1619 -1.6695  0.9416
 9167SOL     OW28078   0.637   3.549   0.939  0.0410 -0.2337 -0.0190
 9167SOL    HW128079   0.667   3.488   1.006 -0.5338 -0.4542  0.0464
 9167SOL    HW228080   0.547   3.522   0.921  0.1999 -0.2226 -0.9205
 9168SOL     OW28081   1.585   8.707   7.836  0.8425 -0.8258  0.3204
 9168SOL    HW128082   1.655   8.668   7.887  2.1780 -0.8976 -1.4817
 9168SOL    HW228083   1.622   8.789   7.802  0.0446 -0.8241 -0.6069
 9169SOL     OW28084   0.090   7.266   6.331 -0.2297  0.5536 -0.4002
 9169SOL    HW128085   0.129   7.302   6.251 -0.6353  0.5426 -0.6081
 9169SOL    HW228086   0.090   7.171   6.317 -0.1824  0.5443 -0.3332
 9170SOL     OW28087   5.163   5.217   1.475 -0.3019 -0.0524 -0.2279
 9170SOL    HW128088   5.125   5.305   1.480  1.2697  0.7013 -1.1086
 9170SOL    HW228089   5.213   5.208   1.556  0.5407  0.3711 -0.6863
 9171SOL     OW28090   7.413   6.230   2.431 -0.4003 -0.4138 -0.2154
 9171SOL    HW128091   7.414   6.136   2.413  1.3282 -0.1399 -1.9111
 9171SOL    HW228092   7.438   6.270   2.348 -1.1973  1.5693  0.4506
 9172SOL     OW28093   6.955   1.832   1.977  0.4676 -0.2748  0.2257
 9172SOL    HW128094   6.886   1.777   1.940  0.7916 -1.8476  1.8084
 9172SOL    HW228095   6.911   1.886   2.043  0.5178 -0.2752  0.2600
 9173SOL     OW28096   0.868   3.520   6.225 -0.7897 -0.1488 -0.0806
 9173SOL    HW128097   0.789   3.568   6.248 -1.7352 -1.7503  0.1195
 9173SOL    HW228098   0.918   3.581   6.170 -2.2611  0.7961 -0.4084
 9174SOL     OW28099   3.765   5.317   0.248 -0.5708  0.4447  0.2826
 9174SOL    HW128100   3.820   5.392   0.228  0.2590 -0.3399 -0.4641
 9174SOL    HW228101   3.680   5.355   0.272  0.3724  1.6914  1.8542
 9175SOL     OW28102   7.578   6.349   6.783 -0.1077 -0.1630 -0.2254
 9175SOL    HW128103   7.615   6.266   6.812  2.9806  1.7213  1.8159
 9175SOL    HW228104   7.617   6.365   6.697  1.0374  0.1165  0.3290
 9176SOL     OW28105   2.821   7.615   1.091  0.0930  0.0132  0.1236
 9176SOL    HW128106   2.741   7.583   1.133  0.5908 -3.1001 -1.0380
 9176SOL    HW228107   2.866   7.665   1.159 -1.9865  0.4065  1.3072
 9177SOL     OW28108   8.421   1.239   4.441 -0.2506 -0.0350  0.8601
 9177SOL    HW128109   8.493   1.189   4.480  0.4426  0.1425 -0.1507
 9177SOL    HW228110   8.422   1.214   4.349 -1.7581 -0.3389  0.9055
 9178SOL     OW28111   5.270   2.455   9.740 -0.4216  0.1696  0.1397
 9178SOL    HW128112   5.290   2.486   9.652  0.1534  0.0798  0.2379
 9178SOL    HW228113   5.175   2.467   9.748 -0.4311  0.4730 -0.3737
 9179SOL     OW28114   3.762   7.323   3.969  0.3576 -0.0749 -0.0444
 9179SOL    HW128115   3.773   7.284   3.882  0.7175 -0.2098  0.0596
 9179SOL    HW228116   3.685   7.380   3.960  1.5560  1.4593 -0.9936
 9180SOL     OW28117   5.691   4.643   7.096 -0.1645 -0.7933  0.0862
 9180SOL    HW128118   5.648   4.712   7.145  0.4530  0.3661 -0.9413
 9180SOL    HW228119   5.777   4.635   7.136  1.2854  1.8447 -2.1390
 9181SOL     OW28120   2.456   3.423   6.540 -0.7700  0.9605 -0.1627
 9181SOL    HW128121   2.547   3.446   6.525 -0.3159 -0.7706 -0.2454
 9181SOL    HW228122   2.413   3.435   6.455  0.0262 -0.9729 -0.8769
 9182SOL     OW28123   3.938   7.634   2.472  0.2618  0.3290 -0.1712
 9182SOL    HW128124   3.954   7.588   2.389  1.1022 -0.1547  0.2473
 9182SOL    HW228125   3.983   7.581   2.537 -1.2838  0.1106  0.7620
 9183SOL     OW28126   6.452   6.411   8.554 -0.0239  0.4595 -0.6022
 9183SOL    HW128127   6.426   6.504   8.555  1.2292  0.8274 -0.2343
 9183SOL    HW228128   6.543   6.412   8.583 -0.3504 -1.0133  0.5765
 9184SOL     OW28129   5.883   1.304   8.225 -0.4099 -0.7104  0.4314
 9184SOL    HW128130   5.968   1.291   8.182 -0.5537 -1.6012  0.3935
 9184SOL    HW228131   5.881   1.238   8.295 -0.7192 -0.1330  0.9701
 9185SOL     OW28132   1.156   2.423   1.591  0.3265  0.3578  0.3741
 9185SOL    HW128133   1.215   2.419   1.666  1.2646  2.8895 -0.1185
 9185SOL    HW228134   1.211   2.455   1.519 -0.8579 -0.6876 -1.0434
 9186SOL     OW28135   8.868   7.638   2.868 -0.1811  0.4868 -0.3165
 9186SOL    HW128136   8.963   7.626   2.868 -0.3438 -0.9913 -0.9304
 9186SOL    HW228137   8.833   7.555   2.837 -1.7642  0.4706  1.3661
 9187SOL     OW28138   3.121   8.209   8.753  0.4909 -0.4244 -0.2488
 9187SOL    HW128139   3.199   8.223   8.807 -0.2524 -0.2823  0.8193
 9187SOL    HW228140   3.144   8.247   8.668  1.5800 -0.3841  0.0449
 9188SOL     OW28141   9.791   9.435   0.137 -0.4003  0.0701 -0.6723
 9188SOL    HW128142   9.847   9.358   0.143  0.1311  0.4351 -0.7879
 9188SOL    HW228143   9.712   9.405   0.092 -1.2120 -0.9538  1.3213
 9189SOL     OW28144   7.155   6.983   4.921 -0.0425 -0.0451  0.1714
 9189SOL    HW128145   7.194   7.045   4.860  1.1369  0.0033  0.9457
 9189SOL    HW228146   7.138   6.905   4.870 -0.1010  0.3726 -0.4586
 9190SOL     OW28147   0.141   4.366   1.028 -0.3258 -0.9753 -0.1928
 9190SOL    HW128148   0.169   4.322   0.947  2.5877  0.4025 -0.0560
 9190SOL    HW228149   0.125   4.456   1.002 -3.2205 -1.3121  0.1188
 9191SOL     OW28150   3.949   7.704   6.067  0.1166 -0.3569  0.3934
 9191SOL    HW128151   4.033   7.707   6.021  1.7872 -2.3850  3.0293
 9191SOL    HW228152   3.915   7.616   6.051 -1.0803  0.1296  0.1187
 9192SOL     OW28153   6.202   2.091   9.336  0.1711 -0.6007  0.1493
 9192SOL    HW128154   6.172   2.106   9.247  0.2941  1.1648  0.3677
 9192SOL    HW228155   6.159   2.010   9.363 -1.3928 -0.1346 -0.8424
 9193SOL     OW28156   7.113   7.707   1.827  0.4393  0.2329 -0.1899
 9193SOL    HW128157   7.166   7.651   1.770 -0.7801  0.5481 -1.7021
 9193SOL    HW228158   7.027   7.665   1.828  0.6507 -0.2947  2.2490
 9194SOL     OW28159   3.953   1.068   7.435 -0.4592  0.5713  0.2165
 9194SOL    HW128160   4.029   1.048   7.381 -0.6823  0.7842 -0.1864
 9194SOL    HW228161   3.984   1.134   7.497 -0.2187  0.3777  0.3020
 9195SOL     OW28162   0.154   9.815   3.801  0.5366  0.2615  0.2654
 9195SOL    HW128163   0.172   9.908   3.790 -0.2350  0.4396  0.4713
 9195SOL    HW228164   0.225   9.783   3.857  0.7291  0.7463  0.2968
 9196SOL     OW28165   8.798   3.268   4.901 -0.2774  0.0162 -0.3528
 9196SOL    HW128166   8.796   3.334   4.832  0.5676  1.1131  0.6360
 9196SOL    HW228167   8.776   3.316   4.981  0.5307 -0.8436  0.4137
 9197SOL     OW28168   4.622   2.162   7.284  0.3664  0.1230 -0.1104
 9197SOL    HW128169   4.534   2.136   7.309  0.4448 -0.5176 -0.4801
 9197SOL    HW228170   4.660   2.198   7.365  0.4715 -1.5194  0.6134
 9198SOL     OW28171   7.396   2.651   5.934 -0.1152  0.0693 -0.9588
 9198SOL    HW128172   7.346   2.572   5.913  0.0863 -0.3020 -0.0856
 9198SOL    HW228173   7.339   2.700   5.993  0.8270 -0.7326  0.6860
 9199SOL     OW28174   7.352   6.580   6.754 -0.0477  0.7571  0.0764
 9199SOL    HW128175   7.265   6.557   6.721  0.0009  0.3568  0.2244
 9199SOL    HW228176   7.402   6.499   6.748  0.5841  1.1869 -0.8301
 9200SOL     OW28177   0.025   7.298   8.874 -0.2911  0.1522  0.0650
 9200SOL    HW128178   0.117   7.274   8.869  0.1442  1.8926 -1.3703
 9200SOL    HW228179   0.023   7.378   8.926 -0.9152  0.4591 -0.4116
 9201SOL     OW28180   3.968   2.042   0.053  1.2126 -0.0138  0.3903
 9201SOL    HW128181   3.965   1.946   0.053 -1.9478 -0.0718 -2.1850
 9201SOL    HW228182   3.884   2.068   0.090  0.4260  1.6100 -2.2866
 9202SOL     OW28183   3.142   1.556   7.636  0.1569  0.5735  0.8726
 9202SOL    HW128184   3.127   1.467   7.603  0.4726  1.6417 -2.5828
 9202SOL    HW228185   3.060   1.579   7.679 -0.6092 -0.7875  0.2235
 9203SOL     OW28186   9.677   5.380   0.901 -0.3875 -0.0032 -0.0563
 9203SOL    HW128187   9.700   5.300   0.948 -3.5157 -2.1852 -1.8428
 9203SOL    HW228188   9.606   5.418   0.953 -1.1489 -0.2564 -0.8784
 9204SOL     OW28189   6.639   4.993   3.632  1.3782 -0.5026 -0.3943
 9204SOL    HW128190   6.681   4.913   3.600  0.5571 -1.1228  0.0298
 9204SOL    HW228191   6.546   4.971   3.635  1.0491  0.7066 -0.9357
 9205SOL     OW28192   9.607   7.369   5.348 -0.5627 -0.0668 -0.0855
 9205SOL    HW128193   9.650   7.362   5.263  1.0358  1.1937  0.5530
 9205SOL    HW228194   9.661   7.432   5.397 -2.4258  0.5807  1.2474
 9206SOL     OW28195   4.747   2.367   2.288 -0.6433 -0.3499  0.3474
 9206SOL    HW128196   4.773   2.310   2.216 -1.3431  0.1052 -0.2843
 9206SOL    HW228197   4.815   2.355   2.354 -0.6123 -1.6678  0.1003
 9207SOL     OW28198   2.437   2.511   7.185  0.3371 -0.0993 -0.5271
 9207SOL    HW128199   2.467   2.557   7.106  0.6228 -0.8893 -0.8895
 9207SOL    HW228200   2.453   2.573   7.256  1.2197  0.1695 -0.9385
 9208SOL     OW28201   4.272   6.278   0.656 -0.2600 -0.0949  0.0138
 9208SOL    HW128202   4.335   6.324   0.711 -1.8466  0.3013  1.5986
 9208SOL    HW228203   4.286   6.185   0.676 -0.3806  0.0098  0.5830
 9209SOL     OW28204   1.389   3.680   8.627  0.4600 -0.4527  0.0380
 9209SOL    HW128205   1.346   3.695   8.543 -3.3008  0.3741  1.9079
 9209SOL    HW228206   1.429   3.593   8.619 -2.3001 -1.6916 -1.7062
 9210SOL     OW28207   8.371   0.274   7.386  0.0267 -0.0707 -0.2515
 9210SOL    HW128208   8.455   0.320   7.392  0.3900 -0.6658 -0.7017
 9210SOL    HW228209   8.313   0.335   7.340  1.3112 -1.1162 -3.5493
 9211SOL     OW28210   9.277   6.949   6.923 -0.3514 -0.0908  0.0348
 9211SOL    HW128211   9.213   6.888   6.887 -0.1924 -0.1652 -0.1235
 9211SOL    HW228212   9.229   7.032   6.932 -0.5315 -0.2064  0.1312
 9212SOL     OW28213   1.796   3.517   9.394 -0.1863  0.5752  0.7240
 9212SOL    HW128214   1.761   3.584   9.452  1.2608  1.7067  0.3593
 9212SOL    HW228215   1.829   3.449   9.453 -0.5815  0.7469  1.1476
 9213SOL     OW28216   3.323   1.641   7.255  0.1215 -0.1034 -0.0498
 9213SOL    HW128217   3.341   1.734   7.239  0.8797  0.1086  1.7905
 9213SOL    HW228218   3.260   1.617   7.187 -1.4743  2.2249  0.4942
 9214SOL     OW28219   2.480   2.145   6.798  0.1593 -0.1736 -0.0012
 9214SOL    HW128220   2.533   2.177   6.724  0.6023 -1.0070 -0.0647
 9214SOL    HW228221   2.542   2.140   6.871  0.3177 -1.6146 -0.1981
 9215SOL     OW28222   5.445   8.125   8.516  0.7307 -0.7834  0.9561
 9215SOL    HW128223   5.393   8.206   8.521  0.3563 -0.7309 -2.1753
 9215SOL    HW228224   5.390   8.059   8.559 -1.4052 -0.4322 -1.0578
 9216SOL     OW28225   1.428   5.245   8.999 -0.1417 -0.2604  0.0574
 9216SOL    HW128226   1.422   5.189   9.076  1.4791 -0.1300  0.3121
 9216SOL    HW228227   1.441   5.333   9.034  0.1466 -0.1310 -0.3644
 9217SOL     OW28228   1.408   4.747   2.356  0.0929  0.0756  0.4368
 9217SOL    HW128229   1.387   4.656   2.377  0.8217 -0.0834  0.5297
 9217SOL    HW228230   1.406   4.793   2.440  1.9740 -0.3436  0.7572
 9218SOL     OW28231   5.440   1.136   9.825 -0.1937  0.2604 -0.4068
 9218SOL    HW128232   5.387   1.099   9.896  1.1251 -0.4672  0.2444
 9218SOL    HW228233   5.378   1.186   9.773 -2.0295 -2.3646 -0.9940
 9219SOL     OW28234   8.797   0.512   9.511 -0.2156 -0.1565 -0.0734
 9219SOL    HW128235   8.750   0.490   9.431  0.1162  0.7493 -0.5353
 9219SOL    HW228236   8.730   0.549   9.569 -0.3468 -0.2496 -0.1671
 9220SOL     OW28237   2.694   2.433   8.824  0.5754 -0.1597 -0.4247
 9220SOL    HW128238   2.652   2.349   8.804  1.9364 -0.7660 -0.9306
 9220SOL    HW228239   2.649   2.465   8.902 -1.8676  0.0330 -1.8249
 9221SOL     OW28240   6.110   7.882   5.827 -0.3465  0.1407  0.2235
 9221SOL    HW128241   6.153   7.965   5.846  1.5584 -0.6277 -0.5086
 9221SOL    HW228242   6.060   7.898   5.747 -0.0346  0.5905  0.1185
 9222SOL     OW28243   1.700   8.487   5.139 -0.3567 -0.1446  0.1357
 9222SOL    HW128244   1.723   8.573   5.173  2.0009  0.5293 -2.6939
 9222SOL    HW228245   1.712   8.495   5.044 -1.2564 -3.2532 -0.3604
 9223SOL     OW28246   5.402   6.982   2.387 -0.1598  0.0159 -0.2027
 9223SOL    HW128247   5.381   6.894   2.359  1.2497 -0.3450 -0.2031
 9223SOL    HW228248   5.417   7.031   2.306  3.1167 -0.8254 -0.2419
 9224SOL     OW28249   6.048   0.217   2.069  0.5740  0.0065 -0.3252
 9224SOL    HW128250   6.074   0.287   2.130  0.4249  0.3522 -0.6502
 9224SOL    HW228251   6.009   0.264   1.995  0.6328 -0.4155 -0.6265
 9225SOL     OW28252   4.354   6.024   1.060  0.5446  0.1001  0.2274
 9225SOL    HW128253   4.334   5.958   0.994  0.5150  0.5053 -0.1790
 9225SOL    HW228254   4.310   5.994   1.139 -1.1422  0.6248 -0.4600
 9226SOL     OW28255   2.290   3.252   3.857  0.3313 -0.4360  0.2608
 9226SOL    HW128256   2.363   3.285   3.910  0.1789  1.5050 -0.6418
 9226SOL    HW228257   2.280   3.161   3.884  1.1882  0.0693  2.4968
 9227SOL     OW28258   5.564   8.472   8.656 -0.0463  0.1600 -0.0071
 9227SOL    HW128259   5.564   8.467   8.751  0.2036  0.6266  0.0224
 9227SOL    HW228260   5.566   8.566   8.637 -1.1842  0.1133 -0.4746
 9228SOL     OW28261   7.050   9.046   1.731  0.3173 -0.0383 -0.1889
 9228SOL    HW128262   7.128   9.076   1.776  0.5639  1.2567 -1.4073
 9228SOL    HW228263   6.978   9.092   1.774  0.2201 -1.0429  0.7690
 9229SOL     OW28264   8.516   0.204   9.553  0.2263 -0.0050  0.2451
 9229SOL    HW128265   8.439   0.262   9.550 -1.6518 -2.3693 -0.3249
 9229SOL    HW228266   8.527   0.174   9.463  2.7675  1.3069  0.0221
 9230SOL     OW28267   0.466   4.393   4.240  0.0966  0.0608 -0.2320
 9230SOL    HW128268   0.479   4.381   4.146  2.0778 -2.2811  0.2479
 9230SOL    HW228269   0.554   4.401   4.276 -0.4930 -1.3722  1.6578
 9231SOL     OW28270   7.343   5.428   9.803 -0.1103 -0.1114  0.2157
 9231SOL    HW128271   7.319   5.339   9.780  1.7789 -0.6040 -0.0377
 9231SOL    HW228272   7.396   5.419   9.883  0.6709  0.6863 -0.1905
 9232SOL     OW28273   0.065   0.294   2.158  0.8469 -0.0983 -0.6453
 9232SOL    HW128274  -0.006   0.334   2.108  1.2447 -0.2325 -1.3215
 9232SOL    HW228275   0.068   0.345   2.239 -0.5576 -0.6075 -0.2351
 9233SOL     OW28276   1.766   3.056   5.105 -0.1622 -0.2059 -0.0235
 9233SOL    HW128277   1.837   3.106   5.065 -1.2981  0.3399 -1.4859
 9233SOL    HW228278   1.793   2.964   5.096  1.1640  0.0400  1.1318
 9234SOL     OW28279   1.252   7.672   9.787  0.4133 -0.4830  0.5421
 9234SOL    HW128280   1.192   7.677   9.862 -1.4782  0.0177 -0.9118
 9234SOL    HW228281   1.235   7.586   9.749  1.7965 -0.9753  1.0025
 9235SOL     OW28282   2.470   7.305   7.344  0.1662  0.4088 -0.1226
 9235SOL    HW128283   2.445   7.252   7.268 -1.6252  0.9096  0.0834
 9235SOL    HW228284   2.541   7.360   7.312  1.3272 -1.3097 -0.6416
 9236SOL     OW28285   8.618   2.306   0.751 -0.0548 -0.0613 -0.4479
 9236SOL    HW128286   8.552   2.373   0.769  0.7951  0.5908  0.3932
 9236SOL    HW228287   8.701   2.352   0.760  0.5193 -0.6529 -2.3429
 9237SOL     OW28288   0.535   2.892   1.557 -0.4688 -0.5309 -0.2480
 9237SOL    HW128289   0.484   2.818   1.526 -0.2115 -0.6353 -0.4301
 9237SOL    HW228290   0.620   2.882   1.514 -0.8671  0.6091 -1.3632
 9238SOL     OW28291   5.246   3.167   0.762 -0.2128  0.1560  0.0317
 9238SOL    HW128292   5.273   3.158   0.853  0.1353  0.0719 -0.0754
 9238SOL    HW228293   5.158   3.203   0.766 -1.0085 -1.7209  0.4490
 9239SOL     OW28294   0.465   5.114   8.606 -0.1460 -0.4492 -0.6272
 9239SOL    HW128295   0.404   5.183   8.632 -0.7467 -0.5727 -1.6679
 9239SOL    HW228296   0.534   5.160   8.558 -0.6118 -0.5746 -1.4305
 9240SOL     OW28297   6.572   9.747   8.186  0.0953  0.6632 -0.0702
 9240SOL    HW128298   6.511   9.680   8.154  0.1723  0.4478  0.2247
 9240SOL    HW228299   6.577   9.732   8.281  0.2296  0.9921 -0.0224
 9241SOL     OW28300   8.609   5.990   3.572  1.0239 -0.0183 -0.2252
 9241SOL    HW128301   8.692   5.947   3.555  1.0047 -0.3552  0.4815
 9241SOL    HW228302   8.566   5.935   3.638 -0.9384 -1.3304 -2.4477
 9242SOL     OW28303   1.625   9.157   8.464 -0.0674  0.1814 -0.6741
 9242SOL    HW128304   1.544   9.158   8.514  0.8170 -1.3433  0.8892
 9242SOL    HW228305   1.663   9.071   8.480  1.1705  0.3030 -2.5460
 9243SOL     OW28306   0.020   3.746   3.933  0.2786  0.6155 -0.0876
 9243SOL    HW128307   0.069   3.676   3.890  0.2839  2.2275 -2.9213
 9243SOL    HW228308  -0.067   3.741   3.895 -0.6535  0.2889  1.9700
 9244SOL     OW28309   1.639   2.685   1.125 -0.2857 -0.4141 -0.3740
 9244SOL    HW128310   1.546   2.690   1.150  0.0071 -1.2835  0.9846
 9244SOL    HW228311   1.679   2.763   1.164 -0.3826 -0.2047 -0.6908
 9245SOL     OW28312   3.296   2.516   9.003 -0.3390  0.5717  0.1733
 9245SOL    HW128313   3.379   2.556   8.977 -0.7315  0.9786 -0.4589
 9245SOL    HW228314   3.283   2.446   8.940 -1.3584  1.6429 -0.8282
 9246SOL     OW28315   2.808   8.380   0.703  0.9075  0.1354 -0.3929
 9246SOL    HW128316   2.769   8.320   0.766 -0.2919  1.3459  0.0503
 9246SOL    HW228317   2.886   8.414   0.746 -0.6278  1.9980  1.0709
 9247SOL     OW28318   2.492   1.326   9.644  0.3947 -0.3939  0.7106
 9247SOL    HW128319   2.570   1.312   9.697  0.4560 -1.7254  0.2952
 9247SOL    HW228320   2.430   1.370   9.703  1.0537 -0.3334  1.3712
 9248SOL     OW28321   4.684   3.776   3.805 -0.0902  0.3894  0.1841
 9248SOL    HW128322   4.768   3.738   3.832 -0.5591 -0.4112  0.5452
 9248SOL    HW228323   4.665   3.842   3.871  0.2760  0.6103  0.0721
 9249SOL     OW28324   3.511   9.211   1.261 -0.1229 -0.1928  0.4453
 9249SOL    HW128325   3.435   9.261   1.230 -0.9393 -1.1980  0.7410
 9249SOL    HW228326   3.516   9.136   1.202  0.1197 -0.5743  0.9448
 9250SOL     OW28327   5.766   4.340   6.953  0.0557  0.3345  0.2343
 9250SOL    HW128328   5.689   4.347   7.009  0.6389 -1.6791  1.4110
 9250SOL    HW228329   5.830   4.399   6.993 -0.0480  0.0936  0.7581
 9251SOL     OW28330   3.197   2.084   7.810 -0.0915 -0.2825  0.5669
 9251SOL    HW128331   3.287   2.106   7.786 -1.2486  2.9392 -1.5465
 9251SOL    HW228332   3.194   2.098   7.905  2.1577 -3.0726  1.1742
 9252SOL     OW28333   6.143   3.006   7.139 -0.3121 -0.4441  1.0992
 9252SOL    HW128334   6.234   3.016   7.168  0.3838 -1.2130 -0.7046
 9252SOL    HW228335   6.113   2.924   7.178  0.0601 -0.6227  1.0111
 9253SOL     OW28336   6.276   2.185   3.163 -0.3728  0.0260 -1.0964
 9253SOL    HW128337   6.321   2.121   3.108 -0.8647 -0.8570 -0.5167
 9253SOL    HW228338   6.265   2.140   3.247  0.7470  1.4851 -0.1170
 9254SOL     OW28339   0.767   5.709   3.302  0.2501  0.3044  0.3028
 9254SOL    HW128340   0.750   5.630   3.353  1.1184  1.1417  1.9489
 9254SOL    HW228341   0.862   5.720   3.305  0.2885  0.5636 -1.2465
 9255SOL     OW28342   4.577   6.615   0.805  0.1050 -0.3450  0.7442
 9255SOL    HW128343   4.508   6.676   0.829  0.5471  0.5078 -0.0689
 9255SOL    HW228344   4.657   6.654   0.840  0.3506 -0.5851  0.4579
 9256SOL     OW28345   3.989   2.784   8.182  0.3315  0.8099  0.0632
 9256SOL    HW128346   4.006   2.804   8.090  0.2335 -0.3450 -0.2189
 9256SOL    HW228347   4.073   2.800   8.225  0.9197 -0.4683 -0.5599
 9257SOL     OW28348   5.160   1.847   0.160  0.2887 -0.5817  0.2741
 9257SOL    HW128349   5.252   1.861   0.182  0.3854 -1.6189  0.5650
 9257SOL    HW228350   5.122   1.935   0.163  1.4805  0.0061 -0.9204
 9258SOL     OW28351   9.446   6.316   4.347  0.1164 -0.3693 -0.6599
 9258SOL    HW128352   9.535   6.288   4.369  0.4163  0.6881 -0.4975
 9258SOL    HW228353   9.390   6.275   4.413  0.5013 -0.8443 -0.6245
 9259SOL     OW28354   2.599   2.425   7.969  0.6000 -0.2108 -0.1179
 9259SOL    HW128355   2.627   2.517   7.966  2.3929 -0.7252 -2.6277
 9259SOL    HW228356   2.521   2.422   7.914  1.7674 -0.4686 -1.8430
 9260SOL     OW28357   3.425   3.808   1.234  0.2515 -0.0014 -0.2274
 9260SOL    HW128358   3.459   3.729   1.276  0.8122 -0.1550 -0.9460
 9260SOL    HW228359   3.498   3.840   1.181  0.7732  2.2199  1.6882
 9261SOL     OW28360   3.246   0.477   4.952  0.3858  0.5986  0.4640
 9261SOL    HW128361   3.249   0.397   4.901 -1.8549  0.3089  0.6880
 9261SOL    HW228362   3.193   0.537   4.900  0.7104  1.3870  1.0158
 9262SOL     OW28363   9.466   4.329   3.909  0.2926 -0.1918 -0.4499
 9262SOL    HW128364   9.533   4.308   3.974 -0.9533  0.2281  1.0161
 9262SOL    HW228365   9.510   4.389   3.849  1.3908 -0.3592  0.1552
 9263SOL     OW28366   6.429   5.103   5.578  0.5410 -0.3325 -0.0017
 9263SOL    HW128367   6.396   5.134   5.494  1.1507 -0.0259 -0.1289
 9263SOL    HW228368   6.371   5.029   5.600 -0.3450  0.3058 -0.1265
 9264SOL     OW28369   3.219   0.268   9.878 -0.2993 -0.0040  0.4645
 9264SOL    HW128370   3.180   0.226   9.801 -2.1131 -0.2422  1.4507
 9264SOL    HW228371   3.185   0.358   9.875  2.4521  1.1214 -0.8721
 9265SOL     OW28372   4.513   0.877   7.926  1.0170  0.3814 -0.1018
 9265SOL    HW128373   4.419   0.891   7.919  0.8455 -1.2172 -2.2321
 9265SOL    HW228374   4.534   0.895   8.017 -1.8339 -1.8167  1.1375
 9266SOL     OW28375   5.465   9.031   3.544  0.2110  0.2764  0.0597
 9266SOL    HW128376   5.550   9.070   3.525  0.4226 -0.6186 -0.9543
 9266SOL    HW228377   5.408   9.061   3.473 -0.2160  0.5175  0.4935
 9267SOL     OW28378   1.121   6.947   1.142 -0.1920 -0.2928  0.3241
 9267SOL    HW128379   1.189   6.981   1.084  1.0463  1.6779  2.7487
 9267SOL    HW228380   1.081   6.875   1.093  3.7163 -1.6946 -1.1635
 9268SOL     OW28381   0.369   8.280   3.360  0.0686 -0.2940 -0.4510
 9268SOL    HW128382   0.285   8.281   3.406 -0.3379  0.3387 -1.1797
 9268SOL    HW228383   0.421   8.213   3.405 -0.5256 -0.1061  0.5383
 9269SOL     OW28384   8.896   9.595   3.634  0.9465 -0.1242 -0.2302
 9269SOL    HW128385   8.946   9.627   3.559 -0.2696  1.7440 -0.3222
 9269SOL    HW228386   8.954   9.532   3.677  2.0294 -0.5566 -2.1944
 9270SOL     OW28387   3.154   9.957   0.722  0.1917  0.1535  0.2685
 9270SOL    HW128388   3.133   9.938   0.814 -1.0212 -0.7572 -0.1722
 9270SOL    HW228389   3.228  10.018   0.727 -0.8891  1.4431  1.8775
 9271SOL     OW28390   6.208   5.935   5.390  0.1170 -0.1307  0.3411
 9271SOL    HW128391   6.141   5.878   5.425 -0.4007  0.1422 -0.1907
 9271SOL    HW228392   6.222   6.001   5.458  0.8865 -0.9975  1.0601
 9272SOL     OW28393   4.899   1.797   5.419  0.0162  0.1015 -0.6547
 9272SOL    HW128394   4.876   1.756   5.502 -0.7908  0.0180 -0.9122
 9272SOL    HW228395   4.984   1.838   5.435 -0.6845  1.1458  0.5818
 9273SOL     OW28396   4.967   1.377   1.937  0.1801  0.0291 -0.0135
 9273SOL    HW128397   5.017   1.455   1.961  1.7599 -0.6292 -0.9884
 9273SOL    HW228398   4.956   1.385   1.842  2.8842 -2.2462 -0.6412
 9274SOL     OW28399   9.220   4.582   4.267  0.0031  0.3542 -0.0382
 9274SOL    HW128400   9.256   4.494   4.281 -0.9277  0.0704  0.6438
 9274SOL    HW228401   9.285   4.626   4.212 -0.5035 -1.4591 -2.2751
 9275SOL     OW28402   5.007   1.665   3.791  0.0741  0.3349 -0.2873
 9275SOL    HW128403   5.034   1.692   3.703  0.7123  1.5762  0.2521
 9275SOL    HW228404   4.987   1.748   3.836  1.5787 -0.0886  1.3032
 9276SOL     OW28405   2.679   1.478   4.689  0.3733  0.2967  0.0318
 9276SOL    HW128406   2.755   1.461   4.746  0.5965 -0.3691 -0.4472
 9276SOL    HW228407   2.604   1.453   4.743  0.6485 -1.5210 -0.3567
 9277SOL     OW28408   9.303   6.487   5.447 -0.3573  0.2342  0.3573
 9277SOL    HW128409   9.371   6.553   5.435  0.8352 -1.2037 -1.3870
 9277SOL    HW228410   9.350   6.410   5.478 -1.0922 -0.8745 -1.1276
 9278SOL     OW28411   3.759   6.874   4.411 -0.0909  0.2710  0.2648
 9278SOL    HW128412   3.820   6.947   4.410  1.5128 -0.9982 -1.4921
 9278SOL    HW228413   3.680   6.908   4.368  0.6338  0.9929 -0.5425
 9279SOL     OW28414   6.241   5.712   4.106 -0.9543 -0.1515 -0.1996
 9279SOL    HW128415   6.289   5.768   4.045 -0.9657  1.1806  0.9816
 9279SOL    HW228416   6.170   5.767   4.139  0.6839  0.2037  3.1536
 9280SOL     OW28417   9.657   0.422   8.092 -0.3281 -0.3934  0.6548
 9280SOL    HW128418   9.744   0.424   8.131 -0.1543  1.2149  0.2796
 9280SOL    HW228419   9.625   0.333   8.107  2.1434 -1.6575 -0.9565
 9281SOL     OW28420   5.471   4.520   8.034 -0.2036 -0.6673 -0.0147
 9281SOL    HW128421   5.510   4.492   7.952  0.3943  0.5799 -0.1880
 9281SOL    HW228422   5.377   4.507   8.023 -0.3309  1.2367 -1.6374
 9282SOL     OW28423   7.579   5.472   6.437 -0.5003 -0.2320  0.3010
 9282SOL    HW128424   7.556   5.385   6.469 -0.2624  0.0772  1.3625
 9282SOL    HW228425   7.510   5.493   6.375 -0.4057 -1.2843 -0.1801
 9283SOL     OW28426   4.200   4.433   6.044 -0.1542  0.2722  0.4660
 9283SOL    HW128427   4.262   4.373   6.001 -1.1497 -1.1876  1.0045
 9283SOL    HW228428   4.186   4.395   6.131 -0.2690  1.6951  1.0962
 9284SOL     OW28429   2.313   9.169   4.134 -0.2878 -0.4254 -0.8384
 9284SOL    HW128430   2.315   9.258   4.101  0.2008  0.8861  2.3659
 9284SOL    HW228431   2.262   9.120   4.069 -3.6704  2.9394 -1.0535
 9285SOL     OW28432   7.038   1.147   5.190  0.2249  0.8738  0.6360
 9285SOL    HW128433   7.108   1.190   5.238  0.5753  0.1998  0.7420
 9285SOL    HW228434   6.975   1.216   5.172  1.6231  1.8554 -0.8139
 9286SOL     OW28435   5.081   8.998   9.947 -0.4251  0.2654  0.2568
 9286SOL    HW128436   5.083   9.056   9.871  0.1974 -0.2610 -0.1392
 9286SOL    HW228437   4.997   8.951   9.939 -0.0642 -0.2750 -0.4871
 9287SOL     OW28438   5.597   9.363   9.463  0.6146  0.0362  0.0445
 9287SOL    HW128439   5.628   9.410   9.386 -2.1886  0.9178 -0.6347
 9287SOL    HW228440   5.619   9.421   9.537  0.4013  0.7114 -0.4189
 9288SOL     OW28441   7.135   2.486   7.259  0.3012 -0.0299 -0.2865
 9288SOL    HW128442   7.106   2.476   7.349  0.5825 -1.0179 -0.2895
 9288SOL    HW228443   7.206   2.422   7.249  2.0984  1.8624 -0.4572
 9289SOL     OW28444   2.377   5.461   6.970  0.3797  0.5706  0.2987
 9289SOL    HW128445   2.336   5.410   6.901  0.5314 -0.2147  0.7792
 9289SOL    HW228446   2.374   5.404   7.047  0.3309  1.3767  0.9053
 9290SOL     OW28447   7.083   7.970   4.117 -0.0827 -0.1337 -0.2807
 9290SOL    HW128448   7.016   8.032   4.145 -0.1801 -0.5162  0.3596
 9290SOL    HW228449   7.041   7.884   4.125  0.9329 -0.5174  1.6176
 9291SOL     OW28450   0.045   5.561   1.134  0.2342  0.5117  0.1620
 9291SOL    HW128451   0.009   5.647   1.155 -1.4383  0.0755 -0.7927
 9291SOL    HW228452   0.118   5.580   1.075  0.1702  1.2935  0.3173
 9292SOL     OW28453   1.251   9.301   1.552  0.4954 -0.0726 -0.1106
 9292SOL    HW128454   1.296   9.245   1.615  0.8639 -0.5002 -0.7315
 9292SOL    HW228455   1.321   9.342   1.501  0.2105  0.4332 -0.0969
 9293SOL     OW28456   7.802   7.372   4.762  0.6701  0.1655  0.0807
 9293SOL    HW128457   7.883   7.356   4.810 -0.9055 -0.5529  2.6639
 9293SOL    HW228458   7.822   7.344   4.673  4.1704  2.8384 -0.2096
 9294SOL     OW28459   3.421   1.973   6.173  0.3106 -0.5351 -0.1858
 9294SOL    HW128460   3.476   2.003   6.244  1.6057 -0.4908 -1.1668
 9294SOL    HW228461   3.463   2.007   6.094 -1.7286  0.4449 -0.9307
 9295SOL     OW28462   9.486   3.690   2.917 -0.0227  0.8436 -0.0527
 9295SOL    HW128463   9.403   3.663   2.957 -1.3936  2.8159 -1.4363
 9295SOL    HW228464   9.549   3.626   2.951 -1.6760  0.4510  2.6276
 9296SOL     OW28465   8.834   7.164   5.595 -0.4515 -0.2390  0.0038
 9296SOL    HW128466   8.929   7.151   5.601 -0.4791 -0.4183  0.0615
 9296SOL    HW228467   8.803   7.149   5.685 -0.1727  2.8205  0.7030
 9297SOL     OW28468   9.185   5.713   4.620 -0.3105 -0.0754  0.1387
 9297SOL    HW128469   9.163   5.712   4.527 -0.4556 -0.4910  0.1714
 9297SOL    HW228470   9.122   5.652   4.660 -1.3835  1.4119  0.7791
 9298SOL     OW28471   9.337   0.009   9.025 -0.0345  0.0692 -0.0966
 9298SOL    HW128472   9.339   0.055   9.109  0.1333  1.8617 -1.0387
 9298SOL    HW228473   9.423  -0.033   9.019  0.3963  0.9048  0.1148
 9299SOL     OW28474   0.756   4.370   2.615 -0.4822  0.8509 -0.3075
 9299SOL    HW128475   0.793   4.284   2.631  0.0993  1.2146  0.3770
 9299SOL    HW228476   0.694   4.384   2.687 -0.3110  1.1423 -0.2116
 9300SOL     OW28477   6.880   6.286   3.918 -0.0982  0.0687  0.1198
 9300SOL    HW128478   6.873   6.371   3.875  0.0551  0.2801  0.5054
 9300SOL    HW228479   6.807   6.285   3.980 -0.5213 -0.3713 -0.3711
 9301SOL     OW28480   4.704   6.995   3.132 -0.3212  0.1446 -0.1311
 9301SOL    HW128481   4.796   6.995   3.156  0.2452 -1.0587 -2.0670
 9301SOL    HW228482   4.666   7.070   3.179  1.4490  0.2128  1.2714
 9302SOL     OW28483   0.290   5.461   9.349 -0.0897 -0.4804 -0.1825
 9302SOL    HW128484   0.317   5.415   9.428  0.8943 -1.7241 -1.2132
 9302SOL    HW228485   0.363   5.519   9.329 -0.4681  0.0621 -0.0319
 9303SOL     OW28486   2.801   6.653   6.306 -0.1903 -0.3971 -0.1320
 9303SOL    HW128487   2.827   6.561   6.313 -2.7997 -1.2757 -0.7982
 9303SOL    HW228488   2.773   6.676   6.395  1.3960  0.1008  0.2604
 9304SOL     OW28489   9.638   5.076   1.843 -0.0370  0.4054 -0.9431
 9304SOL    HW128490   9.733   5.080   1.852 -0.0116 -0.7694 -0.5244
 9304SOL    HW228491   9.623   5.088   1.749  0.8040 -2.8151 -1.6126
 9305SOL     OW28492   2.595   7.486   1.268  0.0628  0.2551 -0.6119
 9305SOL    HW128493   2.542   7.504   1.190 -0.7701  0.5412  0.0146
 9305SOL    HW228494   2.535   7.444   1.329  0.9297 -0.7671 -0.4327
 9306SOL     OW28495   0.913   1.579   1.426 -0.3099 -0.6520 -0.0343
 9306SOL    HW128496   0.990   1.626   1.457 -0.2654 -0.7312 -0.0228
 9306SOL    HW228497   0.868   1.552   1.506 -0.0402 -1.1098 -0.0281
 9307SOL     OW28498   4.938   1.656   0.410  0.2173  0.0261  0.3593
 9307SOL    HW128499   4.908   1.571   0.376 -0.3260  0.1431  0.5405
 9307SOL    HW228500   5.033   1.654   0.397  0.3431 -1.0106  1.2371
 9308SOL     OW28501   6.943   9.251   5.843 -0.2126 -0.3293  0.3542
 9308SOL    HW128502   7.028   9.215   5.817  0.8430  0.0299  2.9804
 9308SOL    HW228503   6.884   9.175   5.842  0.5175 -0.9106 -0.0193
 9309SOL     OW28504   9.127   5.740   6.920 -0.0323 -0.1775  0.2412
 9309SOL    HW128505   9.049   5.736   6.975 -0.6318 -0.1093 -0.5854
 9309SOL    HW228506   9.107   5.805   6.853  1.6314  1.5669  1.3349
 9310SOL     OW28507   3.073   3.282   5.326 -0.9370  0.0205 -1.0886
 9310SOL    HW128508   3.152   3.229   5.315 -1.4823 -0.6379 -1.9311
 9310SOL    HW228509   3.023   3.236   5.393 -1.3277 -0.4540 -1.6929
 9311SOL     OW28510   9.491   3.760   3.300 -0.0925 -0.2689  0.1403
 9311SOL    HW128511   9.568   3.816   3.300 -0.4931  0.2848  0.5731
 9311SOL    HW228512   9.525   3.674   3.275  0.5571  0.1075 -0.3197
 9312SOL     OW28513   4.519   2.783   9.002  0.7044 -0.3956 -0.3193
 9312SOL    HW128514   4.548   2.784   9.093 -2.2412 -1.6781  0.7591
 9312SOL    HW228515   4.559   2.860   8.962  3.0856 -0.4952  1.6704
 9313SOL     OW28516   5.790   7.874   4.030 -0.3492  0.1945 -0.4360
 9313SOL    HW128517   5.810   7.918   3.947  2.4353 -1.0863 -0.5691
 9313SOL    HW228518   5.876   7.845   4.062 -1.5358 -0.7490  2.1006
 9314SOL     OW28519   5.589   2.614   4.160  0.1438  0.3677  0.0053
 9314SOL    HW128520   5.674   2.573   4.173 -0.1993 -0.3790 -0.0707
 9314SOL    HW228521   5.594   2.697   4.208  0.8091  0.1975  0.2333
 9315SOL     OW28522   2.828   7.444   9.572 -0.2605  0.2747 -0.0149
 9315SOL    HW128523   2.806   7.490   9.653  0.7887  0.9680 -0.1088
 9315SOL    HW228524   2.913   7.478   9.547  0.0936 -0.9941 -0.6432
 9316SOL     OW28525   6.022   6.552   5.116  0.3197 -0.0781  0.0786
 9316SOL    HW128526   6.045   6.629   5.063  1.4397 -0.0703  0.5322
 9316SOL    HW228527   6.099   6.495   5.109  1.1666  0.5904  2.8871
 9317SOL     OW28528   4.457   8.361   2.005  0.1368  0.9551  0.1373
 9317SOL    HW128529   4.381   8.369   2.063 -0.5003 -0.8954 -0.3823
 9317SOL    HW228530   4.531   8.347   2.064 -0.4914 -0.8046  0.5673
 9318SOL     OW28531   1.355   8.224   8.919 -0.4654  0.1986  0.2182
 9318SOL    HW128532   1.286   8.268   8.870  0.5686  3.0275  1.1430
 9318SOL    HW228533   1.381   8.286   8.987  1.1802 -1.8321  1.6109
 9319SOL     OW28534   0.045   2.524   4.410 -0.2598 -0.3344  0.2759
 9319SOL    HW128535  -0.046   2.554   4.418  0.3277  1.5161  0.2952
 9319SOL    HW228536   0.098   2.603   4.416  1.4843 -1.5229  2.1212
 9320SOL     OW28537   0.308   6.389   6.857 -0.3618  0.7366  0.3077
 9320SOL    HW128538   0.293   6.461   6.796 -1.4774  0.1245 -0.1716
 9320SOL    HW228539   0.370   6.332   6.813  0.8849  1.6127  0.8826
 9321SOL     OW28540   2.521   8.306   3.080  0.5521  0.1519  1.2303
 9321SOL    HW128541   2.502   8.359   3.002  1.3982  0.7060  1.3783
 9321SOL    HW228542   2.436   8.293   3.122  0.3821  1.9502  1.5233
 9322SOL     OW28543   8.211   7.631   5.927 -0.0057  0.3383  0.2693
 9322SOL    HW128544   8.278   7.635   5.995 -1.0757  1.9095  1.2992
 9322SOL    HW228545   8.175   7.543   5.934 -0.3393  0.5690  2.0438
 9323SOL     OW28546   3.843   6.589   7.525  0.5550 -0.5952  0.4878
 9323SOL    HW128547   3.780   6.661   7.517 -0.7538 -1.7725 -0.2623
 9323SOL    HW228548   3.928   6.631   7.515 -0.2252  0.5687 -2.4981
 9324SOL     OW28549   5.768   5.074   8.683 -0.4914 -0.5812  0.0608
 9324SOL    HW128550   5.765   5.051   8.775 -1.3074 -0.0364  0.1858
 9324SOL    HW228551   5.842   5.024   8.647  0.5426  0.0791  1.2250
 9325SOL     OW28552   8.772   7.975   6.445  0.3747  0.1591 -0.3224
 9325SOL    HW128553   8.849   7.970   6.502  0.8133  0.2735 -0.8876
 9325SOL    HW228554   8.807   7.956   6.357 -0.5083 -1.4226 -0.3795
 9326SOL     OW28555   7.795   3.317   8.844  0.3364 -0.2379 -0.1777
 9326SOL    HW128556   7.721   3.268   8.807  1.8927 -2.1286 -0.9698
 9326SOL    HW228557   7.831   3.365   8.769 -0.4339  1.2263  0.3462
 9327SOL     OW28558   4.128   5.055   7.779  0.2099 -0.2919 -0.0777
 9327SOL    HW128559   4.117   4.963   7.758 -0.1531 -0.3974  0.5628
 9327SOL    HW228560   4.121   5.060   7.875  1.6160  0.2004  0.0333
 9328SOL     OW28561   3.968   1.354   4.873 -0.0995  0.0361  0.4320
 9328SOL    HW128562   3.956   1.398   4.789 -1.1043 -1.2141 -0.1062
 9328SOL    HW228563   4.029   1.410   4.921 -0.0616  1.1345 -0.8527
 9329SOL     OW28564   2.798   4.508   4.404  0.2518 -0.3344 -0.3076
 9329SOL    HW128565   2.731   4.455   4.448 -0.2011  0.3795 -0.1250
 9329SOL    HW228566   2.877   4.494   4.455 -0.7115  2.1029  2.0695
 9330SOL     OW28567   8.645   2.914   1.589 -0.6783 -0.0525 -0.0269
 9330SOL    HW128568   8.673   3.003   1.571 -0.1544  0.1830  1.7001
 9330SOL    HW228569   8.651   2.906   1.685  1.0220 -2.4733 -0.2234
 9331SOL     OW28570   3.583   5.552   6.887 -0.0987 -0.5383  0.1661
 9331SOL    HW128571   3.623   5.638   6.873  0.0796 -0.7535 -0.7267
 9331SOL    HW228572   3.656   5.490   6.883 -0.2959 -0.7790  0.2332
 9332SOL     OW28573   3.099   6.907   7.457 -0.2240 -0.0136  0.6817
 9332SOL    HW128574   3.170   6.947   7.506  0.8086  0.9835 -1.4706
 9332SOL    HW228575   3.110   6.813   7.469  0.2244  0.1985  1.9917
 9333SOL     OW28576   3.486   4.471   0.088  0.4384  0.5927  0.2198
 9333SOL    HW128577   3.553   4.410   0.057 -0.6072 -0.0980 -0.7374
 9333SOL    HW228578   3.406   4.442   0.046  0.0766  3.2464 -1.1077
 9334SOL     OW28579   1.107   5.159   5.963 -0.3929  0.2386  0.3099
 9334SOL    HW128580   1.051   5.117   6.029  0.6238  0.1749  1.1490
 9334SOL    HW228581   1.112   5.250   5.991 -0.5090  0.3664 -0.0775
 9335SOL     OW28582   2.442   7.163   1.113  0.8867 -0.2861  0.3246
 9335SOL    HW128583   2.405   7.180   1.027 -0.4027  1.0319  1.0881
 9335SOL    HW228584   2.525   7.212   1.114  0.8446 -0.2047 -0.1169
 9336SOL     OW28585   1.063   7.350   2.987 -0.4080  0.2850 -0.5917
 9336SOL    HW128586   1.135   7.292   3.012  0.2466  1.0326 -0.6832
 9336SOL    HW228587   0.984   7.306   3.019  0.2341  0.2808  1.0850
 9337SOL     OW28588   2.233   4.413   0.213 -0.2326 -0.3753 -0.2641
 9337SOL    HW128589   2.153   4.410   0.265 -1.4724  0.1930 -2.0529
 9337SOL    HW228590   2.291   4.471   0.262  0.0341 -2.5230  2.2177
 9338SOL     OW28591   9.865   3.787   4.461  0.5133 -0.2614 -0.1050
 9338SOL    HW128592   9.910   3.860   4.504  0.3443 -0.5883  0.6373
 9338SOL    HW228593   9.818   3.828   4.388 -1.1055  0.7056  1.3976
 9339SOL     OW28594   2.837   4.474   6.612  0.1980 -0.1334  0.2868
 9339SOL    HW128595   2.896   4.535   6.657  2.7510 -0.6520 -2.0345
 9339SOL    HW228596   2.839   4.395   6.666  0.1976  0.4501  1.1635
 9340SOL     OW28597   4.881   2.735   7.708  0.0935  0.2328  0.4023
 9340SOL    HW128598   4.940   2.761   7.778  1.3423  1.8322 -1.1521
 9340SOL    HW228599   4.939   2.706   7.637 -0.9303  1.8395 -1.1700
 9341SOL     OW28600   6.422   1.540   0.793  0.4239  0.4630  0.1259
 9341SOL    HW128601   6.504   1.493   0.808 -0.9780 -1.4694  2.4576
 9341SOL    HW228602   6.378   1.490   0.725  0.2641  0.2424  0.3919
 9342SOL     OW28603   8.897   1.657   3.777  0.1807 -0.3889  0.5843
 9342SOL    HW128604   8.852   1.670   3.861  0.4047 -1.0374  0.8118
 9342SOL    HW228605   8.835   1.606   3.725  0.3007 -0.5407  0.5888
 9343SOL     OW28606   0.949   1.320   2.092 -0.5218  0.1692  0.4761
 9343SOL    HW128607   0.860   1.356   2.100  0.1382  1.6657  1.5278
 9343SOL    HW228608   0.971   1.333   2.000 -0.7912  1.3667  0.5500
 9344SOL     OW28609   3.020   7.413   1.849  0.5497 -0.1469 -0.1360
 9344SOL    HW128610   2.938   7.435   1.893  0.9936  0.6898  0.2824
 9344SOL    HW228611   2.997   7.338   1.794 -0.7282  0.6471 -0.7524
 9345SOL     OW28612   3.633   9.294   2.305  0.0639  0.0765  0.1585
 9345SOL    HW128613   3.609   9.309   2.214 -0.8264  1.7055  0.6344
 9345SOL    HW228614   3.727   9.309   2.308 -0.2295  2.2395 -0.1002
 9346SOL     OW28615   5.952   6.656   9.558  0.3126 -0.2092  0.3941
 9346SOL    HW128616   5.906   6.739   9.570  0.1930 -0.1545 -0.3626
 9346SOL    HW228617   5.883   6.591   9.545  0.4025 -0.4567  1.1348
 9347SOL     OW28618   7.141   9.253   8.330 -0.1600 -0.0895 -0.2779
 9347SOL    HW128619   7.130   9.172   8.279  1.2861 -0.6133  0.1782
 9347SOL    HW228620   7.224   9.289   8.300 -0.0389  0.4090  0.6156
 9348SOL     OW28621   8.932   1.379   9.773 -0.3806  0.5166 -0.0146
 9348SOL    HW128622   8.998   1.446   9.755  0.2059  0.2040  0.9055
 9348SOL    HW228623   8.862   1.397   9.711  0.3782  1.1248 -0.7165
 9349SOL     OW28624   3.976   2.491   6.592  0.0159 -0.5405 -0.7031
 9349SOL    HW128625   4.006   2.532   6.511  2.1132 -1.1067 -0.2740
 9349SOL    HW228626   3.948   2.564   6.647  0.1096 -0.0124 -1.3479
 9350SOL     OW28627   5.138   8.589   7.784 -0.3077  0.2052 -0.5035
 9350SOL    HW128628   5.119   8.520   7.847 -0.1420 -0.2948 -0.9959
 9350SOL    HW228629   5.087   8.566   7.706  0.9079 -0.1983 -1.2125
 9351SOL     OW28630   6.908   1.464   7.933  0.6743 -0.1342 -0.1922
 9351SOL    HW128631   6.898   1.373   7.903 -0.4643 -0.6195  1.4948
 9351SOL    HW228632   6.970   1.503   7.872  0.1894 -1.6741 -1.7589
 9352SOL     OW28633   4.852   3.291   4.357  0.3472 -0.7354 -0.4098
 9352SOL    HW128634   4.807   3.228   4.300 -0.4435 -0.1536 -0.4455
 9352SOL    HW228635   4.865   3.243   4.439 -0.3584 -0.9166 -0.3934
 9353SOL     OW28636   1.476   2.904   5.983  0.4293  0.0749  0.4369
 9353SOL    HW128637   1.455   2.829   6.040  0.1419  0.4055  0.7744
 9353SOL    HW228638   1.516   2.968   6.042 -0.2866  0.6008  0.3696
 9354SOL     OW28639   2.809   1.919   6.922  0.7962 -0.2456  0.0442
 9354SOL    HW128640   2.793   1.991   6.860 -4.7748  0.7639  2.0850
 9354SOL    HW228641   2.788   1.840   6.873  0.5685  0.1421 -0.4992
 9355SOL     OW28642   3.482   1.651   4.196  0.1489 -0.1780 -0.1832
 9355SOL    HW128643   3.429   1.698   4.261 -0.0507  1.7872 -1.6514
 9355SOL    HW228644   3.435   1.569   4.182  0.1343 -0.6042  2.0098
 9356SOL     OW28645   4.509   1.545   9.670  0.1838 -1.0597  0.5816
 9356SOL    HW128646   4.515   1.467   9.726  4.2696 -0.3364  1.4488
 9356SOL    HW228647   4.543   1.517   9.585  0.3686 -0.5617  0.4855
 9357SOL     OW28648   9.044   6.777   3.708 -0.1543 -0.2124  0.2390
 9357SOL    HW128649   9.036   6.730   3.791 -0.3103 -0.6654 -0.0313
 9357SOL    HW228650   9.003   6.719   3.644  1.9850 -0.9323 -0.5697
 9358SOL     OW28651   8.067   7.210   5.608 -0.4956 -0.1936  0.6351
 9358SOL    HW128652   7.987   7.184   5.654 -0.4568 -0.6908  0.4212
 9358SOL    HW228653   8.037   7.275   5.544 -0.9823 -1.4642 -0.4712
 9359SOL     OW28654   2.246   2.538   9.209  0.8011  0.0160  0.2650
 9359SOL    HW128655   2.176   2.481   9.176  0.3457  1.1320 -0.7902
 9359SOL    HW228656   2.319   2.479   9.226  0.2821 -0.9093 -0.6044
 9360SOL     OW28657   3.201   3.923   5.681  0.3324 -0.0348  0.2953
 9360SOL    HW128658   3.191   4.013   5.712 -0.7959 -0.2862  0.7213
 9360SOL    HW228659   3.123   3.909   5.626 -0.9811 -1.6203  2.4411
 9361SOL     OW28660   7.029   1.691   4.452  0.1710  0.2028  0.0275
 9361SOL    HW128661   7.048   1.782   4.475  0.4189  0.8315 -2.4164
 9361SOL    HW228662   7.112   1.657   4.419 -0.2926 -0.4059 -0.5348
 9362SOL     OW28663   7.442   4.059   0.672  0.2628  0.1198  0.4791
 9362SOL    HW128664   7.503   3.988   0.651 -0.0408  0.2032 -0.7992
 9362SOL    HW228665   7.396   4.029   0.751 -0.2660 -1.3934 -0.3497
 9363SOL     OW28666   0.398   0.084   4.898  0.1881 -0.7875 -0.1633
 9363SOL    HW128667   0.420   0.163   4.947 -0.3220 -0.7454  0.0024
 9363SOL    HW228668   0.316   0.054   4.937 -0.1974 -0.7812 -0.9620
 9364SOL     OW28669   4.773   4.006   9.853  0.0616 -0.4426 -0.2343
 9364SOL    HW128670   4.695   3.997   9.908  0.7621  0.2522  0.9013
 9364SOL    HW228671   4.810   4.091   9.877 -0.5666  0.7511 -3.0833
 9365SOL     OW28672   2.768   8.001   6.495  0.4216  0.2636  0.1710
 9365SOL    HW128673   2.707   7.929   6.509 -1.6964  2.1462  1.2240
 9365SOL    HW228674   2.845   7.978   6.548 -1.2445 -0.0940  2.5932
 9366SOL     OW28675   8.615   2.211   5.206 -0.2582 -0.5910  0.1207
 9366SOL    HW128676   8.561   2.132   5.205 -0.7167 -0.2961  0.9220
 9366SOL    HW228677   8.573   2.268   5.270  0.2901  0.1515 -0.1700
 9367SOL     OW28678   8.751   7.050   6.988  0.7929  0.1887 -0.1979
 9367SOL    HW128679   8.809   6.999   6.932  1.7621 -0.0202  0.9594
 9367SOL    HW228680   8.688   6.986   7.022  0.0503  0.3594 -1.2074
 9368SOL     OW28681   6.528   8.435   8.887 -0.4969 -0.4005  0.2630
 9368SOL    HW128682   6.517   8.400   8.975 -1.9925 -1.1368 -0.1891
 9368SOL    HW228683   6.576   8.368   8.840 -1.1346 -0.7460  0.0894
 9369SOL     OW28684   4.113   2.753   4.168 -0.2252 -0.0430  0.2101
 9369SOL    HW128685   4.189   2.726   4.117  0.0433 -1.0802  1.1232
 9369SOL    HW228686   4.080   2.831   4.123  0.7903 -0.1522 -0.7558
 9370SOL     OW28687   1.754   8.936   2.698  0.3419  0.5618 -0.0973
 9370SOL    HW128688   1.806   9.009   2.731 -1.0842  2.7263 -2.2765
 9370SOL    HW228689   1.789   8.918   2.611 -0.1184 -0.5497 -0.0706
 9371SOL     OW28690   5.800   6.983   5.326  0.2289  0.0292 -0.4583
 9371SOL    HW128691   5.711   7.000   5.295 -0.0383  1.2735  0.8646
 9371SOL    HW228692   5.798   6.893   5.358 -1.0189  0.5361  0.9998
 9372SOL     OW28693   0.600   3.945   5.485  0.0725  0.9615  0.0435
 9372SOL    HW128694   0.645   3.963   5.568  0.6929  0.7902 -0.2448
 9372SOL    HW228695   0.568   3.855   5.494 -1.2772  1.4840  0.7108
 9373SOL     OW28696   2.497   3.867   2.506  0.1869  0.6763  0.2561
 9373SOL    HW128697   2.573   3.844   2.560  0.1929  0.9873  0.3837
 9373SOL    HW228698   2.531   3.926   2.440 -0.1492  1.8085  1.0504
 9374SOL     OW28699   3.224   7.173   9.546 -0.1492 -0.9753  0.2054
 9374SOL    HW128700   3.289   7.237   9.575  0.5382 -2.2534  1.5573
 9374SOL    HW228701   3.257   7.140   9.463  0.0732 -0.4264  0.0708
 9375SOL     OW28702   4.023   7.572   0.728 -0.3462  0.4768 -0.4376
 9375SOL    HW128703   4.072   7.653   0.715 -0.4302  0.5866 -0.0709
 9375SOL    HW228704   4.064   7.510   0.667  1.1347  0.1871  0.7868
 9376SOL     OW28705   7.275   9.352   2.089  0.4051  0.0055 -0.6291
 9376SOL    HW128706   7.330   9.426   2.063  0.3261 -0.0016 -0.8185
 9376SOL    HW228707   7.257   9.366   2.182  1.4794 -0.4610 -0.3206
 9377SOL     OW28708   6.760   6.546   6.839  0.4615  1.0154  0.5102
 9377SOL    HW128709   6.680   6.567   6.790 -0.2481  1.7414  1.9217
 9377SOL    HW228710   6.730   6.496   6.914  1.5182  0.0439  0.3172
 9378SOL     OW28711   7.808   2.052   8.714 -0.4958  0.5683  0.2019
 9378SOL    HW128712   7.787   2.145   8.715 -0.7687  0.5851 -2.1017
 9378SOL    HW228713   7.771   2.020   8.632  0.8542 -1.2806  0.2567
 9379SOL     OW28714   1.127   1.026   9.336  0.2650  0.6751 -0.1040
 9379SOL    HW128715   1.063   1.061   9.399 -1.5438 -1.4635 -0.6298
 9379SOL    HW228716   1.075   1.009   9.258  1.2399 -2.0808 -0.2251
 9380SOL     OW28717   1.929   8.814   8.542 -0.8232  0.5470 -0.5457
 9380SOL    HW128718   1.954   8.904   8.562 -2.1652  0.3364  2.7400
 9380SOL    HW228719   1.838   8.821   8.513 -1.3942  0.1739  1.0908
 9381SOL     OW28720   8.436   9.982   4.538  0.5132 -0.1266 -0.2934
 9381SOL    HW128721   8.373   9.960   4.606  2.0542 -1.9073  0.6585
 9381SOL    HW228722   8.432   9.908   4.477  1.4940 -0.1644 -0.3298
 9382SOL     OW28723   8.366   5.570   1.528 -0.0043 -0.0167  0.1681
 9382SOL    HW128724   8.402   5.619   1.454  0.5903  0.3777  0.7057
 9382SOL    HW228725   8.303   5.510   1.489  0.1588  0.3262 -0.6361
 9383SOL     OW28726   6.716   8.741   2.396  0.2031 -0.3533  0.3648
 9383SOL    HW128727   6.774   8.694   2.337 -0.1585 -0.9828  0.5076
 9383SOL    HW228728   6.758   8.735   2.482 -0.3722 -1.3511  0.5906
 9384SOL     OW28729   8.869   9.570   4.486  0.5561 -0.6666  0.0736
 9384SOL    HW128730   8.916   9.653   4.473  0.5087 -0.6046  0.2957
 9384SOL    HW228731   8.907   9.511   4.421 -0.7061  0.0442 -1.3746
 9385SOL     OW28732   0.503   4.128   6.501 -0.0013 -0.3234 -0.1351
 9385SOL    HW128733   0.577   4.070   6.483 -0.0439 -0.0526 -1.2768
 9385SOL    HW228734   0.432   4.070   6.528 -0.1621 -0.8704 -1.6247
 9386SOL     OW28735   6.552   6.244   5.055 -0.1780  0.1567  0.3229
 9386SOL    HW128736   6.604   6.230   4.976 -1.0050  0.3411 -0.2695
 9386SOL    HW228737   6.557   6.161   5.102  0.2791  0.0238  0.0468
 9387SOL     OW28738   6.290   2.787   5.382 -0.8252  0.1193  0.0668
 9387SOL    HW128739   6.361   2.741   5.337 -0.0862  0.5295  0.7892
 9387SOL    HW228740   6.237   2.825   5.311 -0.6241 -0.6175 -0.4890
 9388SOL     OW28741   0.047   1.553   4.268 -0.4285  0.0072  0.1550
 9388SOL    HW128742   0.141   1.568   4.273 -0.4257  0.5554 -1.1050
 9388SOL    HW228743   0.015   1.566   4.357  0.3621  2.1199  0.1796
 9389SOL     OW28744   8.088   5.709   4.754  0.2334  0.2073  0.0193
 9389SOL    HW128745   8.108   5.760   4.833  1.7254 -0.9856  0.4473
 9389SOL    HW228746   7.992   5.704   4.753  0.0667  2.3087  0.3921
 9390SOL     OW28747   7.816   2.466   0.509 -0.5340 -0.3268 -0.1122
 9390SOL    HW128748   7.858   2.425   0.585  0.3836  0.1188 -0.3716
 9390SOL    HW228749   7.861   2.429   0.433  0.1522  0.9545 -0.3573
 9391SOL     OW28750   1.070   5.039   3.123  0.2586 -0.0188 -0.3641
 9391SOL    HW128751   1.003   4.991   3.075 -0.4146  1.7333 -1.2843
 9391SOL    HW228752   1.056   5.130   3.099  2.3898  0.5158  0.1560
 9392SOL     OW28753   7.236   3.182   4.212 -0.2734 -0.7257 -0.1545
 9392SOL    HW128754   7.330   3.194   4.200 -0.2715 -1.1888 -0.5859
 9392SOL    HW228755   7.201   3.271   4.217  0.2181 -0.5517  0.2668
 9393SOL     OW28756   5.825   3.555   8.956 -0.3355  0.4594  0.7008
 9393SOL    HW128757   5.763   3.613   9.001  1.6488  1.2289  2.6299
 9393SOL    HW228758   5.897   3.612   8.930 -0.8815 -0.1777 -2.6531
 9394SOL     OW28759   0.842   8.654   4.844 -0.2913 -0.3103  0.3481
 9394SOL    HW128760   0.758   8.613   4.867 -0.7058  0.8783  1.0724
 9394SOL    HW228761   0.830   8.746   4.867  1.3741 -0.1979  0.8698
 9395SOL     OW28762   8.796   5.213   5.419 -0.4379  0.4931 -0.2892
 9395SOL    HW128763   8.747   5.262   5.485  0.0214  0.8873 -0.2412
 9395SOL    HW228764   8.887   5.222   5.444 -0.2960  0.1945 -0.6774
 9396SOL     OW28765   6.874   2.226   0.303  0.1156 -0.4425 -0.4366
 9396SOL    HW128766   6.967   2.204   0.311  0.1932 -0.0042 -0.0667
 9396SOL    HW228767   6.861   2.241   0.209 -0.0769 -2.5596 -0.7953
 9397SOL     OW28768   4.160   1.766   1.648  0.6012 -0.2174 -0.0446
 9397SOL    HW128769   4.253   1.779   1.625  0.5322  0.3652  0.0079
 9397SOL    HW228770   4.125   1.715   1.574  1.3955 -2.0883  0.8099
 9398SOL     OW28771   2.043   1.629   6.436  0.0970  0.5221  0.0406
 9398SOL    HW128772   2.098   1.638   6.359  1.9008 -1.1536  1.0569
 9398SOL    HW228773   2.052   1.713   6.482  0.0160  1.0634 -0.9241
 9399SOL     OW28774   6.814   2.275   4.512  0.2856  0.0141  0.4005
 9399SOL    HW128775   6.826   2.212   4.441 -1.1693 -0.6185  0.6669
 9399SOL    HW228776   6.756   2.342   4.475 -1.4219 -0.9192  1.2904
 9400SOL     OW28777   3.623   8.770   9.664 -0.4266 -0.1188  0.0662
 9400SOL    HW128778   3.609   8.819   9.745 -0.8317  0.8001 -0.5365
 9400SOL    HW228779   3.539   8.775   9.619  0.0400  0.1270 -0.8015
 9401SOL     OW28780   6.968   1.015   3.467 -0.2864 -0.2711 -0.2666
 9401SOL    HW128781   7.036   0.950   3.448 -0.7281 -1.3129  1.4953
 9401SOL    HW228782   7.012   1.080   3.522 -0.5069 -0.5189  0.2066
 9402SOL     OW28783   0.461   5.234   6.008  0.5479  0.0786 -0.0932
 9402SOL    HW128784   0.471   5.327   5.987  0.2560 -0.1099 -1.1648
 9402SOL    HW228785   0.538   5.212   6.061  2.6218  0.1279 -2.8392
 9403SOL     OW28786   4.653   9.607   9.616 -0.3497  0.1203  0.2931
 9403SOL    HW128787   4.651   9.636   9.707 -0.2226  0.8361  0.0764
 9403SOL    HW228788   4.737   9.562   9.607  0.7673  2.1533 -0.0683
 9404SOL     OW28789   0.402   8.018   5.960  0.0196  0.0063  0.0437
 9404SOL    HW128790   0.432   8.097   6.006  0.1303  1.2056 -1.9462
 9404SOL    HW228791   0.464   8.007   5.888 -1.8200  0.0413 -1.6459
 9405SOL     OW28792   9.861   6.361   0.791  0.0607 -0.1550  0.1428
 9405SOL    HW128793   9.948   6.396   0.806  0.4020 -0.5409 -0.8320
 9405SOL    HW228794   9.871   6.266   0.795 -0.8230 -0.2087  2.5824
 9406SOL     OW28795   5.907   2.104   7.628 -0.0671 -0.3683  0.4000
 9406SOL    HW128796   5.860   2.125   7.548 -2.6705  0.5077  2.0224
 9406SOL    HW228797   5.939   2.189   7.659 -2.4278  0.0129  2.1339
 9407SOL     OW28798   4.078   5.217   9.345 -0.3517 -0.2712  0.2674
 9407SOL    HW128799   4.129   5.194   9.267  0.3318 -0.4461  0.7569
 9407SOL    HW228800   3.989   5.228   9.312  0.1304  0.8803 -0.7506
 9408SOL     OW28801   3.260   8.017   0.867  0.0362 -0.6560 -0.5418
 9408SOL    HW128802   3.303   8.071   0.800  0.6293  0.0257  0.3705
 9408SOL    HW228803   3.330   7.962   0.902 -0.4768 -1.7321 -1.1563
 9409SOL     OW28804   6.636   0.665   8.405  0.5944 -0.0213 -0.1611
 9409SOL    HW128805   6.542   0.682   8.403  0.8255  1.3556 -0.6571
 9409SOL    HW228806   6.646   0.580   8.361 -0.3236  0.3435 -1.1229
 9410SOL     OW28807   1.198   6.475   6.973  0.1282 -0.0460 -0.3376
 9410SOL    HW128808   1.105   6.464   6.993 -0.1443  1.1671 -0.8564
 9410SOL    HW228809   1.210   6.425   6.892 -0.0300 -0.3493 -0.1768
 9411SOL     OW28810   2.930   1.758   4.871  0.0144 -0.5580 -0.4453
 9411SOL    HW128811   2.960   1.797   4.790 -0.9699  0.5383 -0.3061
 9411SOL    HW228812   2.918   1.832   4.931 -0.4723 -1.2155  0.2941
 9412SOL     OW28813   0.047   3.795   1.689 -0.2025 -0.1527  0.1962
 9412SOL    HW128814   0.045   3.703   1.715 -1.7456  0.0543  0.9473
 9412SOL    HW228815  -0.045   3.820   1.684 -0.0763  0.1495 -4.5361
 9413SOL     OW28816   4.214   2.789   7.681  0.5491  0.0300  0.4859
 9413SOL    HW128817   4.246   2.800   7.771 -1.7239  1.7236  1.1634
 9413SOL    HW228818   4.235   2.871   7.637 -0.5376  0.1635  0.1988
 9414SOL     OW28819   9.936   4.493   8.176 -0.1717  1.0161  0.0134
 9414SOL    HW128820  10.020   4.537   8.163  0.4618 -0.3489 -0.7706
 9414SOL    HW228821   9.871   4.563   8.173  0.9687  2.1702  1.1848
 9415SOL     OW28822   5.578   8.394   5.040 -0.9525 -0.3302 -0.0008
 9415SOL    HW128823   5.523   8.352   5.106 -1.7379 -0.8622 -0.9571
 9415SOL    HW228824   5.542   8.363   4.956 -0.4144  0.8608 -0.6925
 9416SOL     OW28825   6.714   5.679   8.776 -0.1655 -0.1688  0.0547
 9416SOL    HW128826   6.664   5.604   8.808  0.2540  0.8811  3.6211
 9416SOL    HW228827   6.657   5.721   8.712 -1.4648 -2.1032 -0.1183
 9417SOL     OW28828   5.410   9.453   1.236  0.0209 -0.3094  0.2066
 9417SOL    HW128829   5.357   9.384   1.197  0.6301 -0.7627  0.1662
 9417SOL    HW228830   5.393   9.446   1.330 -0.9966  0.4061  0.0918
 9418SOL     OW28831   8.201   3.348   4.676 -0.2591  0.1100  0.2895
 9418SOL    HW128832   8.184   3.437   4.644 -0.6179  0.5903  1.7301
 9418SOL    HW228833   8.288   3.353   4.715  1.4428 -1.1833 -2.9295
 9419SOL     OW28834   4.358   9.806   8.289  0.0994 -0.1823  0.0996
 9419SOL    HW128835   4.327   9.784   8.377 -1.7043 -0.3400 -0.5401
 9419SOL    HW228836   4.401   9.726   8.258  1.3257  0.0727  1.0366
 9420SOL     OW28837   3.309   2.059   2.387  0.7257  0.2828  0.7356
 9420SOL    HW128838   3.397   2.052   2.350  0.1358 -1.0228 -0.4737
 9420SOL    HW228839   3.268   2.130   2.338  1.0731  0.9027  1.3101
 9421SOL     OW28840   4.987   3.366   6.072  0.2324 -0.4124 -0.4024
 9421SOL    HW128841   4.934   3.287   6.063 -1.2365  0.3545  0.9137
 9421SOL    HW228842   4.937   3.434   6.028 -0.2159  0.4378  1.3160
 9422SOL     OW28843   6.792   5.195   9.422 -0.2281 -0.7318 -0.0600
 9422SOL    HW128844   6.800   5.289   9.441 -0.8251 -0.8637  0.8808
 9422SOL    HW228845   6.735   5.161   9.491 -0.2066 -1.7490 -0.5294
 9423SOL     OW28846   4.285   6.645   6.091  0.1976  0.1603  0.4173
 9423SOL    HW128847   4.217   6.610   6.033 -0.2615 -1.0099  1.6149
 9423SOL    HW228848   4.240   6.661   6.174  0.9209  1.4625  0.5779
 9424SOL     OW28849   6.006   7.780   3.267 -0.0571 -0.2415 -0.0579
 9424SOL    HW128850   6.085   7.819   3.305 -0.0235 -0.4858  0.1208
 9424SOL    HW228851   6.021   7.686   3.272 -1.6856 -0.4684  2.9595
 9425SOL     OW28852   9.914   7.078   5.090  0.1869  0.2678 -0.9267
 9425SOL    HW128853   9.895   7.092   5.183 -1.6218 -1.4704 -0.9620
 9425SOL    HW228854   9.944   6.987   5.085 -0.9590 -0.0779 -2.1606
 9426SOL     OW28855   8.522   4.337   5.776 -0.2002  0.2898 -0.0832
 9426SOL    HW128856   8.546   4.383   5.856  3.1239 -0.4551 -0.5128
 9426SOL    HW228857   8.527   4.244   5.799  0.7474  0.0662 -1.0788
 9427SOL     OW28858   9.446   9.965   4.083  0.2282  0.3473  0.0216
 9427SOL    HW128859   9.389   9.982   4.158  2.2207  0.4515  1.6052
 9427SOL    HW228860   9.388   9.928   4.016 -1.9537  1.8921  0.9458
 9428SOL     OW28861   9.106   2.409   7.521  0.5957 -0.1535 -0.1555
 9428SOL    HW128862   9.137   2.482   7.575 -0.5834  0.0985  0.2144
 9428SOL    HW228863   9.032   2.373   7.569 -1.0978  0.6580 -1.9705
 9429SOL     OW28864   5.843   0.962   5.643 -0.8431  0.1583 -0.6088
 9429SOL    HW128865   5.839   0.944   5.737 -0.3373 -1.0462 -0.7952
 9429SOL    HW228866   5.905   1.034   5.635 -2.4906  1.7438  0.1338
 9430SOL     OW28867   8.089   5.542   3.564  0.1720 -0.0460 -0.2499
 9430SOL    HW128868   8.119   5.600   3.634 -0.0447 -0.7509  0.4498
 9430SOL    HW228869   8.137   5.460   3.580 -1.4674 -0.9208  0.3744
 9431SOL     OW28870   7.579   8.148   3.407 -0.1150  1.0224  0.1677
 9431SOL    HW128871   7.565   8.136   3.313  4.7540 -0.2806 -0.6893
 9431SOL    HW228872   7.579   8.059   3.442 -1.4674  1.4725  1.3918
 9432SOL     OW28873   9.959   4.344   6.658  0.3768 -0.2129 -0.6623
 9432SOL    HW128874   9.958   4.310   6.748 -1.9425  1.7838  0.1617
 9432SOL    HW228875   9.992   4.433   6.666  0.4161 -0.1085 -1.8420
 9433SOL     OW28876   6.309   5.913   3.773 -0.6520 -0.0389  0.7283
 9433SOL    HW128877   6.250   5.948   3.706  0.6820 -1.1741 -1.1115
 9433SOL    HW228878   6.380   5.976   3.778  0.1184 -0.7980 -0.2302
 9434SOL     OW28879   2.940   4.606   9.344 -0.4764 -0.0585  0.1858
 9434SOL    HW128880   2.909   4.675   9.403  0.1614  0.5790 -0.2032
 9434SOL    HW228881   2.894   4.623   9.261 -2.6735 -1.9663  0.9231
 9435SOL     OW28882   8.456   8.594   7.212  0.2806 -0.0513  0.1108
 9435SOL    HW128883   8.546   8.566   7.198  0.6721  0.8414  0.7065
 9435SOL    HW228884   8.445   8.670   7.155  0.9080  1.7178  2.2118
 9436SOL     OW28885   7.905   5.176   3.672  0.1414 -0.1488  0.2581
 9436SOL    HW128886   7.866   5.094   3.700 -1.9316  0.0864 -1.7018
 9436SOL    HW228887   7.997   5.154   3.654  0.4100 -1.2825  2.6101
 9437SOL     OW28888   3.697   0.661   6.055  0.1045 -0.2388 -0.6410
 9437SOL    HW128889   3.652   0.578   6.074 -1.7080  1.2623  2.2238
 9437SOL    HW228890   3.752   0.676   6.131 -0.7054  1.8570 -0.4105
 9438SOL     OW28891   8.445   6.337   7.442  0.1343  0.0681  0.0833
 9438SOL    HW128892   8.437   6.353   7.536 -1.5376  1.4306 -0.2514
 9438SOL    HW228893   8.526   6.383   7.417  0.1998  0.3169  0.7203
 9439SOL     OW28894   2.042   2.957   1.377  0.0206  0.0749 -0.0790
 9439SOL    HW128895   1.993   3.018   1.432 -0.4643 -0.2299 -0.1619
 9439SOL    HW228896   2.101   2.912   1.437 -0.8564 -0.6090  0.2902
 9440SOL     OW28897   2.890   6.894   5.129 -0.7287 -0.2219 -0.0641
 9440SOL    HW128898   2.798   6.917   5.143 -1.2776 -1.9286 -0.5611
 9440SOL    HW228899   2.934   6.921   5.210 -1.8785 -0.3853  0.6481
 9441SOL     OW28900   2.330   2.655   1.185 -0.1040  0.6581 -0.7511
 9441SOL    HW128901   2.261   2.633   1.248  0.1929  1.1925 -0.2275
 9441SOL    HW228902   2.336   2.750   1.189  0.6028  0.6205 -0.8567
 9442SOL     OW28903   2.569   0.590   1.165  1.0258  0.5277  0.1971
 9442SOL    HW128904   2.554   0.666   1.221 -2.6721 -0.2135  0.4589
 9442SOL    HW228905   2.613   0.626   1.088  3.0337  2.1509  1.9845
 9443SOL     OW28906   8.489   9.471   5.976  0.3285 -0.5762 -0.6463
 9443SOL    HW128907   8.563   9.431   5.932  1.4346 -0.2922  0.8848
 9443SOL    HW228908   8.472   9.414   6.051  0.8594  0.8727  0.6172
 9444SOL     OW28909   7.244   1.506   2.028 -0.0611  0.2610 -0.3320
 9444SOL    HW128910   7.300   1.572   2.068 -0.0930 -0.1273  0.3662
 9444SOL    HW228911   7.158   1.549   2.019 -0.4562 -0.1030  1.3773
 9445SOL     OW28912   6.047   6.645   3.906  0.0539  0.0438  0.1943
 9445SOL    HW128913   6.056   6.614   3.996 -0.7146 -0.6652  0.0472
 9445SOL    HW228914   6.041   6.565   3.854  0.6735  0.4442 -0.5144
 9446SOL     OW28915   0.685   7.125   3.049 -0.7826 -0.1808  0.0493
 9446SOL    HW128916   0.681   7.032   3.074  0.9983 -0.6051 -1.0766
 9446SOL    HW228917   0.599   7.143   3.011 -2.0196 -0.6765  2.4156
 9447SOL     OW28918   1.886   1.425   9.515  0.1827  0.6176 -0.3098
 9447SOL    HW128919   1.831   1.502   9.498 -0.8336 -0.3402 -1.5934
 9447SOL    HW228920   1.917   1.398   9.429  1.6521  0.3754  0.2694
 9448SOL     OW28921   1.709   7.034   1.603 -0.0616 -0.1273 -0.3462
 9448SOL    HW128922   1.620   7.001   1.589 -0.3617 -0.6230  2.3435
 9448SOL    HW228923   1.765   6.957   1.597 -0.2973 -0.5110  1.8212
 9449SOL     OW28924   2.088   3.084   7.241  0.6614  0.7672  0.1935
 9449SOL    HW128925   2.182   3.101   7.241  1.1314 -1.3838  1.5630
 9449SOL    HW228926   2.076   3.012   7.181  0.1215  0.0883  1.0868
 9450SOL     OW28927   1.220   7.613   8.730 -0.0436 -0.3149  0.0728
 9450SOL    HW128928   1.315   7.616   8.731  0.1032 -2.4622  2.2622
 9450SOL    HW228929   1.195   7.632   8.821 -1.3950 -3.6256  0.5405
 9451SOL     OW28930   8.187   2.211   9.288 -0.0535 -0.0924 -0.1249
 9451SOL    HW128931   8.195   2.224   9.193  0.7456  2.1454  0.1908
 9451SOL    HW228932   8.160   2.296   9.322 -1.1067 -1.0598  1.6103
 9452SOL     OW28933   0.669   0.790   3.826  0.0862 -0.3164  0.4216
 9452SOL    HW128934   0.670   0.779   3.731  0.7630 -0.8228  0.4796
 9452SOL    HW228935   0.760   0.809   3.848 -0.1149  0.0571  0.9427
 9453SOL     OW28936   1.625   8.923   8.874  0.7418 -0.3140  0.3852
 9453SOL    HW128937   1.625   8.898   8.782 -0.3817  1.6341 -0.1943
 9453SOL    HW228938   1.608   9.017   8.874  2.3796  0.0750  2.5134
 9454SOL     OW28939   2.161   3.432   7.875 -0.4010  0.3803  0.0738
 9454SOL    HW128940   2.158   3.482   7.957  1.8862  0.0257  0.4584
 9454SOL    HW228941   2.160   3.498   7.806  0.7944  0.9082  0.5245
 9455SOL     OW28942   5.326   7.708   5.130  0.5666  0.2231 -0.0129
 9455SOL    HW128943   5.247   7.670   5.169  1.6488 -1.1680  0.8863
 9455SOL    HW228944   5.296   7.791   5.092 -1.8684 -1.3593 -1.8774
 9456SOL     OW28945   6.580   3.515   6.115  0.2359 -0.3494 -0.0988
 9456SOL    HW128946   6.652   3.454   6.123  0.0353 -0.3483  2.2305
 9456SOL    HW228947   6.622   3.601   6.109  0.4422 -0.4167  0.3872
 9457SOL     OW28948   1.467   3.679   3.051  0.5250  0.1311  0.0261
 9457SOL    HW128949   1.419   3.597   3.046 -1.5475  1.3178 -2.5828
 9457SOL    HW228950   1.408   3.738   3.099  1.8510  0.2245  1.6108
 9458SOL     OW28951   3.034   6.965   9.194  0.4635 -1.0711  0.1260
 9458SOL    HW128952   3.016   6.871   9.205 -0.3639 -0.9821 -0.4066
 9458SOL    HW228953   2.950   7.008   9.207  0.7337 -0.4434 -0.1417
 9459SOL     OW28954   2.499   1.925   1.622  0.1538  0.5946  0.6408
 9459SOL    HW128955   2.408   1.956   1.625  0.5282  1.8155 -0.0053
 9459SOL    HW228956   2.515   1.906   1.530  0.3932 -0.1539  0.8315
 9460SOL     OW28957   6.020   1.493   9.827  0.1204  0.8688 -0.0128
 9460SOL    HW128958   5.972   1.572   9.853  1.3519  1.3778  0.8197
 9460SOL    HW228959   6.109   1.524   9.809  0.9851 -0.4755  1.5790
 9461SOL     OW28960   0.148   1.924   9.840 -0.6847 -0.4789  0.2095
 9461SOL    HW128961   0.055   1.928   9.818 -0.4000 -0.5944 -1.1042
 9461SOL    HW228962   0.190   1.896   9.759  0.6507  0.9879  0.3517
 9462SOL     OW28963   8.739   6.072   1.438  0.5790  0.1169 -0.1055
 9462SOL    HW128964   8.697   6.148   1.479  0.5243 -0.0753  0.1984
 9462SOL    HW228965   8.832   6.094   1.437  0.5576  0.2139 -0.0738
 9463SOL     OW28966   2.075   8.911   3.222 -0.0836 -0.5670 -0.1488
 9463SOL    HW128967   1.987   8.938   3.197  0.6327  0.8705 -1.2794
 9463SOL    HW228968   2.092   8.959   3.303  0.6483  1.3845 -1.3953
 9464SOL     OW28969   5.235   9.298   4.577 -0.4745 -0.3701 -0.0238
 9464SOL    HW128970   5.274   9.385   4.569  0.9542 -0.8952  0.8874
 9464SOL    HW228971   5.145   9.309   4.548  0.2746  0.9406 -2.1045
 9465SOL     OW28972   9.240   7.251   3.316  0.2618  0.1766  0.2835
 9465SOL    HW128973   9.290   7.330   3.293  2.8653 -0.4782  3.0475
 9465SOL    HW228974   9.196   7.273   3.398  0.8280 -1.1245  0.9672
 9466SOL     OW28975   5.834   0.148   4.191  0.9275 -0.0240 -0.2062
 9466SOL    HW128976   5.811   0.062   4.155  0.3906 -0.6151  1.4302
 9466SOL    HW228977   5.793   0.149   4.278  1.7114  1.5211  0.1844
 9467SOL     OW28978   0.747   5.982   4.466  0.0484 -0.1636 -0.0714
 9467SOL    HW128979   0.761   5.890   4.445 -1.1496 -0.2864 -0.4054
 9467SOL    HW228980   0.805   5.999   4.540  1.6835 -0.6756 -1.1866
 9468SOL     OW28981   0.867   9.424   1.834 -0.0800  0.2842  0.5284
 9468SOL    HW128982   0.774   9.403   1.826 -0.1558  1.0946 -1.1175
 9468SOL    HW228983   0.874   9.514   1.804  1.0966  0.6033  1.6781
 9469SOL     OW28984   9.324   3.984   7.756  0.2755 -0.5628  0.5643
 9469SOL    HW128985   9.239   4.005   7.793 -0.5588 -0.1985 -1.4761
 9469SOL    HW228986   9.326   3.888   7.753  0.1693 -0.5846  1.0778
 9470SOL     OW28987   0.651   3.387   1.201  0.3098 -0.3443  0.5472
 9470SOL    HW128988   0.579   3.415   1.258 -0.6419  0.7575 -1.1104
 9470SOL    HW228989   0.664   3.295   1.222 -1.4524 -0.5194  1.0323
 9471SOL     OW28990   1.884   4.075   4.557 -0.1573  0.2684  0.0466
 9471SOL    HW128991   1.902   4.159   4.515 -0.4734  0.1810 -0.2735
 9471SOL    HW228992   1.955   4.063   4.619 -1.2123  1.7692  1.6208
 9472SOL     OW28993   1.991   6.412   3.174  0.2562 -0.4810 -0.2778
 9472SOL    HW128994   1.984   6.450   3.087 -1.5455  0.7823  0.3488
 9472SOL    HW228995   1.985   6.486   3.234  2.3900 -1.2173  0.9602
 9473SOL     OW28996   3.483   1.069   1.696 -0.3002  0.1576 -0.2632
 9473SOL    HW128997   3.547   1.052   1.627  1.9257 -1.2013  1.9598
 9473SOL    HW228998   3.536   1.084   1.775 -2.7045 -1.3838  1.7928
 9474SOL     OW28999   2.152   2.207   3.152  0.6007 -0.0339 -0.4288
 9474SOL    HW129000   2.191   2.140   3.208  0.5219  0.1101 -0.2000
 9474SOL    HW229001   2.188   2.189   3.065  0.0593 -0.7937 -0.5087
 9475SOL     OW29002   5.281   8.424   4.427 -0.0926  0.7485  0.2743
 9475SOL    HW129003   5.312   8.445   4.338  0.0902 -1.4723 -0.2363
 9475SOL    HW229004   5.298   8.331   4.437 -2.0695  0.4994  1.8715
 9476SOL     OW29005   8.014   9.606   5.850  0.0952 -0.2137  0.2971
 9476SOL    HW129006   8.068   9.545   5.800 -0.6349 -1.0171  0.4470
 9476SOL    HW229007   7.944   9.632   5.789  1.2022  1.6396 -0.2338
 9477SOL     OW29008   6.151   8.014   3.807 -0.4185  0.0069 -0.0182
 9477SOL    HW129009   6.210   7.941   3.787 -0.9164 -0.1502 -0.9328
 9477SOL    HW229010   6.208   8.091   3.807 -0.0754 -0.2433 -0.1003
 9478SOL     OW29011   7.633   3.422   6.253  0.0632 -0.1735 -0.4253
 9478SOL    HW129012   7.555   3.476   6.242 -0.6190 -0.7300  1.3009
 9478SOL    HW229013   7.666   3.408   6.164 -1.6899  0.2171 -1.1679
 9479SOL     OW29014   1.440   4.242   5.884 -0.4434  0.1274 -0.5465
 9479SOL    HW129015   1.425   4.249   5.978  1.5708 -0.4545 -0.1215
 9479SOL    HW229016   1.416   4.328   5.849 -0.1717  0.7219  0.6749
 9480SOL     OW29017   4.086   8.879   0.699  0.0252 -0.2359 -0.1410
 9480SOL    HW129018   4.131   8.875   0.783  1.3606 -1.6427 -0.8825
 9480SOL    HW229019   4.103   8.794   0.659 -2.9731 -0.7165 -0.6552
 9481SOL     OW29020   2.106   9.988   8.497 -0.1164 -0.5957 -0.8465
 9481SOL    HW129021   2.173   9.960   8.435 -0.3695 -0.7083 -1.0698
 9481SOL    HW229022   2.101   9.917   8.561 -0.5649 -0.9419 -1.2600
 9482SOL     OW29023   8.275   0.416   7.639 -0.3131 -0.0019  0.4113
 9482SOL    HW129024   8.240   0.424   7.550  0.3021 -0.4605  0.1146
 9482SOL    HW229025   8.307   0.326   7.643 -0.1908  0.0680  1.0460
 9483SOL     OW29026   8.944   5.215   4.021  0.0660 -0.1492 -0.0175
 9483SOL    HW129027   8.983   5.235   3.936  1.6515  0.1064  0.7408
 9483SOL    HW229028   8.996   5.265   4.084 -1.8189  0.6366  1.0283
 9484SOL     OW29029   3.110   3.037   0.657 -0.8813 -0.5386 -0.5856
 9484SOL    HW129030   3.137   2.955   0.615 -0.5179 -0.5254 -0.3841
 9484SOL    HW229031   3.106   3.100   0.585  0.3760 -0.3584 -0.5295
 9485SOL     OW29032   7.087   2.769   2.415 -0.6102  0.1995 -0.0489
 9485SOL    HW129033   7.084   2.687   2.464 -1.5617  1.2636  1.7744
 9485SOL    HW229034   7.179   2.795   2.415 -0.2360 -1.0164 -0.9787
 9486SOL     OW29035   3.224   4.673   4.185 -0.3032  0.7787  0.1357
 9486SOL    HW129036   3.139   4.630   4.174  0.5077 -1.5935  2.3004
 9486SOL    HW229037   3.202   4.759   4.222 -1.7966  0.4361  0.1088
 9487SOL     OW29038   1.451   1.418   3.808  0.1798  0.0183 -0.3780
 9487SOL    HW129039   1.367   1.455   3.833  0.2482 -0.1630  0.1241
 9487SOL    HW229040   1.504   1.493   3.783  0.5361  0.3459  1.2666
 9488SOL     OW29041   3.174   0.337   4.122 -0.1781 -0.5468  0.4592
 9488SOL    HW129042   3.189   0.245   4.101 -0.2073 -0.3155 -0.6376
 9488SOL    HW229043   3.251   0.362   4.173  1.2679 -0.4645 -1.6219
 9489SOL     OW29044   8.657   9.168   9.345 -0.0070 -0.5617 -0.7502
 9489SOL    HW129045   8.712   9.107   9.394  0.4731 -0.0420 -0.6310
 9489SOL    HW229046   8.662   9.138   9.254  0.3657 -0.5946 -0.7180
 9490SOL     OW29047   2.788   8.010   1.206  0.2227  0.3647  0.2424
 9490SOL    HW129048   2.717   7.959   1.168 -1.2479  2.0958  0.5189
 9490SOL    HW229049   2.863   7.950   1.207 -1.6091 -2.0934  1.4235
 9491SOL     OW29050   6.198   2.101   6.246  0.3605 -0.4733 -0.2732
 9491SOL    HW129051   6.271   2.051   6.210  1.4746  1.8167 -1.4000
 9491SOL    HW229052   6.236   2.185   6.272 -2.1021  1.6422 -2.7679
 9492SOL     OW29053   2.143   9.722   9.982  0.1468  0.0867 -0.0349
 9492SOL    HW129054   2.053   9.719  10.015 -0.3555  0.6474 -1.2579
 9492SOL    HW229055   2.144   9.659   9.909  0.4763  0.7367 -0.6100
 9493SOL     OW29056   5.368   3.066   5.955  0.1350  0.0350  0.2049
 9493SOL    HW129057   5.375   3.161   5.966 -0.4406  0.2433 -0.9790
 9493SOL    HW229058   5.312   3.055   5.878  0.4479 -1.2659  0.1296
 9494SOL     OW29059   1.691   6.404   1.339  0.2842 -0.2753 -0.4952
 9494SOL    HW129060   1.629   6.435   1.406  0.4851 -0.5583 -0.1747
 9494SOL    HW229061   1.777   6.435   1.370  0.6096 -1.8277  0.2680
 9495SOL     OW29062   1.307   7.291   0.875 -0.1270 -0.0662  0.5013
 9495SOL    HW129063   1.285   7.286   0.968  0.1062 -1.5990  0.5070
 9495SOL    HW229064   1.397   7.257   0.870  0.8735  2.4665  0.0076
 9496SOL     OW29065   7.575   1.146   5.298 -0.2240  0.3338  0.6716
 9496SOL    HW129066   7.510   1.162   5.366  0.4298  0.4760  1.2795
 9496SOL    HW229067   7.657   1.131   5.346  0.0646 -0.4768 -0.0465
 9497SOL     OW29068   1.104   3.295   9.162 -0.2522 -0.3725  0.8317
 9497SOL    HW129069   1.038   3.263   9.100  0.5222  1.4442 -1.0581
 9497SOL    HW229070   1.187   3.269   9.123  0.2454  0.5775  1.2275
 9498SOL     OW29071   2.375   7.798   5.842  0.7430 -0.4103  0.1079
 9498SOL    HW129072   2.338   7.814   5.928  0.6860  0.4799 -0.0773
 9498SOL    HW229073   2.410   7.882   5.814  1.9815 -0.9796 -0.1723
 9499SOL     OW29074   0.753   2.038   8.703 -0.3060 -0.1614 -0.4473
 9499SOL    HW129075   0.699   1.960   8.718  1.1812 -1.9483 -3.4617
 9499SOL    HW229076   0.721   2.074   8.620  2.2829 -0.6213 -1.7424
 9500SOL     OW29077   4.396   2.381   8.047  0.0677 -0.3076 -0.4680
 9500SOL    HW129078   4.478   2.430   8.053  0.0455 -0.3487  0.3154
 9500SOL    HW229079   4.329   2.442   8.076  0.1185 -0.9703  1.1392
 9501SOL     OW29080   5.290   9.096   2.817 -0.5303  0.1561 -0.0275
 9501SOL    HW129081   5.296   9.127   2.726  1.0950  0.2641  0.0908
 9501SOL    HW229082   5.347   9.020   2.820 -1.5850 -0.6373  0.6170
 9502SOL     OW29083   8.146   3.431   9.206 -0.1311 -0.8385 -0.3543
 9502SOL    HW129084   8.176   3.442   9.296 -0.7125  0.4732 -0.2998
 9502SOL    HW229085   8.152   3.519   9.168 -0.7988 -1.1925 -1.3077
 9503SOL     OW29086   6.655   4.774   8.283 -0.3475  0.5687 -0.2526
 9503SOL    HW129087   6.704   4.734   8.212  2.1439 -1.9273  2.5957
 9503SOL    HW229088   6.703   4.855   8.303  0.3502  0.0731  0.0846
 9504SOL     OW29089   9.499   9.927   1.309  0.1474 -0.1290  0.6374
 9504SOL    HW129090   9.437   9.897   1.243  2.4181 -0.2337 -1.6289
 9504SOL    HW229091   9.585   9.907   1.271  1.6147  1.9752  2.6010
 9505SOL     OW29092   3.440   7.616   9.548 -0.4155 -0.3840  0.6703
 9505SOL    HW129093   3.444   7.522   9.533  1.1657 -0.2161 -0.1794
 9505SOL    HW229094   3.508   7.633   9.614 -0.2907  0.2212  0.3984
 9506SOL     OW29095   4.110   9.162   0.679 -0.1407  0.4908  0.1346
 9506SOL    HW129096   4.185   9.188   0.626  0.2523 -1.6964 -0.4552
 9506SOL    HW229097   4.107   9.067   0.672 -1.0285  0.2454  2.7767
 9507SOL     OW29098   1.615   2.585   4.937 -0.5671 -0.2703  0.6717
 9507SOL    HW129099   1.523   2.609   4.952 -0.5945 -0.6703  1.1543
 9507SOL    HW229100   1.612   2.519   4.868 -0.5706  0.3125  0.0949
 9508SOL     OW29101   9.493   1.189   7.692  0.0545 -0.3007  0.2502
 9508SOL    HW129102   9.537   1.109   7.722 -0.0325 -0.5583 -0.2914
 9508SOL    HW229103   9.550   1.223   7.624  0.2398  0.2690  0.6857
 9509SOL     OW29104   0.687   6.857   6.299 -0.4087  0.2402  0.4783
 9509SOL    HW129105   0.656   6.937   6.257  1.2703  0.5913 -0.1691
 9509SOL    HW229106   0.622   6.791   6.276 -1.5721  1.2960  0.6272
 9510SOL     OW29107   2.596   8.027   4.463  0.1514 -0.3013  0.0618
 9510SOL    HW129108   2.501   8.024   4.452  0.2117  0.4422 -0.8262
 9510SOL    HW229109   2.627   8.081   4.390  1.2440 -0.3992  0.4285
 9511SOL     OW29110   1.172   4.474   0.995  0.2967 -0.2595 -0.3763
 9511SOL    HW129111   1.192   4.567   0.984 -1.0298  0.3845  2.0367
 9511SOL    HW229112   1.150   4.443   0.907  0.1356  1.8533 -1.1208
 9512SOL     OW29113   4.364   9.621   5.875 -0.2432 -0.2174 -0.3874
 9512SOL    HW129114   4.399   9.640   5.962 -0.5592 -0.0845 -0.2880
 9512SOL    HW229115   4.441   9.615   5.819 -0.1441  2.0015 -0.5640
 9513SOL     OW29116   6.114   3.291   6.673 -0.0979  0.2857 -0.0318
 9513SOL    HW129117   6.148   3.367   6.720 -1.8144  0.3007  1.3107
 9513SOL    HW229118   6.113   3.220   6.738 -0.0259 -0.4471 -0.8079
 9514SOL     OW29119   7.360   3.988   5.048  0.4807  0.1224 -0.5177
 9514SOL    HW129120   7.319   4.024   5.127 -1.3320  0.0127 -1.3588
 9514SOL    HW229121   7.449   4.024   5.049  0.2138  0.8410  1.0962
 9515SOL     OW29122   3.631   8.109   9.078 -0.2758 -0.2234 -0.1595
 9515SOL    HW129123   3.684   8.168   9.026 -1.5900  2.9170  1.7729
 9515SOL    HW229124   3.675   8.105   9.163 -1.9332  0.7650  0.7979
 9516SOL     OW29125   2.042   3.093   6.798 -0.3210  0.0167 -0.4162
 9516SOL    HW129126   1.964   3.122   6.752 -0.5866 -0.0780 -0.0334
 9516SOL    HW229127   2.088   3.174   6.821 -1.4823  0.2383  1.3856
 9517SOL     OW29128   1.004   1.155   4.956  0.7840 -0.6935 -0.1558
 9517SOL    HW129129   0.970   1.238   4.923  1.8566 -0.4726 -0.7183
 9517SOL    HW229130   1.099   1.164   4.952  0.9856 -0.8517  2.5080
 9518SOL     OW29131   2.596   0.752   2.271 -0.0415 -0.2073  0.5782
 9518SOL    HW129132   2.660   0.728   2.339  1.1096  0.8064 -0.1032
 9518SOL    HW229133   2.569   0.841   2.294 -1.3912 -0.7002  0.9707
 9519SOL     OW29134   4.919   6.662   4.830 -0.1960 -0.4188 -0.0717
 9519SOL    HW129135   4.944   6.569   4.829  0.9853 -0.2495  2.8380
 9519SOL    HW229136   4.828   6.663   4.857 -0.4161 -0.7345 -0.7863
 9520SOL     OW29137   0.721   0.750   2.453 -0.3210  0.1168  1.2457
 9520SOL    HW129138   0.806   0.760   2.495 -0.5102 -0.0749  1.6760
 9520SOL    HW229139   0.725   0.664   2.412 -0.1095  0.3340  0.7981
 9521SOL     OW29140   1.669   2.872   1.455  0.2520  0.4669  0.1585
 9521SOL    HW129141   1.608   2.884   1.528 -0.4488  0.0531 -0.3452
 9521SOL    HW229142   1.732   2.807   1.487  0.0860  0.4602  0.4724
 9522SOL     OW29143   7.795   4.100   3.958  0.0953  0.3728  0.2556
 9522SOL    HW129144   7.772   4.080   4.049 -0.4290 -1.2862 -0.1990
 9522SOL    HW229145   7.804   4.014   3.917  1.9960  1.0497 -0.8634
 9523SOL     OW29146   4.267   7.941   3.283  0.1793 -0.5265 -0.3360
 9523SOL    HW129147   4.299   7.854   3.305  0.3284 -0.5460 -0.6314
 9523SOL    HW229148   4.276   7.991   3.364 -0.4376 -0.9401 -0.0071
 9524SOL     OW29149   2.878   4.134   3.854  0.0131 -0.6857 -0.4771
 9524SOL    HW129150   2.968   4.122   3.885 -0.0234 -1.3441 -0.6214
 9524SOL    HW229151   2.829   4.158   3.932 -0.1620 -2.7448  0.0811
 9525SOL     OW29152   2.751   1.082   5.833 -0.5130 -0.4985  0.0984
 9525SOL    HW129153   2.724   1.106   5.744  0.6647 -1.6210 -0.5856
 9525SOL    HW229154   2.846   1.089   5.832 -0.5639  1.5770  1.9332
 9526SOL     OW29155   0.159   7.789   3.274 -0.3138  0.1205 -0.1907
 9526SOL    HW129156   0.099   7.832   3.212 -1.0911  0.3619  0.7023
 9526SOL    HW229157   0.242   7.834   3.262 -0.6185  0.5756 -0.6296
 9527SOL     OW29158   4.342   7.284   3.928 -0.3384 -0.2374 -0.3087
 9527SOL    HW129159   4.286   7.210   3.952 -1.7154  1.0191  0.4948
 9527SOL    HW229160   4.282   7.351   3.896  0.8637  0.6022 -0.9161
 9528SOL     OW29161   1.438   3.441   0.329  0.6079 -0.0098  0.6165
 9528SOL    HW129162   1.517   3.401   0.367  0.8006  0.7713  1.0811
 9528SOL    HW229163   1.473   3.504   0.266  0.3016 -0.8324 -0.3841
 9529SOL     OW29164   2.818   8.053   9.765  0.1415 -0.5340  0.0217
 9529SOL    HW129165   2.841   7.970   9.724  0.7298  0.7295 -2.3460
 9529SOL    HW229166   2.885   8.066   9.833  1.6910 -0.7499 -1.3952
 9530SOL     OW29167   0.182   1.903   7.217 -0.4770 -0.4336  0.5237
 9530SOL    HW129168   0.135   1.896   7.300 -2.4068 -1.3451 -0.5771
 9530SOL    HW229169   0.249   1.835   7.221 -1.1048 -1.0278  1.0044
 9531SOL     OW29170   9.553   8.463   8.543  0.0492  0.7234  0.4882
 9531SOL    HW129171   9.601   8.432   8.620 -1.2107 -0.3630  0.8961
 9531SOL    HW229172   9.463   8.473   8.574 -1.0653 -2.2343 -1.3729
 9532SOL     OW29173   5.742   2.318   0.385 -0.1751  0.5638  0.2375
 9532SOL    HW129174   5.777   2.231   0.364 -2.3144 -0.1269 -0.7262
 9532SOL    HW229175   5.658   2.322   0.339 -1.1825  2.2841  2.0723
 9533SOL     OW29176   6.360   8.249   6.914  0.3057 -0.4345  0.0963
 9533SOL    HW129177   6.443   8.225   6.874 -0.0881 -1.2008 -0.2894
 9533SOL    HW229178   6.294   8.228   6.848 -0.3160 -1.3009  0.9499
 9534SOL     OW29179   9.180   2.655   3.687 -0.2330 -0.0093 -0.2468
 9534SOL    HW129180   9.121   2.730   3.675  0.1596  0.5514  1.0673
 9534SOL    HW229181   9.124   2.578   3.676 -1.0645  0.5110  0.2637
 9535SOL     OW29182   6.301   6.568   2.708 -0.0088 -0.0526  0.0333
 9535SOL    HW129183   6.339   6.654   2.690  0.4101 -0.4872 -1.2452
 9535SOL    HW229184   6.368   6.522   2.760  0.3388 -0.0844 -0.4440
 9536SOL     OW29185   2.226   3.506   7.564 -0.1116  0.2283 -0.0422
 9536SOL    HW129186   2.277   3.567   7.618  0.0274 -2.1975  2.8505
 9536SOL    HW229187   2.285   3.483   7.492  1.3105  0.5350  0.9869
 9537SOL     OW29188   3.501   2.960   6.020 -0.6548  0.4733  0.3133
 9537SOL    HW129189   3.427   2.997   5.974 -1.2484  0.1926  1.0188
 9537SOL    HW229190   3.508   3.011   6.100  0.3821  0.9766 -0.0851
 9538SOL     OW29191   0.400   3.403   6.872 -0.0426  0.5921  0.1642
 9538SOL    HW129192   0.388   3.346   6.796  0.6711  0.8967 -0.1894
 9538SOL    HW229193   0.492   3.393   6.895 -0.0544  1.1482  0.4642
 9539SOL     OW29194   5.300   5.443   1.873 -0.3494 -0.8709  0.0858
 9539SOL    HW129195   5.252   5.503   1.815  0.2915  1.2695  1.6425
 9539SOL    HW229196   5.268   5.463   1.961  1.7127 -0.9696  0.9304
 9540SOL     OW29197   2.273   0.517   5.482  0.2634  0.0204 -0.5629
 9540SOL    HW129198   2.182   0.530   5.455 -0.1626  0.2700  0.8720
 9540SOL    HW229199   2.301   0.602   5.515  1.6205  0.3969 -2.5633
 9541SOL     OW29200   6.184   5.371   6.020 -0.4571 -0.3555 -0.2316
 9541SOL    HW129201   6.209   5.463   6.015 -0.0124 -0.4111  0.7220
 9541SOL    HW229202   6.091   5.371   5.997 -0.1884  0.1688 -1.3806
 9542SOL     OW29203   6.040   9.770   4.473 -0.1831 -0.1337 -0.4177
 9542SOL    HW129204   5.998   9.699   4.522  0.1140  0.4304  0.6816
 9542SOL    HW229205   5.968   9.827   4.447 -0.3554 -0.4967 -0.7402
 9543SOL     OW29206   9.850   0.566   7.707  0.1876  1.1031  0.0629
 9543SOL    HW129207   9.861   0.498   7.640  3.7728  1.0175  0.5635
 9543SOL    HW229208   9.803   0.637   7.662  1.8361  0.7618 -2.3797
 9544SOL     OW29209   2.546   9.210   1.069 -0.0744 -0.2586 -0.4056
 9544SOL    HW129210   2.557   9.305   1.070  0.7814 -0.3410  0.9862
 9544SOL    HW229211   2.492   9.193   0.992  0.1943  1.3003 -0.9789
 9545SOL     OW29212   8.277   4.906   3.778 -0.1584 -0.2205  0.1019
 9545SOL    HW129213   8.200   4.931   3.830 -0.1197 -2.4593  1.3934
 9545SOL    HW229214   8.280   4.810   3.786  1.6728 -0.3464 -1.5086
 9546SOL     OW29215   3.870   9.281   9.550  0.2578 -0.5041  0.1049
 9546SOL    HW129216   3.935   9.331   9.600  0.2477  0.6989 -1.0556
 9546SOL    HW229217   3.852   9.335   9.473 -3.6452  0.2480  1.3326
 9547SOL     OW29218   5.808   5.060   6.599 -0.3509  0.3386 -0.4621
 9547SOL    HW129219   5.794   5.093   6.687  2.1523 -0.2305  0.2247
 9547SOL    HW229220   5.739   4.995   6.586  0.8669 -1.7534  2.3023
 9548SOL     OW29221   0.713   8.137   6.793  0.0217  0.1315 -0.5194
 9548SOL    HW129222   0.775   8.103   6.729  2.1026  0.2264  1.2939
 9548SOL    HW229223   0.682   8.060   6.841  0.0317  0.2226 -0.3623
 9549SOL     OW29224   0.292   4.134   7.586 -0.4230 -0.7954 -0.4930
 9549SOL    HW129225   0.215   4.147   7.642 -0.2973 -1.4128 -0.1683
 9549SOL    HW229226   0.363   4.114   7.647  0.4412  1.5013 -0.6204
 9550SOL     OW29227   3.116   4.726   2.716  0.2821 -0.0767 -0.2040
 9550SOL    HW129228   3.088   4.757   2.630 -0.6952 -0.6076 -0.0911
 9550SOL    HW229229   3.162   4.800   2.755  1.5859 -0.1447 -1.5579
 9551SOL     OW29230   0.098   7.719   8.358 -0.2346  0.1436  0.7902
 9551SOL    HW129231   0.165   7.667   8.313 -0.5767  0.5331 -0.2087
 9551SOL    HW229232   0.077   7.668   8.436 -0.4913 -1.1968 -0.1139
 9552SOL     OW29233   3.033   9.663   1.685 -0.4848 -0.5784  0.2107
 9552SOL    HW129234   3.074   9.693   1.766 -2.2618  1.4891  0.4390
 9552SOL    HW229235   3.103   9.668   1.620  0.0031  1.6574  0.8142
 9553SOL     OW29236   3.938   2.029   3.732  0.0481  0.4389  0.0882
 9553SOL    HW129237   3.988   2.092   3.681 -0.4575  1.3074  0.6365
 9553SOL    HW229238   3.985   1.946   3.722  1.8238  1.2944  0.8968
 9554SOL     OW29239   5.301   7.643   1.077 -0.4526 -0.0644  0.0422
 9554SOL    HW129240   5.312   7.672   0.987  0.0331 -0.6470 -0.0886
 9554SOL    HW229241   5.206   7.648   1.092 -0.6804 -1.0794 -0.8908
 9555SOL     OW29242   0.200   5.474   0.251  0.5938  0.3586  0.3881
 9555SOL    HW129243   0.142   5.425   0.309  2.7956 -1.0999  1.4792
 9555SOL    HW229244   0.173   5.565   0.263  0.0270 -0.0282  2.6410
 9556SOL     OW29245   3.655   6.128   4.821  0.2105 -0.3242 -0.0716
 9556SOL    HW129246   3.592   6.122   4.893  1.9353  0.5458  1.6167
 9556SOL    HW229247   3.654   6.221   4.797  2.4701  0.2567  1.6602
 9557SOL     OW29248   9.595   5.810   9.565 -0.1819  0.3482  0.4701
 9557SOL    HW129249   9.562   5.740   9.621  1.2085  0.6280  1.6955
 9557SOL    HW229250   9.641   5.763   9.495 -2.0408 -0.0038 -0.5944
 9558SOL     OW29251   6.516   5.794   1.738 -0.0667  0.8916 -0.3692
 9558SOL    HW129252   6.423   5.815   1.746 -0.0124  0.6866  1.0416
 9558SOL    HW229253   6.521   5.699   1.747  0.2243  0.8331 -1.0901
 9559SOL     OW29254   4.251   5.355   4.836  0.0291  1.0078 -0.2021
 9559SOL    HW129255   4.173   5.340   4.891  0.7942  0.0913  0.6827
 9559SOL    HW229256   4.239   5.443   4.802 -1.2867  0.9806  0.1097
 9560SOL     OW29257   7.477   4.347   8.106 -0.7760  0.0352 -0.4786
 9560SOL    HW129258   7.555   4.395   8.131 -1.2223 -0.2548  1.7066
 9560SOL    HW229259   7.502   4.255   8.114 -2.0005 -0.1442  3.0998
 9561SOL     OW29260   1.925   6.995   7.738  0.6396 -0.2301 -0.5277
 9561SOL    HW129261   1.984   6.920   7.729  1.6658  0.6571 -1.4960
 9561SOL    HW229262   1.863   6.985   7.666  0.7701 -0.1465 -0.6509
 9562SOL     OW29263   7.073   0.763   8.104  0.1642  0.5095 -0.3502
 9562SOL    HW129264   7.030   0.848   8.091 -0.3820  0.2765 -0.1072
 9562SOL    HW229265   7.166   0.784   8.112  0.1492  0.9841 -1.2922
 9563SOL     OW29266   7.025   3.370   7.705  0.3215 -0.1959 -0.0231
 9563SOL    HW129267   6.936   3.390   7.676 -0.1521 -1.9630  0.0950
 9563SOL    HW229268   7.059   3.309   7.640  1.2088 -0.0561  0.2901
 9564SOL     OW29269   6.416   8.826   2.327 -0.2586  0.3225  0.8334
 9564SOL    HW129270   6.417   8.922   2.335 -0.0164  0.4363 -0.3508
 9564SOL    HW229271   6.508   8.801   2.322 -0.1889  0.6010 -4.1276
 9565SOL     OW29272   0.070   6.113   4.651 -0.1749 -0.2679 -0.6781
 9565SOL    HW129273  -0.010   6.072   4.619 -0.1819 -1.6696  0.9464
 9565SOL    HW229274   0.131   6.040   4.664  0.4570  0.4314  0.5605
 9566SOL     OW29275   5.490   4.905   1.824 -0.1850  0.5955 -0.8096
 9566SOL    HW129276   5.532   4.959   1.891 -1.7454  2.7667 -1.4584
 9566SOL    HW229277   5.428   4.850   1.873  2.2486 -1.6496 -0.0069
 9567SOL     OW29278   0.285   5.987   5.827  0.2756 -0.4358  0.4947
 9567SOL    HW129279   0.232   5.958   5.902 -1.4841  0.2374 -0.4248
 9567SOL    HW229280   0.275   6.082   5.826  1.8460 -0.2417  0.4973
 9568SOL     OW29281   1.562   4.263   7.923  0.1566 -0.0444  0.0222
 9568SOL    HW129282   1.481   4.213   7.912 -0.4664  0.7263  0.9925
 9568SOL    HW229283   1.536   4.341   7.971  1.0651  1.3584 -1.6431
 9569SOL     OW29284   5.589   4.391   3.921  0.4940 -0.1763 -0.3475
 9569SOL    HW129285   5.580   4.296   3.919  1.5156 -0.2871 -1.9165
 9569SOL    HW229286   5.659   4.407   3.985  0.0340 -0.4286  0.2307
 9570SOL     OW29287   2.764   3.083   8.941  0.0257  0.2266  0.3528
 9570SOL    HW129288   2.742   2.990   8.940  1.6240 -0.1712 -0.7824
 9570SOL    HW229289   2.846   3.088   8.991 -0.1404  1.0630  0.5679
 9571SOL     OW29290   1.289   9.552   1.329 -0.1681 -0.4851 -0.4333
 9571SOL    HW129291   1.320   9.642   1.342  0.7836 -0.6186 -1.6219
 9571SOL    HW229292   1.359   9.497   1.364 -0.4042 -0.7728 -0.4101
 9572SOL     OW29293   6.934   7.225   7.389 -0.8876  0.6050 -0.3719
 9572SOL    HW129294   6.916   7.135   7.417  0.8594  0.7126  1.2868
 9572SOL    HW229295   6.994   7.216   7.315  1.3548  0.3681  1.3919
 9573SOL     OW29296   0.933   5.175   4.203 -0.2289  0.2700 -0.1021
 9573SOL    HW129297   1.026   5.182   4.224  0.5112 -2.6980 -1.7788
 9573SOL    HW229298   0.889   5.182   4.288  1.6502  0.2333  0.9311
 9574SOL     OW29299   4.240   7.992   2.597 -0.4395  0.5288  0.0267
 9574SOL    HW129300   4.176   7.987   2.668 -0.4782 -0.1311 -0.0419
 9574SOL    HW229301   4.325   7.983   2.641 -0.2665  2.9640  0.2947
 9575SOL     OW29302   5.311   0.130   5.290  0.3149  0.1758 -0.0436
 9575SOL    HW129303   5.248   0.198   5.269 -0.5154 -0.7856 -0.8288
 9575SOL    HW229304   5.369   0.128   5.214 -0.9801 -1.4004 -1.0779
 9576SOL     OW29305   7.835   5.763   3.311 -0.5985 -0.7702 -0.0740
 9576SOL    HW129306   7.911   5.744   3.256  0.2046 -0.0109  0.7288
 9576SOL    HW229307   7.770   5.799   3.251  1.3245  2.9439 -0.1950
 9577SOL     OW29308   7.125   9.102   2.112  0.0271  0.1083  0.4130
 9577SOL    HW129309   7.048   9.075   2.161 -0.9445 -0.1915 -1.2130
 9577SOL    HW229310   7.123   9.198   2.113  0.7936  0.1501  2.0671
 9578SOL     OW29311   6.841   2.478   6.049  0.2267  0.3296 -0.2331
 9578SOL    HW129312   6.887   2.543   5.995  1.8475  0.1969  0.9105
 9578SOL    HW229313   6.857   2.395   6.004  0.6978  0.3525 -0.1175
 9579SOL     OW29314   1.049   3.103   1.171  0.0555 -0.2452  0.7978
 9579SOL    HW129315   1.064   3.086   1.078 -0.3051  0.5535  0.5847
 9579SOL    HW229316   1.084   3.025   1.215  0.1470 -0.6758 -0.0049
 9580SOL     OW29317   6.712   9.137   1.385  0.2615 -0.6741  0.1030
 9580SOL    HW129318   6.688   9.138   1.478 -1.0196  1.0927 -0.2072
 9580SOL    HW229319   6.643   9.086   1.343 -0.6748  0.7983 -0.2092
 9581SOL     OW29320   8.487   0.833   4.470  0.0274 -0.0254  0.0640
 9581SOL    HW129321   8.519   0.745   4.449 -1.5703 -0.6455  0.0824
 9581SOL    HW229322   8.523   0.852   4.557 -0.5639 -1.1840  0.5912
 9582SOL     OW29323   9.436   0.594   2.334  0.3278  0.1609  0.0610
 9582SOL    HW129324   9.481   0.525   2.285  0.0724  0.2839 -0.3523
 9582SOL    HW229325   9.400   0.549   2.410  2.0238  0.2532  0.9625
 9583SOL     OW29326   4.778   5.855   1.685  0.2089 -0.0740 -0.1405
 9583SOL    HW129327   4.778   5.849   1.590 -0.0300 -1.4074 -0.0731
 9583SOL    HW229328   4.753   5.767   1.715  1.9778 -0.1867  1.1763
 9584SOL     OW29329   1.806   8.409   7.532 -0.0481  0.0300 -0.4619
 9584SOL    HW129330   1.850   8.367   7.458 -0.2559  0.8848 -1.0811
 9584SOL    HW229331   1.836   8.360   7.608 -0.4550 -1.3891 -1.1791
 9585SOL     OW29332   7.630   9.241   4.103 -0.1163 -0.3338 -0.0882
 9585SOL    HW129333   7.633   9.285   4.188 -0.2344 -1.4166  0.5015
 9585SOL    HW229334   7.537   9.224   4.089 -0.1813  0.5902 -0.8512
 9586SOL     OW29335   1.133   6.535   7.593 -0.5011  0.2144 -0.0208
 9586SOL    HW129336   1.206   6.481   7.622 -1.5273 -0.0212  2.4016
 9586SOL    HW229337   1.139   6.615   7.646 -1.4136  0.6210 -0.4987
 9587SOL     OW29338   7.199   3.784   2.454 -0.2541  0.1693 -0.6159
 9587SOL    HW129339   7.169   3.855   2.511  1.5173  1.3289 -1.0395
 9587SOL    HW229340   7.138   3.713   2.470 -1.4226  1.3979  0.6837
 9588SOL     OW29341   8.503   2.494   8.989  0.1278 -0.1729 -0.7921
 9588SOL    HW129342   8.455   2.481   8.907 -0.8336 -0.7124 -0.1697
 9588SOL    HW229343   8.524   2.406   9.018  0.4714  0.0173 -0.4628
 9589SOL     OW29344   2.782   0.693   3.802 -0.0146 -0.2299  0.1398
 9589SOL    HW129345   2.868   0.692   3.843  0.5292  2.2030 -0.8070
 9589SOL    HW229346   2.766   0.785   3.780 -2.6120 -0.6882 -0.2322
 9590SOL     OW29347   8.867   5.889   0.185  0.1042  0.0743 -0.4535
 9590SOL    HW129348   8.892   5.814   0.131 -1.5023  0.5902 -2.0024
 9590SOL    HW229349   8.796   5.856   0.240 -0.7267  0.4816 -1.2633
 9591SOL     OW29350   0.525   5.170   7.250  0.0952  1.1103  0.0868
 9591SOL    HW129351   0.502   5.257   7.282 -1.2590  1.3629 -1.4091
 9591SOL    HW229352   0.445   5.118   7.264  1.2531 -0.2791  2.0663
 9592SOL     OW29353   5.344   7.426   1.401  0.4080  0.7062 -0.2908
 9592SOL    HW129354   5.257   7.460   1.381  0.1394 -0.5230 -1.3298
 9592SOL    HW229355   5.400   7.503   1.401  0.1775  1.0584 -4.5027
 9593SOL     OW29356   9.319   6.372   2.109 -0.0715 -0.2263 -0.6070
 9593SOL    HW129357   9.414   6.376   2.114 -0.1409  1.3654  0.3027
 9593SOL    HW229358   9.291   6.348   2.198 -0.5089 -0.8786 -0.9168
 9594SOL     OW29359   7.664   0.965   8.879  0.3403 -0.1621  0.5719
 9594SOL    HW129360   7.668   1.037   8.816 -0.5639 -2.5894 -2.5035
 9594SOL    HW229361   7.599   0.993   8.944 -2.5648  0.5610 -2.3913
 9595SOL     OW29362   0.186   1.350   5.747  0.5159 -0.2095  0.3467
 9595SOL    HW129363   0.251   1.302   5.799  1.1190 -1.0536 -1.1180
 9595SOL    HW229364   0.102   1.326   5.785  0.9730 -0.1642  1.4298
 9596SOL     OW29365   4.723   3.318   4.899 -0.3891  0.2678  0.7473
 9596SOL    HW129366   4.669   3.381   4.947  0.2858  1.5819 -0.1492
 9596SOL    HW229367   4.806   3.364   4.886 -0.1182 -0.5542 -0.5373
 9597SOL     OW29368   2.291   0.530   1.147  0.2182  0.0992 -0.4392
 9597SOL    HW129369   2.379   0.559   1.172 -0.3955  2.4369 -0.7730
 9597SOL    HW229370   2.306   0.469   1.075  1.6311 -1.2368  0.8904
 9598SOL     OW29371   5.750   9.395   6.780  0.4622 -0.6897 -0.4881
 9598SOL    HW129372   5.807   9.408   6.856  0.1873  0.8760 -0.5106
 9598SOL    HW229373   5.810   9.385   6.707  0.7496  0.6493 -0.4671
 9599SOL     OW29374   5.760   0.704   7.349 -0.3344  0.2738 -0.3606
 9599SOL    HW129375   5.849   0.731   7.326  0.1667 -0.5052  0.6034
 9599SOL    HW229376   5.704   0.768   7.305  0.7569  2.0547  0.7247
 9600SOL     OW29377   9.370   4.528   0.194 -0.0867 -0.2130 -0.2184
 9600SOL    HW129378   9.399   4.491   0.278  0.4706 -0.1868 -0.3944
 9600SOL    HW229379   9.448   4.524   0.138 -0.7728 -1.3435 -1.1260
 9601SOL     OW29380   2.732   7.379   6.235 -0.0071 -0.1953  0.2408
 9601SOL    HW129381   2.797   7.344   6.174 -1.7235 -1.4100 -1.0160
 9601SOL    HW229382   2.690   7.451   6.188 -0.0278  0.1364  0.7612
 9602SOL     OW29383   7.200   7.625   7.163  0.0478 -0.1503 -0.3217
 9602SOL    HW129384   7.271   7.579   7.209  0.7834 -0.1708 -1.4362
 9602SOL    HW229385   7.233   7.714   7.153 -1.6970  0.9498  2.5426
 9603SOL     OW29386   3.245   0.280   9.269  0.1515  0.4020 -0.1758
 9603SOL    HW129387   3.330   0.305   9.234 -0.0213 -2.1165 -2.7664
 9603SOL    HW229388   3.256   0.188   9.293 -2.5440 -1.1272 -3.8370
 9604SOL     OW29389   6.980   4.603   2.732 -0.2304 -0.5624  0.6940
 9604SOL    HW129390   6.908   4.644   2.685 -0.0237  0.1570  0.9929
 9604SOL    HW229391   6.938   4.546   2.796 -0.5225 -0.5701  0.4983
 9605SOL     OW29392   8.028   3.737   6.743 -0.1847 -0.2042  0.0951
 9605SOL    HW129393   8.043   3.669   6.677 -0.5794 -1.9277  1.7113
 9605SOL    HW229394   8.010   3.816   6.691 -0.5033 -1.4756 -1.8565
 9606SOL     OW29395   5.675   2.271   8.699 -0.3736  0.5000  0.4153
 9606SOL    HW129396   5.675   2.366   8.709  0.1203  0.4191  1.2086
 9606SOL    HW229397   5.678   2.236   8.788  1.6745 -0.2410  0.0959
 9607SOL     OW29398   4.224   9.851   4.617 -0.2334 -0.3688 -0.4244
 9607SOL    HW129399   4.198   9.786   4.681 -0.9324  1.9464  1.8299
 9607SOL    HW229400   4.193   9.934   4.653  2.1355  1.4604 -2.2104
 9608SOL     OW29401   7.482   2.680   6.935  0.4061  0.1905 -0.0932
 9608SOL    HW129402   7.442   2.704   7.019  1.1649 -0.1202  0.3766
 9608SOL    HW229403   7.446   2.594   6.915  0.0523  0.3636 -0.1945
 9609SOL     OW29404   5.386   0.305   6.815  0.2737 -0.2826  0.2453
 9609SOL    HW129405   5.437   0.319   6.736  1.4238  0.4072  1.0893
 9609SOL    HW229406   5.318   0.243   6.788  1.7094 -1.4723 -0.8369
 9610SOL     OW29407   7.533   9.757   3.389  0.2184  0.4537  0.3930
 9610SOL    HW129408   7.613   9.780   3.435 -0.0485  0.2488  0.9725
 9610SOL    HW229409   7.562   9.702   3.316  0.5215 -0.4581  1.1809
 9611SOL     OW29410   3.678   3.382   5.770  0.0214  0.3251  0.0376
 9611SOL    HW129411   3.647   3.459   5.723 -2.0745  0.1508  1.0016
 9611SOL    HW229412   3.761   3.360   5.730  0.5451  2.9320 -0.4182
 9612SOL     OW29413   8.033   2.948   0.410  0.0671 -0.3181 -0.0695
 9612SOL    HW129414   7.942   2.977   0.416 -0.3641 -1.6721  0.2609
 9612SOL    HW229415   8.084   3.025   0.437 -0.9930  0.3158  0.1957
 9613SOL     OW29416   0.884   9.420   3.891  1.1015 -0.2907  0.3770
 9613SOL    HW129417   0.865   9.488   3.957 -0.6537 -0.3277 -0.0314
 9613SOL    HW229418   0.950   9.460   3.834  1.5401  0.3158  1.2738
 9614SOL     OW29419   1.128   7.084   7.326 -0.6014 -0.5946  0.4702
 9614SOL    HW129420   1.113   7.162   7.271  1.4160 -0.8857 -0.5945
 9614SOL    HW229421   1.219   7.061   7.309 -0.9977 -2.8858  1.1856
 9615SOL     OW29422   8.115   8.780   7.011  0.6617 -0.3510  0.1316
 9615SOL    HW129423   8.098   8.698   6.963  0.8321 -0.2865 -0.0389
 9615SOL    HW229424   8.109   8.848   6.944  0.7859 -0.2499  0.2235
 9616SOL     OW29425   6.260   0.937   8.871  0.2469  0.3051  0.8847
 9616SOL    HW129426   6.331   0.992   8.904 -0.6796  1.6107  0.7642
 9616SOL    HW229427   6.291   0.906   8.785  1.6156 -1.0677  1.8200
 9617SOL     OW29428   2.752   9.315   1.420 -0.5674 -0.4752  0.3316
 9617SOL    HW129429   2.772   9.388   1.360  3.0349  1.1012  3.0299
 9617SOL    HW229430   2.675   9.344   1.468 -0.2393  0.8247  0.1282
 9618SOL     OW29431   4.985   6.672   4.031 -0.9226 -0.4307  0.6133
 9618SOL    HW129432   4.985   6.591   4.082 -1.4939 -0.4028  0.6580
 9618SOL    HW229433   5.076   6.681   4.003 -0.7686 -0.8775  0.9392
 9619SOL     OW29434   2.312   1.043   3.561 -0.4088  0.3775 -0.5445
 9619SOL    HW129435   2.336   1.083   3.477  0.1490  1.4923  0.1215
 9619SOL    HW229436   2.302   1.116   3.621 -0.5322 -0.4196  0.4408
 9620SOL     OW29437   0.532   8.329   8.265  0.7887 -0.1006  0.0299
 9620SOL    HW129438   0.598   8.345   8.197  1.1872 -0.4130  0.3446
 9620SOL    HW229439   0.451   8.361   8.226  0.9206 -0.7211 -0.7975
 9621SOL     OW29440   9.611   6.214   6.397 -0.9988  0.3195  0.3445
 9621SOL    HW129441   9.604   6.305   6.427 -0.2478 -0.4438  3.1837
 9621SOL    HW229442   9.702   6.191   6.415 -1.6405 -1.5270  1.4509
 9622SOL     OW29443   2.945   9.621   1.388 -0.4361  0.0150  0.6636
 9622SOL    HW129444   2.883   9.595   1.319 -1.2236  1.2629  0.8608
 9622SOL    HW229445   2.956   9.715   1.375  2.5216 -0.3590 -0.2086
 9623SOL     OW29446   3.224   4.239   6.003 -0.5839 -0.0800 -0.8824
 9623SOL    HW129447   3.165   4.237   5.928 -0.9437 -0.3166 -0.6012
 9623SOL    HW229448   3.181   4.298   6.066 -1.7988 -2.0913  0.3186
 9624SOL     OW29449   3.273   7.600   8.480  0.2627 -0.0321 -0.1309
 9624SOL    HW129450   3.273   7.629   8.388  1.1495 -0.5945 -0.3104
 9624SOL    HW229451   3.330   7.663   8.525  1.1030 -0.6811 -0.2699
 9625SOL     OW29452   2.106   5.163   8.691 -0.1200  0.4858  0.0727
 9625SOL    HW129453   2.185   5.217   8.686  1.1330 -1.0350  1.9217
 9625SOL    HW229454   2.123   5.089   8.634 -0.6036  0.5869 -0.2086
 9626SOL     OW29455   2.398   0.347   2.090 -0.0187  0.0239  0.3663
 9626SOL    HW129456   2.329   0.390   2.040 -1.5015  0.5404  2.6986
 9626SOL    HW229457   2.476   0.398   2.072 -0.6676  0.6637 -0.7618
 9627SOL     OW29458   9.801   3.507   5.697 -0.5175  0.0834  0.1529
 9627SOL    HW129459   9.883   3.509   5.647 -0.3670 -0.2151  0.3867
 9627SOL    HW229460   9.734   3.534   5.634 -0.3791 -0.6223 -0.3018
 9628SOL     OW29461   5.425   8.694   9.699 -0.3773 -0.3385 -0.0239
 9628SOL    HW129462   5.415   8.788   9.714 -0.2256  0.0417 -2.0563
 9628SOL    HW229463   5.506   8.671   9.744  0.3951  0.8391 -0.7679
 9629SOL     OW29464   1.863   6.826   2.303  0.2837  0.3430 -0.5072
 9629SOL    HW129465   1.900   6.750   2.347 -0.5255  0.4252  0.3446
 9629SOL    HW229466   1.851   6.890   2.373 -3.1128 -0.2962 -0.3486
 9630SOL     OW29467   3.771   9.587   4.454 -0.4344 -0.1676 -0.6795
 9630SOL    HW129468   3.761   9.676   4.419 -1.1424  0.1979  0.3802
 9630SOL    HW229469   3.777   9.531   4.376 -2.3727  0.5580 -1.4332
 9631SOL     OW29470   4.922   3.378   8.809  0.4846  0.4456  0.4302
 9631SOL    HW129471   4.924   3.303   8.868  0.3310  0.6163  0.6555
 9631SOL    HW229472   5.013   3.406   8.802  0.3674  1.1638  1.5446
 9632SOL     OW29473   9.789   0.141   9.677  0.4479 -0.1933  0.1758
 9632SOL    HW129474   9.831   0.174   9.597 -0.8196  1.1737  0.0228
 9632SOL    HW229475   9.749   0.059   9.650  0.2045  0.1530 -0.5648
 9633SOL     OW29476   1.471   5.606   7.593  0.4873 -0.0064  0.0091
 9633SOL    HW129477   1.518   5.565   7.520 -0.4939  2.1746 -1.9866
 9633SOL    HW229478   1.386   5.561   7.594  0.6883 -0.3900  0.1634
 9634SOL     OW29479   5.944   6.097   2.210 -0.0853 -0.0029 -0.6502
 9634SOL    HW129480   5.853   6.092   2.240  0.2822 -0.2384  0.4854
 9634SOL    HW229481   5.944   6.049   2.127 -1.1002  0.4913 -0.9602
 9635SOL     OW29482   2.382   6.970   0.474 -0.4985  0.1452 -0.6260
 9635SOL    HW129483   2.347   6.910   0.408  1.0042 -0.3574 -1.0199
 9635SOL    HW229484   2.390   7.053   0.428  1.2820 -0.3918 -1.3768
 9636SOL     OW29485   3.088   1.248   7.858 -0.5499  0.2167  0.3314
 9636SOL    HW129486   3.129   1.189   7.922  0.3854 -0.0718 -0.5172
 9636SOL    HW229487   3.064   1.325   7.910 -0.7510 -0.4315  1.2354
 9637SOL     OW29488   8.982   5.445   4.972 -0.0839  0.0193  0.2287
 9637SOL    HW129489   8.958   5.358   5.004  0.1614 -0.5837 -1.1770
 9637SOL    HW229490   8.935   5.505   5.030 -0.8918 -1.0541  0.7220
 9638SOL     OW29491   5.992   8.514   8.103  0.1059  0.4504  0.3626
 9638SOL    HW129492   6.014   8.429   8.141  0.4659  2.1183  4.3378
 9638SOL    HW229493   6.073   8.541   8.059  0.9145 -0.1170  1.4415
 9639SOL     OW29494   6.261   2.115   0.898 -0.6584 -0.3494  0.2631
 9639SOL    HW129495   6.197   2.176   0.861 -0.7735  0.0375  1.0849
 9639SOL    HW229496   6.225   2.028   0.880  0.3213 -0.3032 -2.4620
 9640SOL     OW29497   0.987   2.369   7.976  0.1014  0.1010  0.2986
 9640SOL    HW129498   0.990   2.274   7.967 -1.5994  0.0173  0.1778
 9640SOL    HW229499   0.969   2.400   7.887  1.0274  0.5840  0.2644
 9641SOL     OW29500   6.765   1.916   5.674  0.5284 -0.1973  0.2237
 9641SOL    HW129501   6.725   1.842   5.720  2.3578 -0.2784  1.7942
 9641SOL    HW229502   6.694   1.980   5.665 -0.2007 -0.6742  2.1288
 9642SOL     OW29503   3.055   8.962   2.921  0.4225  0.2761 -0.7187
 9642SOL    HW129504   2.975   9.005   2.890 -0.5473 -0.9482  0.0085
 9642SOL    HW229505   3.073   8.896   2.854  0.3624  0.0108 -0.4723
 9643SOL     OW29506   9.162   3.753   3.730 -0.0401  0.1524  0.0159
 9643SOL    HW129507   9.146   3.680   3.789 -2.3359  0.9904  0.5467
 9643SOL    HW229508   9.255   3.747   3.708  0.0069 -2.4389  0.6476
 9644SOL     OW29509   7.236   3.259   9.205  0.4856  0.4458  0.1472
 9644SOL    HW129510   7.262   3.205   9.280 -3.4715  1.3091  2.3853
 9644SOL    HW229511   7.301   3.329   9.202  1.5953 -0.4482  1.7897
 9645SOL     OW29512   0.140   6.125   0.263  0.2559 -0.2483  0.3357
 9645SOL    HW129513   0.081   6.122   0.187  0.9553 -0.2469 -0.2182
 9645SOL    HW229514   0.209   6.186   0.237  0.8107 -0.6996  0.7405
 9646SOL     OW29515   6.510   8.468   2.402 -0.6787 -0.4198  0.0904
 9646SOL    HW129516   6.530   8.425   2.319  1.1829  1.8396 -0.7271
 9646SOL    HW229517   6.554   8.553   2.397 -0.0841 -0.3597  3.5800
 9647SOL     OW29518   9.386   3.793   2.145  0.0884  0.5535  0.1745
 9647SOL    HW129519   9.401   3.764   2.054  1.6495  0.0592  0.5531
 9647SOL    HW229520   9.443   3.869   2.155 -1.7196  1.9538  0.1140
 9648SOL     OW29521   2.201   9.792   6.632  0.1810  0.0358 -0.3695
 9648SOL    HW129522   2.181   9.702   6.657 -0.4049  0.6319  1.4143
 9648SOL    HW229523   2.195   9.791   6.536  1.4565 -2.0934 -0.4921
 9649SOL     OW29524   7.326   1.826   3.317 -0.3283 -0.5419 -0.0101
 9649SOL    HW129525   7.340   1.910   3.361  3.0421 -0.5281 -0.8055
 9649SOL    HW229526   7.326   1.847   3.224 -3.9822 -1.0000 -0.2648
 9650SOL     OW29527   3.762   4.153   0.242 -0.2520 -0.1954  0.3576
 9650SOL    HW129528   3.708   4.192   0.311 -2.5974 -1.6085 -0.5644
 9650SOL    HW229529   3.721   4.183   0.161 -0.7111 -2.6158 -0.3695
 9651SOL     OW29530   6.518   4.483   7.272 -0.5556 -0.3482 -0.1588
 9651SOL    HW129531   6.506   4.549   7.204 -0.9302 -1.3040 -1.0359
 9651SOL    HW229532   6.461   4.411   7.246  1.8142 -2.1600 -0.7167
 9652SOL     OW29533   5.121   7.020   3.867  0.0615 -0.0606 -0.3363
 9652SOL    HW129534   5.191   7.083   3.845 -0.9100  0.5667 -1.8104
 9652SOL    HW229535   5.068   7.066   3.932 -0.0702  0.2488 -0.6576
 9653SOL     OW29536   1.230   8.869   2.676 -0.4001 -0.3152  0.3415
 9653SOL    HW129537   1.309   8.920   2.691  0.4595 -0.9046 -1.9082
 9653SOL    HW229538   1.204   8.889   2.586 -0.2677 -3.4575 -0.5150
 9654SOL     OW29539   2.099   6.296   0.278  0.5669 -0.2003 -0.2579
 9654SOL    HW129540   2.037   6.368   0.270 -1.4600 -1.8893 -0.8648
 9654SOL    HW229541   2.139   6.307   0.364  0.2167  1.5264 -0.2863
 9655SOL     OW29542   5.196   2.304   7.432 -0.1009 -0.3020 -0.0723
 9655SOL    HW129543   5.216   2.360   7.506 -0.1327  1.6304 -1.4632
 9655SOL    HW229544   5.244   2.223   7.450 -3.0621 -1.4914  3.8647
 9656SOL     OW29545   5.439   8.104   7.261 -0.0499 -0.1306 -0.1938
 9656SOL    HW129546   5.437   8.108   7.357  3.1747  1.2641 -0.0569
 9656SOL    HW229547   5.504   8.037   7.241  0.3679  0.5928 -1.3499
 9657SOL     OW29548   4.138   0.263   8.266 -0.1048  0.1745  0.1129
 9657SOL    HW129549   4.155   0.357   8.264  0.1234  0.1924 -3.0097
 9657SOL    HW229550   4.043   0.255   8.274 -0.1199  0.6756  0.3996
 9658SOL     OW29551   8.365   9.354   6.661  0.3447 -1.0572  0.4133
 9658SOL    HW129552   8.412   9.434   6.683  1.4731 -1.9905  1.6016
 9658SOL    HW229553   8.418   9.313   6.593 -0.4283 -0.6280 -0.4586
 9659SOL     OW29554   8.108   5.523   7.499 -0.2516  0.3333  0.3719
 9659SOL    HW129555   8.073   5.466   7.431  0.6638 -0.3188  0.4290
 9659SOL    HW229556   8.203   5.520   7.487 -0.0756  0.2775  1.6126
 9660SOL     OW29557   3.223   5.991   5.394 -0.2155 -0.1301  0.3131
 9660SOL    HW129558   3.296   5.936   5.422  0.0674  0.6565  1.1919
 9660SOL    HW229559   3.189   6.029   5.476  0.2429  1.7717 -0.3389
 9661SOL     OW29560   0.097   0.717   0.113  0.1372  0.5155  0.0340
 9661SOL    HW129561   0.183   0.681   0.092 -0.3123 -0.0785 -0.8455
 9661SOL    HW229562   0.036   0.646   0.093 -0.5426  0.8156  0.9485
 9662SOL     OW29563   6.756   9.047   5.837  0.4348  0.2931  0.3041
 9662SOL    HW129564   6.758   8.956   5.808 -0.2212  0.4304 -0.2005
 9662SOL    HW229565   6.666   9.060   5.868  0.8520  0.4204  1.5456
 9663SOL     OW29566   3.760   2.571   8.145 -0.5505 -0.3029  0.4860
 9663SOL    HW129567   3.822   2.644   8.154 -0.5590 -0.3311  0.7908
 9663SOL    HW229568   3.805   2.496   8.183 -0.5819 -0.4350  0.2641
 9664SOL     OW29569   2.352   9.591   2.983  0.0299  0.0400 -0.3258
 9664SOL    HW129570   2.263   9.621   3.000 -0.6485 -2.0378  0.1146
 9664SOL    HW229571   2.353   9.568   2.890 -0.8311 -2.5727  0.2201
 9665SOL     OW29572   9.064   2.451   4.699 -0.4046 -0.3315  0.1524
 9665SOL    HW129573   9.055   2.499   4.782 -0.5959 -1.1529  0.6192
 9665SOL    HW229574   9.153   2.470   4.670 -0.6943  0.8346 -0.0154
 9666SOL     OW29575   5.261   8.767   7.204  0.1901  0.0031 -0.6633
 9666SOL    HW129576   5.176   8.811   7.205  0.1484 -0.0866 -0.2507
 9666SOL    HW229577   5.299   8.791   7.119 -0.9835 -1.3669 -1.6195
 9667SOL     OW29578   4.476   6.427   8.940  0.1625 -0.6686  0.3005
 9667SOL    HW129579   4.464   6.520   8.958 -1.1567 -0.4692 -1.3144
 9667SOL    HW229580   4.522   6.393   9.017  0.6522  1.2962  0.9322
 9668SOL     OW29581   6.685   3.239   2.986  0.4831  0.0368  0.2009
 9668SOL    HW129582   6.672   3.320   2.936 -1.2084 -1.2125 -1.5291
 9668SOL    HW229583   6.735   3.183   2.928 -1.1882 -1.3140 -0.0079
 9669SOL     OW29584   5.053   3.632   6.205  0.7159  0.0337  0.4101
 9669SOL    HW129585   5.093   3.630   6.118  0.2340  0.4757  0.1713
 9669SOL    HW229586   5.006   3.715   6.207  1.9681  0.7593  1.6580
 9670SOL     OW29587   1.954   0.541   7.349  0.2101 -0.2904  0.3328
 9670SOL    HW129588   2.036   0.492   7.347 -0.4705 -1.6160  1.9073
 9670SOL    HW229589   1.933   0.546   7.442 -1.6485 -0.2568 -0.0626
 9671SOL     OW29590   4.593   6.438   3.599  0.4057 -0.0468 -0.6877
 9671SOL    HW129591   4.550   6.358   3.568 -0.0254 -1.0276  2.1697
 9671SOL    HW229592   4.655   6.409   3.665 -1.9536  2.0533  2.8043
 9672SOL     OW29593   9.831   0.696   7.021  0.3335 -0.1450 -0.0173
 9672SOL    HW129594   9.860   0.614   7.061 -0.0415  0.0485  0.6645
 9672SOL    HW229595   9.795   0.747   7.093  2.4190  1.4905 -0.0118
 9673SOL     OW29596   9.596   5.688   3.105 -0.1278 -0.3605  0.4237
 9673SOL    HW129597   9.537   5.740   3.049  0.3386 -0.4862 -0.1963
 9673SOL    HW229598   9.682   5.726   3.091 -0.0265 -0.2839  1.2053
 9674SOL     OW29599   9.106   1.284   8.082  0.0908 -0.4152 -0.6088
 9674SOL    HW129600   9.090   1.287   7.987 -1.4655 -2.7891 -0.5192
 9674SOL    HW229601   9.018   1.285   8.120  0.6768 -0.3582  0.7736
 9675SOL     OW29602   3.649   4.337   5.048  0.2362  0.3333  0.2214
 9675SOL    HW129603   3.620   4.334   5.139 -1.6623 -1.8047 -0.3635
 9675SOL    HW229604   3.712   4.266   5.041  1.8773  1.7197  0.2562
 9676SOL     OW29605   6.375   3.100   5.589 -0.6813  0.4281 -0.2948
 9676SOL    HW129606   6.385   3.194   5.578 -0.3214  0.2411 -1.7343
 9676SOL    HW229607   6.448   3.074   5.644  0.8427  0.6160 -2.1350
 9677SOL     OW29608   6.812   9.692   1.618  0.0546  0.6230 -0.0868
 9677SOL    HW129609   6.721   9.663   1.608 -0.5461  1.3497  2.5049
 9677SOL    HW229610   6.857   9.617   1.656 -0.2744  1.2634  1.6680
 9678SOL     OW29611   9.829   0.660   7.356 -0.7561  0.2314  0.5274
 9678SOL    HW129612   9.806   0.731   7.417  0.1254  0.5643  0.4843
 9678SOL    HW229613   9.766   0.591   7.376 -2.3495  1.4143 -0.1621
 9679SOL     OW29614   1.319   6.187   0.403 -0.0537 -0.1622  0.0712
 9679SOL    HW129615   1.256   6.240   0.354 -0.6301 -1.5482 -0.7292
 9679SOL    HW229616   1.319   6.225   0.491 -1.5009  0.2920 -0.1046
 9680SOL     OW29617   9.597   4.949   7.801  0.1463  0.3241 -0.1748
 9680SOL    HW129618   9.599   5.044   7.806 -1.1434  0.3249  2.1190
 9680SOL    HW229619   9.506   4.926   7.824  0.3346 -1.4559 -1.0139
 9681SOL     OW29620   9.941   7.419   0.069 -0.3018  0.0114 -0.2373
 9681SOL    HW129621   9.979   7.486   0.011  1.3363 -0.7688 -0.1237
 9681SOL    HW229622   9.954   7.454   0.157  1.6004 -0.8995 -0.1067
 9682SOL     OW29623   4.994   6.176   0.434  0.2431  0.2162 -0.1726
 9682SOL    HW129624   4.982   6.082   0.440  0.1459  0.1758 -0.8894
 9682SOL    HW229625   5.060   6.196   0.500  0.9343 -0.4885 -0.6256
 9683SOL     OW29626   2.186   7.542   1.375 -0.3925 -0.1459  0.8407
 9683SOL    HW129627   2.163   7.612   1.436 -0.6744 -0.4883  1.1221
 9683SOL    HW229628   2.226   7.589   1.301  0.8158  0.2031  1.6737
 9684SOL     OW29629   3.222  -0.005   7.015  0.0976  0.2980 -0.2528
 9684SOL    HW129630   3.308  -0.014   7.056  0.8145  0.9139 -1.5322
 9684SOL    HW229631   3.172   0.051   7.075  0.5492 -0.1591  0.5590
 9685SOL     OW29632   6.865   7.548   3.447  0.2734  0.0304 -0.1079
 9685SOL    HW129633   6.903   7.481   3.505  1.9774  0.9396 -0.0850
 9685SOL    HW229634   6.824   7.610   3.507  2.8327  1.4602  0.3207
 9686SOL     OW29635   5.200   7.552   4.185  0.0695  0.7483 -0.1969
 9686SOL    HW129636   5.156   7.486   4.238 -0.0200 -0.2704 -1.4716
 9686SOL    HW229637   5.287   7.516   4.170 -0.2459  0.4894 -1.5833
 9687SOL     OW29638   5.195   2.072   2.097  0.0952  0.0447  0.7412
 9687SOL    HW129639   5.201   2.165   2.119  0.1747  0.1428  0.3027
 9687SOL    HW229640   5.145   2.069   2.015 -1.9139 -0.4428  1.9123
 9688SOL     OW29641   2.671   9.547   7.304 -0.0981 -0.3073  0.7492
 9688SOL    HW129642   2.732   9.473   7.310  1.0364  0.4271 -0.9488
 9688SOL    HW229643   2.724   9.624   7.325 -0.6487  0.2524  0.1409
 9689SOL     OW29644   3.774   0.852   4.413 -0.2809  0.0679  0.2509
 9689SOL    HW129645   3.799   0.785   4.476 -1.2660 -0.6381 -0.0846
 9689SOL    HW229646   3.684   0.876   4.439  0.1956  1.5862  0.6416
 9690SOL     OW29647   6.248   9.728   9.211 -0.2557  0.4566  0.0074
 9690SOL    HW129648   6.277   9.816   9.234  1.2278  0.4184 -1.5176
 9690SOL    HW229649   6.255   9.678   9.293  3.5799  0.6027 -0.0748
 9691SOL     OW29650   3.303   0.729   9.516 -0.5461 -0.0311  0.5991
 9691SOL    HW129651   3.340   0.642   9.496 -2.6613 -0.4559 -1.9136
 9691SOL    HW229652   3.215   0.710   9.549 -0.0505  1.1081  2.7106
 9692SOL     OW29653   7.307   3.478   5.467 -0.8691  0.3784  0.4810
 9692SOL    HW129654   7.299   3.437   5.381  1.9538  1.3552 -0.3521
 9692SOL    HW229655   7.261   3.561   5.458  2.2405  2.0901 -1.3830
 9693SOL     OW29656   7.480   2.844   7.169 -0.0176  0.0952 -1.0005
 9693SOL    HW129657   7.474   2.776   7.236 -0.3941  0.6619 -0.4444
 9693SOL    HW229658   7.567   2.834   7.132  0.6730  0.5505  0.4364
 9694SOL     OW29659   1.787   7.767   5.195  0.0157  0.0825 -0.0189
 9694SOL    HW129660   1.785   7.852   5.238 -1.9561 -0.5795  1.3255
 9694SOL    HW229661   1.880   7.744   5.191  0.4310  1.3239  1.5488
 9695SOL     OW29662   1.820   5.496   9.968  0.0570  0.4403  0.0175
 9695SOL    HW129663   1.744   5.460  10.015  0.9792  1.0803  2.1051
 9695SOL    HW229664   1.814   5.458   9.880 -1.8079 -0.7393  0.5969
 9696SOL     OW29665   2.173   0.724   3.310 -0.2630  0.0956 -0.0271
 9696SOL    HW129666   2.114   0.649   3.300  0.6447 -0.5711 -0.5681
 9696SOL    HW229667   2.152   0.761   3.395 -0.4340 -1.0457  0.4357
 9697SOL     OW29668   7.001   4.139   4.771  0.0800 -0.0945 -0.0900
 9697SOL    HW129669   6.947   4.154   4.694  0.4286  1.8314 -0.0019
 9697SOL    HW229670   6.956   4.069   4.819 -0.5297 -0.8076 -1.6420
 9698SOL     OW29671   2.460   9.650   1.307 -0.1920 -0.0073  0.3765
 9698SOL    HW129672   2.393   9.586   1.332 -1.4913  0.7838 -0.9472
 9698SOL    HW229673   2.416   9.735   1.316  1.2383  0.6798  1.2717
 9699SOL     OW29674   6.262   7.019   1.372  0.0538 -0.1438 -0.0500
 9699SOL    HW129675   6.232   7.051   1.456 -0.3910  2.8512 -1.2147
 9699SOL    HW229676   6.188   6.970   1.336 -0.1296 -0.5129  0.8126
 9700SOL     OW29677   2.352   4.543   6.492  0.0536 -0.1959 -0.3606
 9700SOL    HW129678   2.405   4.595   6.552  2.2485 -0.8562 -1.6086
 9700SOL    HW229679   2.316   4.473   6.546  0.7423  0.0712  0.4617
 9701SOL     OW29680   5.717   2.097   2.536  0.0008  0.3099  0.1257
 9701SOL    HW129681   5.728   2.024   2.596 -0.4002 -0.1071 -0.2873
 9701SOL    HW229682   5.801   2.105   2.491 -0.5874 -1.3966 -1.4384
 9702SOL     OW29683   1.060   4.766   4.857  0.9480 -0.7478 -0.1133
 9702SOL    HW129684   1.135   4.825   4.848  0.9251 -0.8966 -1.5352
 9702SOL    HW229685   1.005   4.785   4.781  0.1343 -1.4819  0.2660
 9703SOL     OW29686   6.169   8.235   1.156  0.3028 -0.0716  0.2573
 9703SOL    HW129687   6.231   8.250   1.084  0.3615  0.7189  0.4689
 9703SOL    HW229688   6.221   8.247   1.235  0.4067 -1.6254  0.4513
 9704SOL     OW29689   1.592   9.156   7.612 -0.1337 -0.3034 -0.0910
 9704SOL    HW129690   1.649   9.233   7.619  0.6056 -0.7793 -0.6909
 9704SOL    HW229691   1.525   9.181   7.548  0.9829 -0.6525 -1.4563
 9705SOL     OW29692   5.858   5.617   0.399 -0.3214  0.0112 -0.2447
 9705SOL    HW129693   5.940   5.583   0.435  0.5508  0.6309 -1.5765
 9705SOL    HW229694   5.803   5.540   0.387 -0.1645 -0.3561  1.1554
 9706SOL     OW29695   1.365   8.886   1.454  0.2158  0.1466  0.3492
 9706SOL    HW129696   1.422   8.833   1.509  1.1591 -0.4229 -1.1308
 9706SOL    HW229697   1.308   8.824   1.409  0.7591  0.4186 -0.7601
 9707SOL     OW29698   2.146   6.881   5.370  0.3510  0.2224 -0.5228
 9707SOL    HW129699   2.092   6.871   5.449  0.3322 -0.8707 -0.6633
 9707SOL    HW229700   2.082   6.890   5.299  0.3364  2.7396 -0.2960
 9708SOL     OW29701   9.154   0.803   1.434 -0.3735  0.3766 -0.1923
 9708SOL    HW129702   9.059   0.791   1.434 -0.5179  1.4417  0.2772
 9708SOL    HW229703   9.185   0.752   1.509 -0.6083  0.2849 -0.1584
 9709SOL     OW29704   3.508   1.821   9.530  0.2197  0.4570  0.1748
 9709SOL    HW129705   3.591   1.779   9.556  0.2037 -0.5882 -1.3453
 9709SOL    HW229706   3.527   1.915   9.535  1.4764  0.2408 -0.0138
 9710SOL     OW29707   0.647   9.944   1.210  0.0729  0.1590  0.2135
 9710SOL    HW129708   0.719  10.006   1.208  1.5874 -1.5202 -0.7460
 9710SOL    HW229709   0.646   9.912   1.301  1.8317 -1.1620 -0.1818
 9711SOL     OW29710   5.451   5.814   6.804  0.7313  0.5051 -0.5542
 9711SOL    HW129711   5.442   5.876   6.732 -0.6592  0.1793 -0.6781
 9711SOL    HW229712   5.499   5.863   6.871 -0.7409  1.9147 -0.4624
 9712SOL     OW29713   4.851   0.593   6.589 -0.0906 -0.0131  0.2710
 9712SOL    HW129714   4.874   0.593   6.496  0.3012  1.1160  0.3553
 9712SOL    HW229715   4.800   0.673   6.601 -1.2754 -0.8123  0.7714
 9713SOL     OW29716   8.568   7.194   7.790  0.2487 -0.1830 -0.1490
 9713SOL    HW129717   8.476   7.212   7.806  0.1800 -1.3142  0.8865
 9713SOL    HW229718   8.569   7.104   7.755  1.0302 -0.7032  1.1347
 9714SOL     OW29719   2.315   4.155   5.906  0.0075  0.0460  0.1141
 9714SOL    HW129720   2.307   4.119   5.995  1.4514 -2.1222 -0.5383
 9714SOL    HW229721   2.387   4.218   5.913  0.0982 -0.0948  0.4805
 9715SOL     OW29722   9.593   2.020   2.457  0.2234 -0.6329 -0.0175
 9715SOL    HW129723   9.527   1.954   2.436  0.0591 -0.0149 -1.5548
 9715SOL    HW229724   9.600   2.017   2.552 -0.4630 -2.1974  0.0155
 9716SOL     OW29725   2.869   8.238   9.033 -0.5208  0.1059  0.0082
 9716SOL    HW129726   2.896   8.172   9.096  2.4067  1.3068  0.1780
 9716SOL    HW229727   2.834   8.309   9.086  1.0653  0.7227  0.2945
 9717SOL     OW29728   7.945   9.604   8.624  0.0987  0.8822  0.0639
 9717SOL    HW129729   8.033   9.591   8.588 -1.2046 -0.4148 -3.0497
 9717SOL    HW229730   7.930   9.528   8.680  1.1492  1.4641  1.1820
 9718SOL     OW29731   4.735   5.866   9.710  0.0697  0.3664 -0.2957
 9718SOL    HW129732   4.686   5.818   9.777 -1.2109 -0.8188 -2.0015
 9718SOL    HW229733   4.735   5.957   9.741  0.0544 -0.2375  1.5892
 9719SOL     OW29734   9.276   4.492   7.458 -0.3421  0.1939  0.1617
 9719SOL    HW129735   9.312   4.488   7.547 -0.4186  1.2115  0.2510
 9719SOL    HW229736   9.301   4.579   7.426  2.3790 -1.2202 -1.9920
 9720SOL     OW29737   7.800   1.165   2.895 -0.3095 -0.1137  0.4351
 9720SOL    HW129738   7.710   1.175   2.925  0.2652  1.0488  1.8794
 9720SOL    HW229739   7.815   1.241   2.838 -0.7310 -1.1953 -1.1958
 9721SOL     OW29740   0.108   8.210   3.966  0.1835  0.2936 -0.0554
 9721SOL    HW129741   0.072   8.299   3.962  0.4825  0.3768 -2.4955
 9721SOL    HW229742   0.203   8.223   3.963  0.3602 -0.0689  2.3096
 9722SOL     OW29743   9.939   3.867   9.744 -0.5088 -0.2950 -0.3717
 9722SOL    HW129744  10.031   3.876   9.770 -0.8748 -0.8438  1.2258
 9722SOL    HW229745   9.941   3.807   9.669  0.3036 -2.0088  0.9492
 9723SOL     OW29746   9.341   5.669   2.185  0.6188 -0.3254  0.1978
 9723SOL    HW129747   9.297   5.705   2.108  3.5445  2.8423 -0.2414
 9723SOL    HW229748   9.385   5.590   2.153  1.7184  0.8942 -1.4348
 9724SOL     OW29749   8.377   8.550   7.464  0.0221 -0.2428 -0.3819
 9724SOL    HW129750   8.397   8.552   7.370  0.7650 -0.2895 -0.2309
 9724SOL    HW229751   8.281   8.551   7.468 -0.0244  1.0035 -1.1171
 9725SOL     OW29752   5.581   9.954   2.361  0.2513  0.1036  0.0218
 9725SOL    HW129753   5.510  10.018   2.368  0.8059  0.7843 -0.5127
 9725SOL    HW229754   5.630   9.963   2.443 -0.9538 -1.2220  0.9461
 9726SOL     OW29755   5.702   0.642   6.995 -0.2819 -0.0147 -0.1630
 9726SOL    HW129756   5.796   0.658   6.988  0.0793 -1.2094  1.3135
 9726SOL    HW229757   5.666   0.723   7.029  0.5452 -0.1670  1.1699
 9727SOL     OW29758   3.555   0.174   8.296 -0.4002  0.0675  0.2520
 9727SOL    HW129759   3.535   0.097   8.242 -0.1344 -0.9462  1.5624
 9727SOL    HW229760   3.562   0.246   8.233 -0.2096 -1.0528 -1.0517
 9728SOL     OW29761   4.280   8.348   0.524 -0.8224  0.5200  0.1085
 9728SOL    HW129762   4.187   8.334   0.506 -0.5459 -0.2475 -0.8364
 9728SOL    HW229763   4.287   8.346   0.619 -1.6762 -0.1346  0.1695
 9729SOL     OW29764   8.511   0.987   3.295 -0.0187 -0.0443  0.7976
 9729SOL    HW129765   8.527   0.965   3.387  1.8071  0.9146  0.7477
 9729SOL    HW229766   8.470   0.909   3.258  0.7492 -1.0671  2.0345
 9730SOL     OW29767   7.317   6.003   4.108 -0.2801  0.0234 -0.4501
 9730SOL    HW129768   7.398   6.048   4.132  0.1940  1.2941 -3.8137
 9730SOL    HW229769   7.248   6.048   4.156  0.7125  1.0476  0.0506
 9731SOL     OW29770   1.226   2.921   5.175 -0.0534 -0.3073 -0.6258
 9731SOL    HW129771   1.173   2.999   5.187  0.2884 -0.1005 -0.4251
 9731SOL    HW229772   1.305   2.952   5.131  0.4979 -0.3730  0.2905
 9732SOL     OW29773   2.299   1.584   0.107 -0.3335 -0.0078  0.2717
 9732SOL    HW129774   2.217   1.634   0.100  0.4502  1.1792 -0.8599
 9732SOL    HW229775   2.354   1.636   0.165  0.2245  0.0743 -0.3227
 9733SOL     OW29776   0.614   5.983   5.432  0.4864 -0.6653 -0.0734
 9733SOL    HW129777   0.583   5.943   5.513 -0.0439 -1.3622 -0.6071
 9733SOL    HW229778   0.702   5.948   5.420  0.4691 -0.7590  0.0678
 9734SOL     OW29779   9.424   0.165   1.041  0.4648  0.3714 -0.0578
 9734SOL    HW129780   9.381   0.207   0.967  0.7854 -2.2293 -1.8771
 9734SOL    HW229781   9.368   0.185   1.116 -2.5957 -0.7011 -1.8423
 9735SOL     OW29782   7.150   0.297   6.836  0.0839 -0.4141  0.3328
 9735SOL    HW129783   7.175   0.347   6.759  0.5462 -2.7817 -1.1832
 9735SOL    HW229784   7.197   0.337   6.909  1.5927  0.3888 -1.0406
 9736SOL     OW29785   8.607   1.333   9.906  0.4981  0.2597 -0.0759
 9736SOL    HW129786   8.643   1.258   9.955  2.8105  0.5183 -1.2231
 9736SOL    HW229787   8.565   1.294   9.829  0.0056  0.0563  0.2905
 9737SOL     OW29788   9.525   6.537   0.452  0.6327 -0.4991  0.0418
 9737SOL    HW129789   9.619   6.544   0.466  0.7307 -1.1808 -0.1962
 9737SOL    HW229790   9.504   6.448   0.480 -0.4064  0.4605  2.5812
 9738SOL     OW29791   3.440   8.838   4.362 -0.3043 -0.0913 -0.0207
 9738SOL    HW129792   3.456   8.926   4.327 -0.9077 -0.4850 -1.3238
 9738SOL    HW229793   3.474   8.842   4.452  1.3174  0.9280 -0.6409
 9739SOL     OW29794   3.520   4.990   7.357  0.1606 -0.1954  0.6945
 9739SOL    HW129795   3.597   5.045   7.350 -1.2992  1.9978  0.9524
 9739SOL    HW229796   3.496   4.969   7.266  0.3382  0.1695  0.5642
 9740SOL     OW29797   0.216   3.758   8.169  0.2321 -0.1534  0.2408
 9740SOL    HW129798   0.149   3.782   8.105 -0.2035 -1.3173  0.2290
 9740SOL    HW229799   0.209   3.663   8.176  1.6887 -0.2689  0.4665
 9741SOL     OW29800   5.150   3.949   7.304  0.1654 -0.0588  0.0027
 9741SOL    HW129801   5.217   3.884   7.281 -0.3583 -0.0691 -1.6070
 9741SOL    HW229802   5.185   4.032   7.270  1.3988  0.8361  3.0943
 9742SOL     OW29803   7.136   4.317   9.899 -0.4804 -0.5281 -0.1490
 9742SOL    HW129804   7.128   4.270   9.816 -0.2847  0.3111 -0.6539
 9742SOL    HW229805   7.207   4.379   9.884 -1.2653  0.4825  0.2294
 9743SOL     OW29806   9.420   1.786   1.517 -0.2197 -0.4879  0.2086
 9743SOL    HW129807   9.375   1.819   1.439  0.3328 -0.8460 -0.2723
 9743SOL    HW229808   9.505   1.754   1.484 -0.4209 -1.6551  0.7728
 9744SOL     OW29809   3.405   9.475   4.737  0.6337 -0.3891  0.2927
 9744SOL    HW129810   3.471   9.430   4.684 -1.2820 -1.8414 -1.0025
 9744SOL    HW229811   3.363   9.406   4.788 -1.8239 -0.0567 -1.1293
 9745SOL     OW29812   9.815   7.949   0.952  0.4964 -0.2989 -0.0521
 9745SOL    HW129813   9.726   7.953   0.986  1.1040  3.3793  1.5836
 9745SOL    HW229814   9.871   7.950   1.030  2.0456 -2.3664 -1.0357
 9746SOL     OW29815   9.924   3.280   7.899 -0.0525 -0.1916 -0.0765
 9746SOL    HW129816   9.935   3.185   7.903 -1.0085 -0.3183 -0.1607
 9746SOL    HW229817   9.850   3.298   7.957  0.6058  0.5999  0.5403
 9747SOL     OW29818   4.440   3.524   9.945 -0.0960 -0.2401 -0.1865
 9747SOL    HW129819   4.369   3.503  10.005 -0.5212 -1.7542 -1.1529
 9747SOL    HW229820   4.397   3.560   9.867  0.2841 -0.1447 -0.3568
 9748SOL     OW29821   3.089   3.385   1.814  0.1092 -0.0163 -0.0551
 9748SOL    HW129822   3.058   3.296   1.833  0.2244 -0.1447 -0.4680
 9748SOL    HW229823   3.182   3.375   1.794 -0.0609  0.0753 -0.9389
 9749SOL     OW29824   6.379   4.967   3.571 -0.1738  0.1631 -0.1560
 9749SOL    HW129825   6.319   5.021   3.520  0.4119  1.5866  0.6128
 9749SOL    HW229826   6.336   4.955   3.656  1.3388  2.7694  1.0877
 9750SOL     OW29827   2.181   4.255   8.792  0.2480  0.1251 -0.4434
 9750SOL    HW129828   2.141   4.342   8.795  3.3001  1.6666 -0.1150
 9750SOL    HW229829   2.177   4.224   8.882 -0.6519 -0.0117 -0.5193
 9751SOL     OW29830   3.815   8.097   1.144 -0.0221 -0.2232  0.2750
 9751SOL    HW129831   3.853   8.078   1.230  0.9359  0.8274  0.1150
 9751SOL    HW229832   3.861   8.176   1.115 -1.1168  0.0807 -0.7188
 9752SOL     OW29833   9.903   9.482   4.907 -0.3859 -0.2518 -0.2764
 9752SOL    HW129834   9.900   9.478   4.811 -2.6678  0.9568 -0.3303
 9752SOL    HW229835   9.971   9.546   4.926  0.6326 -1.0735 -1.0322
 9753SOL     OW29836   7.467   9.820   6.227  0.2454 -0.3837  0.0593
 9753SOL    HW129837   7.393   9.833   6.167  1.0574  0.4705 -0.7864
 9753SOL    HW229838   7.451   9.734   6.266 -1.9521  0.3716  0.9944
 9754SOL     OW29839   1.880   3.718   8.096  0.1571 -0.1506  0.2336
 9754SOL    HW129840   1.885   3.738   8.002  0.9441 -0.8582  0.1156
 9754SOL    HW229841   1.797   3.756   8.124 -1.9381 -2.9760 -1.5341
 9755SOL     OW29842   5.326   5.481   1.039  0.3690  0.2836  0.2658
 9755SOL    HW129843   5.365   5.431   0.967  0.4200 -0.6608  0.9288
 9755SOL    HW229844   5.400   5.522   1.083  0.5906 -0.9717  1.1224
 9756SOL     OW29845   1.175   2.782   6.614  0.1399 -0.4157  0.0857
 9756SOL    HW129846   1.204   2.867   6.580  0.4744 -0.2961  0.6405
 9756SOL    HW229847   1.250   2.724   6.600 -0.2175 -0.7158 -0.6145
 9757SOL     OW29848   7.725   9.847   6.164  0.1614 -0.1260  0.0449
 9757SOL    HW129849   7.634   9.832   6.191  0.5813  0.2962  1.8353
 9757SOL    HW229850   7.762   9.760   6.155 -0.1091 -0.2868  0.4548
 9758SOL     OW29851   6.230   6.325   7.194  0.1500  0.2878 -0.3099
 9758SOL    HW129852   6.222   6.339   7.100 -0.8020 -1.0694 -0.4498
 9758SOL    HW229853   6.144   6.350   7.229  0.2351  0.0134  0.0977
 9759SOL     OW29854   5.605   7.282   2.416 -0.3900  0.4004  0.1541
 9759SOL    HW129855   5.524   7.268   2.367  0.9068 -1.9657 -1.5543
 9759SOL    HW229856   5.666   7.319   2.351 -0.0761  2.2499  1.4300
 9760SOL     OW29857   8.085   9.446   1.983  0.5247 -0.3019  0.6580
 9760SOL    HW129858   8.151   9.514   1.990 -0.9018  1.1828  0.2803
 9760SOL    HW229859   8.055   9.431   2.073 -0.8955  1.4137  0.5216
 9761SOL     OW29860   4.917   3.516   6.552 -0.8639 -0.0915  0.6290
 9761SOL    HW129861   4.921   3.424   6.524 -0.0346  0.5751 -1.6557
 9761SOL    HW229862   4.839   3.550   6.508 -0.5343  0.5548  0.5375
 9762SOL     OW29863   7.445   3.039   1.323 -0.7098  0.0502  0.1581
 9762SOL    HW129864   7.366   2.988   1.342 -0.8559  0.8432  1.8787
 9762SOL    HW229865   7.516   2.992   1.367 -0.5595  0.4001  0.2948
 9763SOL     OW29866   7.217   1.166   9.907  0.0121  0.2122 -0.0118
 9763SOL    HW129867   7.218   1.242   9.849 -0.5813  2.0238  2.1913
 9763SOL    HW229868   7.149   1.187   9.972  2.0325 -0.6534  2.5484
 9764SOL     OW29869   2.806   7.098   1.308  0.3822  0.5688 -0.1784
 9764SOL    HW129870   2.873   7.162   1.286 -1.1816  2.6753  0.8550
 9764SOL    HW229871   2.801   7.100   1.403 -0.5648 -0.1944 -0.1979
 9765SOL     OW29872   2.772   1.757   3.951 -0.6355  0.1480  0.0072
 9765SOL    HW129873   2.721   1.838   3.945 -0.0990  0.4187 -1.1656
 9765SOL    HW229874   2.750   1.708   3.872  0.4432 -0.0077 -0.2153
 9766SOL     OW29875   9.808   6.350   5.506 -0.0607  0.2493  0.0539
 9766SOL    HW129876   9.733   6.330   5.563  0.1476 -0.8911 -0.0579
 9766SOL    HW229877   9.854   6.267   5.496  0.6997  0.7390 -0.6474
 9767SOL     OW29878   1.494   3.797   4.333  0.0217 -0.3286  1.0134
 9767SOL    HW129879   1.573   3.817   4.282 -0.1695  1.9401  1.4963
 9767SOL    HW229880   1.425   3.792   4.267  0.0498  0.9795  0.8479
 9768SOL     OW29881   9.556   2.714   0.134 -0.1130 -0.2095 -0.2891
 9768SOL    HW129882   9.598   2.742   0.053  1.4541  0.2051  0.6149
 9768SOL    HW229883   9.616   2.744   0.203 -0.8982 -1.4180  0.9651
 9769SOL     OW29884   6.975   3.244   7.443  0.2510 -0.3767  0.2602
 9769SOL    HW129885   7.040   3.174   7.435 -0.5093 -1.0403 -0.2663
 9769SOL    HW229886   6.983   3.294   7.361  0.8524  0.2070  0.6728
 9770SOL     OW29887   8.999   2.537   6.940 -0.2767  0.2172 -0.3274
 9770SOL    HW129888   9.028   2.458   6.984  0.6477  1.4952  1.4769
 9770SOL    HW229889   8.909   2.550   6.970 -0.4705 -0.2034 -0.7231
 9771SOL     OW29890   4.748   2.247   8.196  0.3526 -0.8003  0.1015
 9771SOL    HW129891   4.751   2.254   8.100  1.3666  0.2423  0.1862
 9771SOL    HW229892   4.722   2.156   8.212 -2.2412 -0.3578 -1.1392
 9772SOL     OW29893   9.549   8.569   8.279  0.6667 -0.4164 -0.1312
 9772SOL    HW129894   9.528   8.519   8.357 -1.1360 -0.5565 -0.6720
 9772SOL    HW229895   9.531   8.660   8.304  0.7128 -0.3923 -0.1882
 9773SOL     OW29896   8.722   3.435   6.350  0.3957  0.5090  0.0643
 9773SOL    HW129897   8.735   3.503   6.417 -0.4657  1.3304 -0.5858
 9773SOL    HW229898   8.788   3.369   6.372  0.7854  1.2086  1.1433
 9774SOL     OW29899   7.991   3.038   7.145  0.2631  0.1380  0.4590
 9774SOL    HW129900   8.054   2.985   7.194 -2.9716 -2.3804  2.2415
 9774SOL    HW229901   7.961   3.104   7.207 -0.3176  0.0058  0.3259
 9775SOL     OW29902  -0.016   4.699   3.887  0.6126  0.4626  0.1406
 9775SOL    HW129903   0.060   4.756   3.874  1.4328 -0.2904  1.4130
 9775SOL    HW229904   0.020   4.610   3.876 -0.0696  0.0967  0.8423
 9776SOL     OW29905   7.810   0.534   7.742  0.1987 -0.7124 -0.4241
 9776SOL    HW129906   7.831   0.569   7.828  0.4480  1.2176 -1.2143
 9776SOL    HW229907   7.714   0.525   7.742  0.2145 -0.8901  0.1104
 9777SOL     OW29908   5.433   9.979   0.064 -0.6055  0.5806 -0.0070
 9777SOL    HW129909   5.460   9.916   0.131  1.8906  0.1827 -1.2453
 9777SOL    HW229910   5.393   9.926  -0.005  0.6355  0.3932 -0.6249
 9778SOL     OW29911   3.214   8.430   2.735  0.1475  0.9232  0.3586
 9778SOL    HW129912   3.248   8.377   2.663 -0.4607 -0.9584  1.3859
 9778SOL    HW229913   3.135   8.470   2.699  0.3180  0.6933 -0.2884
 9779SOL     OW29914   0.951   0.515   5.558  0.1546 -0.3048 -0.3675
 9779SOL    HW129915   1.040   0.528   5.528 -0.4483 -0.0865 -2.1734
 9779SOL    HW229916   0.913   0.603   5.560 -0.5936 -0.5754 -1.6027
 9780SOL     OW29917   3.054   7.964   6.979 -0.1523  0.1809  0.6825
 9780SOL    HW129918   3.002   8.027   7.030 -1.3024 -0.6130  0.5263
 9780SOL    HW229919   3.040   7.880   7.023 -1.9653 -0.7163 -1.4280
 9781SOL     OW29920   7.594   2.498   6.286  0.0454 -0.0228 -0.1139
 9781SOL    HW129921   7.621   2.492   6.378  0.1998 -0.0092 -0.1570
 9781SOL    HW229922   7.669   2.464   6.237  0.5557  1.3114 -0.3152
 9782SOL     OW29923   2.854   1.382   5.571  0.2453 -0.0214  0.1772
 9782SOL    HW129924   2.905   1.421   5.501 -1.1013 -1.1531 -1.5317
 9782SOL    HW229925   2.819   1.456   5.620 -0.0389  0.8601 -1.3065
 9783SOL     OW29926   5.120   6.760   8.152  0.3043 -0.1625 -0.7809
 9783SOL    HW129927   5.164   6.753   8.068  0.4608 -1.3534 -0.6229
 9783SOL    HW229928   5.029   6.738   8.134  0.3246 -0.3540 -0.6518
 9784SOL     OW29929   4.028   1.780   3.128 -0.4771  0.6194  0.0661
 9784SOL    HW129930   4.024   1.875   3.139 -1.1306  0.6647 -0.5064
 9784SOL    HW229931   4.103   1.753   3.181 -0.8745  1.3365  1.0183
 9785SOL     OW29932   8.179   6.102   4.469 -0.0882 -0.2627  0.0335
 9785SOL    HW129933   8.237   6.175   4.448 -1.0722  0.6216  0.3410
 9785SOL    HW229934   8.238   6.035   4.506  0.8761  0.1920 -0.6187
 9786SOL     OW29935   0.700   7.155   9.142  0.5872  0.0152  0.6411
 9786SOL    HW129936   0.768   7.129   9.081 -0.3667  0.4500 -0.6480
 9786SOL    HW229937   0.619   7.121   9.105  0.0952 -0.7378  2.2837
 9787SOL     OW29938   9.982   6.591   9.486 -0.2648 -0.0475 -0.3951
 9787SOL    HW129939   9.959   6.502   9.461 -1.7282 -0.0991  0.9446
 9787SOL    HW229940   9.943   6.602   9.573  0.4209  1.6949 -0.2650
 9788SOL     OW29941   3.917   1.586   7.376 -0.1727  0.6211  0.1612
 9788SOL    HW129942   3.826   1.568   7.398 -0.1264  1.0317  0.6976
 9788SOL    HW229943   3.914   1.627   7.289 -0.6858  2.5837  1.0565
 9789SOL     OW29944   2.107   5.088   5.488 -0.3746  0.1885 -0.2123
 9789SOL    HW129945   2.142   5.005   5.455 -1.8727 -0.1032 -1.1191
 9789SOL    HW229946   2.124   5.085   5.582  0.7509 -0.5568 -0.4221
 9790SOL     OW29947   5.776   5.087   9.731  0.5037  0.0036  0.2763
 9790SOL    HW129948   5.764   5.182   9.737  0.3905  0.2279 -2.3614
 9790SOL    HW229949   5.866   5.076   9.698  0.1159 -0.7322 -0.5719
 9791SOL     OW29950   6.268   3.489   4.183 -0.2037 -0.4912  0.1394
 9791SOL    HW129951   6.247   3.490   4.277 -0.2354 -0.1049  0.1296
 9791SOL    HW229952   6.364   3.486   4.180 -0.2177 -1.0518  0.1828
 9792SOL     OW29953   4.328   5.366   1.386 -0.3464  0.3928 -0.1082
 9792SOL    HW129954   4.245   5.407   1.410 -1.2351 -0.2382 -1.9071
 9792SOL    HW229955   4.322   5.278   1.422 -0.3892  0.4006 -0.0954
 9793SOL     OW29956   8.985   1.990   3.052  0.2976 -0.2269 -0.4734
 9793SOL    HW129957   9.046   2.049   3.008  1.8476 -0.6995  0.9568
 9793SOL    HW229958   8.919   1.970   2.985  2.1444 -0.3613 -2.3674
 9794SOL     OW29959   0.715   5.710   5.155 -0.3895 -0.2963 -0.3873
 9794SOL    HW129960   0.654   5.702   5.082 -0.2626 -0.6543 -0.4549
 9794SOL    HW229961   0.660   5.700   5.233 -0.9256  2.4084 -0.3305
 9795SOL     OW29962   7.159   9.896   0.276  0.3982 -0.1471  0.7036
 9795SOL    HW129963   7.184   9.820   0.222  0.1128  0.1905  0.0822
 9795SOL    HW229964   7.093   9.862   0.336 -0.7532 -0.1046 -0.4931
 9796SOL     OW29965   7.658   9.004   9.175  0.0520 -0.3128  0.1607
 9796SOL    HW129966   7.605   8.978   9.100 -0.9112  1.6856  0.0786
 9796SOL    HW229967   7.603   8.988   9.251  0.1578 -0.2282  0.2557
 9797SOL     OW29968   4.867   0.433   7.873 -0.3109  0.2104  0.3017
 9797SOL    HW129969   4.922   0.452   7.797 -0.6519 -0.0310 -0.0062
 9797SOL    HW229970   4.809   0.508   7.880 -1.9067 -0.8159 -1.1357
 9798SOL     OW29971   5.899   7.402   0.055 -0.6377 -0.0534  0.4231
 9798SOL    HW129972   5.879   7.496   0.057  1.5095  0.4574  2.1856
 9798SOL    HW229973   5.918   7.383  -0.037 -0.2386  1.4425  0.1739
 9799SOL     OW29974   3.909   5.302   0.492  0.2672 -0.2810 -0.6526
 9799SOL    HW129975   3.940   5.213   0.511  0.1291 -0.2542 -0.2887
 9799SOL    HW229976   3.865   5.294   0.408 -0.7172 -0.7977 -0.1078
 9800SOL     OW29977   0.731   8.665   6.251 -0.6794  0.1237 -0.8466
 9800SOL    HW129978   0.773   8.580   6.266 -0.3611  0.1459 -1.5498
 9800SOL    HW229979   0.737   8.711   6.335 -1.4457 -0.7936 -0.2743
 9801SOL     OW29980   6.279   2.403   4.478 -0.4016 -0.1596  0.4508
 9801SOL    HW129981   6.206   2.394   4.416  0.9081  1.6828 -1.4657
 9801SOL    HW229982   6.350   2.353   4.438  0.1129  0.0619  1.0862
 9802SOL     OW29983   3.302   7.316   8.099 -0.0107 -0.5699  0.0428
 9802SOL    HW129984   3.311   7.305   8.194 -1.0999  0.5261  0.2944
 9802SOL    HW229985   3.211   7.295   8.081 -0.1951  0.6323 -0.5310
 9803SOL     OW29986   3.569   9.587   8.402  0.0802  0.0819 -0.2977
 9803SOL    HW129987   3.657   9.624   8.404  0.0650  0.3391 -2.4531
 9803SOL    HW229988   3.583   9.495   8.377 -0.2962  0.4048 -1.7851
 9804SOL     OW29989   0.795   1.688   6.487  0.0035  0.0314  0.2855
 9804SOL    HW129990   0.862   1.669   6.423  1.3095  0.2441  1.5367
 9804SOL    HW229991   0.836   1.670   6.572 -1.9729 -1.1931  1.0481
 9805SOL     OW29992   8.392   1.302   3.873  0.9549  0.1719  0.3131
 9805SOL    HW129993   8.345   1.264   3.948 -2.3418 -0.2512 -1.7805
 9805SOL    HW229994   8.396   1.395   3.893 -1.6672  0.3809  0.3064
 9806SOL     OW29995   9.108   1.858   2.332  0.1640 -0.4731  0.2717
 9806SOL    HW129996   9.105   1.907   2.413 -1.7603  0.4316 -0.2995
 9806SOL    HW229997   9.102   1.766   2.359  2.9331 -0.4454  1.2887
 9807SOL     OW29998   6.632   6.591   3.678  0.4004  0.4658  0.5923
 9807SOL    HW129999   6.713   6.551   3.648  1.4427  0.3479  3.3166
 9807SOL    HW230000   6.571   6.518   3.689  0.5983  0.2864  0.4978
 9808SOL     OW30001   2.739   5.012   8.559  0.8681 -0.3036  0.1658
 9808SOL    HW130002   2.698   5.097   8.578  0.7273 -0.3595  0.1163
 9808SOL    HW230003   2.768   5.019   8.468 -0.4041 -0.7997 -0.3067
 9809SOL     OW30004   7.845   4.610   0.422  0.0384 -0.5214  0.4012
 9809SOL    HW130005   7.878   4.545   0.360  3.1971  1.1113  0.1929
 9809SOL    HW230006   7.817   4.684   0.368 -2.6944 -1.2370  0.6875
 9810SOL     OW30007   6.113   8.464   8.563  0.6205  0.0713 -0.8437
 9810SOL    HW130008   6.122   8.427   8.651  0.0726 -0.3156 -0.9447
 9810SOL    HW230009   6.139   8.393   8.504  2.7271  0.8867 -0.9661
 9811SOL     OW30010   5.686   6.476   5.376 -0.1900  0.4043 -0.3028
 9811SOL    HW130011   5.697   6.459   5.469  0.1954 -1.1001 -0.5941
 9811SOL    HW230012   5.592   6.462   5.360  0.0180 -1.0478 -0.4225
 9812SOL     OW30013   9.919   6.935   3.282  0.0265 -0.0558  0.1627
 9812SOL    HW130014   9.980   6.898   3.346  0.4883  1.0921  0.4042
 9812SOL    HW230015   9.848   6.871   3.277  1.8442 -2.1326 -1.1230
 9813SOL     OW30016   4.126   3.653   0.399 -0.2016  0.0262  1.0210
 9813SOL    HW130017   4.161   3.672   0.487 -0.8078  0.6936  1.1337
 9813SOL    HW230018   4.053   3.714   0.390 -0.8652 -0.8304  0.4975
 9814SOL     OW30019   9.846   1.215   7.028  0.6255  0.1180 -0.0379
 9814SOL    HW130020   9.940   1.211   7.012  0.9340 -2.3350  1.8372
 9814SOL    HW230021   9.813   1.132   6.993 -0.8619  0.9085 -0.5845
 9815SOL     OW30022   5.570   1.464   9.267  0.1919 -0.1266  0.2465
 9815SOL    HW130023   5.648   1.476   9.212 -0.0950  2.3067  0.2597
 9815SOL    HW230024   5.558   1.369   9.270  3.9315 -0.7597  1.3544
 9816SOL     OW30025   8.304   6.947   3.708 -0.3435  0.2317  0.5045
 9816SOL    HW130026   8.328   6.900   3.788  0.7063  1.0832  0.6991
 9816SOL    HW230027   8.244   7.016   3.737  1.0472  1.3619  0.7655
 9817SOL     OW30028   0.349   2.885   5.958 -0.1532 -0.2326  1.1355
 9817SOL    HW130029   0.279   2.918   6.015  0.1998 -0.3388  1.6415
 9817SOL    HW230030   0.408   2.840   6.018  0.7304  0.4845  0.8161
 9818SOL     OW30031   0.889   6.964   5.909 -0.5182 -0.2926  0.2363
 9818SOL    HW130032   0.961   6.973   5.971 -0.5814  0.0523  0.2592
 9818SOL    HW230033   0.866   7.054   5.886  0.1199 -0.4238 -0.9912
 9819SOL     OW30034   1.122   1.432   0.933 -0.1894  0.5299 -0.0094
 9819SOL    HW130035   1.108   1.341   0.958 -0.6824  0.7267  0.4527
 9819SOL    HW230036   1.059   1.481   0.985  0.6428  1.2212  0.3776
 9820SOL     OW30037   9.582   0.519   7.852  0.1632  0.1491 -0.4029
 9820SOL    HW130038   9.673   0.503   7.828  0.5702  1.3738  0.2569
 9820SOL    HW230039   9.574   0.489   7.942 -0.3430 -0.8242 -0.7590
 9821SOL     OW30040   5.605   6.556   9.804  0.3691 -0.4809  0.2401
 9821SOL    HW130041   5.573   6.574   9.716  0.1767 -0.8381  0.2373
 9821SOL    HW230042   5.699   6.541   9.792  0.3925 -0.2598  0.1350
 9822SOL     OW30043   9.288   6.508   8.493  0.0203  0.1585 -0.4292
 9822SOL    HW130044   9.248   6.589   8.464  2.1836  1.7226  0.6373
 9822SOL    HW230045   9.357   6.536   8.554  1.2236 -2.4407 -0.4530
 9823SOL     OW30046   8.211   0.279   2.081  0.3530 -0.0837  0.2120
 9823SOL    HW130047   8.129   0.238   2.106  0.6097 -1.1540 -0.6244
 9823SOL    HW230048   8.217   0.357   2.137 -1.4499  0.2944 -0.0681
 9824SOL     OW30049   6.628   7.015   8.106 -0.4215  0.2366  0.2261
 9824SOL    HW130050   6.658   6.937   8.154 -1.7453 -0.5626 -0.2066
 9824SOL    HW230051   6.698   7.079   8.120  0.1625 -0.6295  1.5621
 9825SOL     OW30052   8.880   8.936   7.077  0.0056 -0.5837 -0.0124
 9825SOL    HW130053   8.896   9.006   7.014 -0.2355  0.3971  0.9783
 9825SOL    HW230054   8.960   8.884   7.077  0.1389 -0.3844 -0.8630
 9826SOL     OW30055   9.468   4.638   6.073  0.2657  0.3359 -0.0541
 9826SOL    HW130056   9.475   4.701   6.145  0.0950  1.8601 -1.3262
 9826SOL    HW230057   9.527   4.567   6.098 -1.2520 -0.1887  2.5356
 9827SOL     OW30058   0.916   5.779   7.351 -0.3837  0.1787 -0.3915
 9827SOL    HW130059   0.974   5.704   7.341  0.3236  0.4679  1.1955
 9827SOL    HW230060   0.958   5.849   7.301  1.7770  0.9383  2.2412
 9828SOL     OW30061   6.539   7.260   7.972 -0.1782  0.6015 -0.1581
 9828SOL    HW130062   6.511   7.337   8.021  0.3878  1.2040 -0.7604
 9828SOL    HW230063   6.536   7.188   8.035 -0.0300  1.2448  0.5936
 9829SOL     OW30064   9.407   4.051   8.228  0.0414 -0.4718  0.2220
 9829SOL    HW130065   9.441   4.056   8.317 -0.1147 -0.7016  0.2965
 9829SOL    HW230066   9.396   3.957   8.212  1.7856 -0.5544 -0.7097
 9830SOL     OW30067   4.754   2.621   3.672 -0.1878  0.1982 -0.0243
 9830SOL    HW130068   4.845   2.631   3.644 -0.0068  0.9601  0.7806
 9830SOL    HW230069   4.708   2.591   3.593  0.4233  1.6056 -0.9599
 9831SOL     OW30070   4.761   1.140   0.956  0.3437 -0.1506 -0.4958
 9831SOL    HW130071   4.852   1.126   0.929 -0.0881 -2.5918 -0.9236
 9831SOL    HW230072   4.721   1.185   0.881  1.0505  0.3850 -0.5586
 9832SOL     OW30073   0.883   6.626   7.908  0.2644  0.1096 -0.7911
 9832SOL    HW130074   0.940   6.557   7.942  0.2259 -0.0742 -1.0913
 9832SOL    HW230075   0.925   6.707   7.935  0.4348 -0.0305 -0.6316
 9833SOL     OW30076   1.106   0.824   8.082 -0.3622 -1.0075 -0.4930
 9833SOL    HW130077   1.126   0.731   8.067  0.6755 -0.7211 -0.9678
 9833SOL    HW230078   1.191   0.866   8.090 -0.8236 -0.0996 -0.2054
 9834SOL     OW30079   7.156   7.721   8.117  0.0612  0.3370  0.2212
 9834SOL    HW130080   7.142   7.672   8.036  1.1091  0.9402 -0.3416
 9834SOL    HW230081   7.072   7.763   8.134 -0.6046 -0.9706  0.2617
 9835SOL     OW30082   3.157   9.131   4.221 -0.4116  0.0397 -0.2816
 9835SOL    HW130083   3.150   9.226   4.213 -1.5984  0.0998  0.9274
 9835SOL    HW230084   3.098   9.097   4.154  0.4898  0.1234 -1.1324
 9836SOL     OW30085   3.339   0.634   3.151  0.0312 -0.2284  0.1069
 9836SOL    HW130086   3.392   0.655   3.074  1.1948  1.3014  1.2475
 9836SOL    HW230087   3.342   0.539   3.158  2.7748 -0.2258  0.1562
 9837SOL     OW30088   3.434   0.696   9.156 -0.5867  0.3622  0.7277
 9837SOL    HW130089   3.358   0.638   9.149 -1.2518  1.3880 -2.3211
 9837SOL    HW230090   3.408   0.776   9.109  2.2677  0.8208 -0.3183
 9838SOL     OW30091   2.668   2.261   3.530 -0.0678 -0.1024  0.5599
 9838SOL    HW130092   2.609   2.202   3.576 -0.5551  1.5233  2.1218
 9838SOL    HW230093   2.613   2.304   3.465 -1.1138  2.4932  2.9788
 9839SOL     OW30094   5.165   7.480   2.775  0.6826 -0.3485  0.4153
 9839SOL    HW130095   5.188   7.416   2.842  1.2691  0.3986  0.9384
 9839SOL    HW230096   5.187   7.564   2.813 -1.0648  0.2670  0.1480
 9840SOL     OW30097   0.981   0.360   7.054 -0.1364 -0.4022  0.6173
 9840SOL    HW130098   1.067   0.378   7.091  0.4136 -1.8432  0.1123
 9840SOL    HW230099   0.968   0.266   7.068 -1.6572 -0.2023  0.7282
 9841SOL     OW30100   8.538   3.658   8.966 -0.0878  0.0527  0.1758
 9841SOL    HW130101   8.529   3.640   9.060 -1.1053  2.9614  0.7417
 9841SOL    HW230102   8.451   3.686   8.939 -0.6988 -3.7974 -2.5244
 9842SOL     OW30103   8.428   8.024   7.837  0.0492  0.1699 -0.1679
 9842SOL    HW130104   8.447   8.053   7.926 -2.6411  4.0866 -0.6116
 9842SOL    HW230105   8.499   8.061   7.784  0.2610  0.0607  0.0368
 9843SOL     OW30106   4.663   4.897   6.815  0.0171 -0.5965  0.4820
 9843SOL    HW130107   4.680   4.989   6.796 -3.2721 -0.0078 -0.2863
 9843SOL    HW230108   4.642   4.894   6.908  1.9578 -0.9694  0.9510
 9844SOL     OW30109   3.540   0.402   1.857  0.3205 -0.4061 -0.0075
 9844SOL    HW130110   3.588   0.436   1.932  1.9957 -0.9478 -0.7835
 9844SOL    HW230111   3.584   0.320   1.835 -0.0876 -0.2476 -1.5931
 9845SOL     OW30112   7.092   5.013   0.331  0.0517  0.2447 -0.3195
 9845SOL    HW130113   7.111   4.972   0.246 -0.6634  0.6626 -0.6906
 9845SOL    HW230114   7.066   4.941   0.388  3.3940 -0.5116  0.4680
 9846SOL     OW30115  -0.015   4.925   2.420 -0.0312 -0.0571  0.2700
 9846SOL    HW130116  -0.008   4.890   2.509 -0.0022  0.8133  0.6197
 9846SOL    HW230117   0.076   4.943   2.394  0.1102 -1.8448 -0.5824
 9847SOL     OW30118   7.875   6.924   1.524  0.1299 -0.4396  0.0773
 9847SOL    HW130119   7.905   6.985   1.457 -0.4549  0.3638  0.5278
 9847SOL    HW230120   7.782   6.911   1.506  0.1892 -0.9980  0.1422
 9848SOL     OW30121   5.375   3.316   2.466 -0.1471 -0.1540 -0.0444
 9848SOL    HW130122   5.295   3.317   2.518  0.7202 -1.6469  1.4095
 9848SOL    HW230123   5.443   3.346   2.526  0.8351 -1.6120 -0.3969
 9849SOL     OW30124   8.687   3.287   0.208 -0.5484 -0.2839  0.0971
 9849SOL    HW130125   8.656   3.204   0.172 -0.1430 -1.3104  2.0157
 9849SOL    HW230126   8.743   3.262   0.281  0.5834  1.6697 -0.0502
 9850SOL     OW30127   0.941   8.825   4.331  0.5502 -0.4349  0.3110
 9850SOL    HW130128   0.922   8.897   4.270 -0.6686 -0.6001  0.4699
 9850SOL    HW230129   1.024   8.788   4.300 -0.4401 -1.0408 -1.7464
 9851SOL     OW30130   5.650   4.952   7.494 -0.4257  0.1957  0.0851
 9851SOL    HW130131   5.692   4.974   7.577  1.8079 -1.3805 -0.5574
 9851SOL    HW230132   5.664   5.030   7.439 -1.0139  0.8362  0.8057
 9852SOL     OW30133   0.134   8.111   0.084 -0.4483 -0.3711 -0.2468
 9852SOL    HW130134   0.168   8.098  -0.004 -0.3013 -1.2523 -0.0670
 9852SOL    HW230135   0.156   8.030   0.131 -2.2470 -0.7323  0.0400
 9853SOL     OW30136   0.128   6.538   4.783 -0.2978 -0.3635  0.2018
 9853SOL    HW130137   0.155   6.534   4.874 -0.3548 -2.3503  0.1811
 9853SOL    HW230138   0.063   6.468   4.774 -1.1660  0.5558 -1.1019
 9854SOL     OW30139   4.929   9.075   1.443  0.5312  0.4743 -0.1154
 9854SOL    HW130140   4.988   9.061   1.517 -1.0161  1.8019  1.4617
 9854SOL    HW230141   4.943   9.166   1.418  0.1397  0.3891 -0.6673
 9855SOL     OW30142   9.253   8.299   3.134 -0.1356  0.3172 -0.2669
 9855SOL    HW130143   9.240   8.258   3.219 -0.5052 -0.8311 -0.8579
 9855SOL    HW230144   9.171   8.286   3.087  0.8451 -1.2354 -1.6661
 9856SOL     OW30145   1.601   7.950   2.738  0.0159 -0.2687  0.1217
 9856SOL    HW130146   1.661   7.879   2.758  0.9975  0.5955  0.3430
 9856SOL    HW230147   1.514   7.912   2.750  0.5136 -1.4062  0.2777
 9857SOL     OW30148   3.861   3.530   1.883 -0.1897  0.3428  0.7829
 9857SOL    HW130149   3.812   3.598   1.929 -0.0338  0.9818  0.0324
 9857SOL    HW230150   3.950   3.564   1.877  0.0836 -0.2961  1.1146
 9858SOL     OW30151   8.400   8.543   3.560  0.1624 -0.0127  0.5344
 9858SOL    HW130152   8.404   8.603   3.635  0.8035  2.4448 -1.3401
 9858SOL    HW230153   8.488   8.547   3.522 -0.4268 -0.4457 -0.9078
 9859SOL     OW30154   3.925   7.740   4.821  0.0981  0.0789  0.1042
 9859SOL    HW130155   3.906   7.775   4.908  0.3442 -0.2688  0.3037
 9859SOL    HW230156   3.877   7.658   4.817  0.9748 -0.4669  0.3526
 9860SOL     OW30157   5.519   0.081   3.263 -0.2644 -0.2878  0.5497
 9860SOL    HW130158   5.433   0.040   3.253 -1.6843  2.7240 -1.1326
 9860SOL    HW230159   5.550   0.095   3.173  1.4166 -0.1927  1.1103
 9861SOL     OW30160   6.851   2.113   1.259 -0.0212 -0.6024  0.0929
 9861SOL    HW130161   6.773   2.071   1.296 -1.1271  0.6645 -0.7178
 9861SOL    HW230162   6.831   2.207   1.261  1.2996 -0.2798 -0.5671
 9862SOL     OW30163   2.234   5.975   8.823  0.0898  0.1724  0.5970
 9862SOL    HW130164   2.228   6.011   8.735 -0.4997 -0.2446  0.4630
 9862SOL    HW230165   2.326   5.984   8.846  0.2645  0.2022 -0.0901
 9863SOL     OW30166   0.767   8.771   0.557  0.8987 -0.1418  0.4359
 9863SOL    HW130167   0.688   8.724   0.583  1.0259 -0.3421  0.4602
 9863SOL    HW230168   0.826   8.703   0.525  1.5595 -0.1530  1.6335
 9864SOL     OW30169   6.733   5.876   7.307  0.8261 -0.1503 -0.0526
 9864SOL    HW130170   6.768   5.931   7.237 -0.0846 -0.8676 -1.1025
 9864SOL    HW230171   6.744   5.928   7.386 -0.2937  1.6981 -1.0363
 9865SOL     OW30172   8.355   5.872   0.801 -0.3894  0.1022 -0.5787
 9865SOL    HW130173   8.280   5.910   0.756  0.1048 -2.0691 -3.5283
 9865SOL    HW230174   8.431   5.920   0.767 -0.1048 -0.7168 -1.1331
 9866SOL     OW30175   6.246   6.176   2.754  0.2857 -0.3966  0.0503
 9866SOL    HW130176   6.262   6.166   2.848  0.2730 -0.4931  0.0427
 9866SOL    HW230177   6.166   6.227   2.749  1.4678  1.5692  0.0876
 9867SOL     OW30178   6.111   6.761   2.108 -0.1354  0.1861 -0.7251
 9867SOL    HW130179   6.070   6.811   2.179 -0.2105 -1.1891  0.2333
 9867SOL    HW230180   6.182   6.817   2.077 -1.3495  1.6634 -0.9391
 9868SOL     OW30181   2.834   6.963   5.952 -0.0071 -0.0656  0.3630
 9868SOL    HW130182   2.797   6.902   5.888  0.5100 -1.0466  0.9592
 9868SOL    HW230183   2.893   7.019   5.901  0.8548 -1.2170  0.0409
 9869SOL     OW30184   0.254   4.766   0.124  0.4941  0.1226 -0.7081
 9869SOL    HW130185   0.274   4.700   0.058 -0.4907 -0.8098 -0.1118
 9869SOL    HW230186   0.270   4.850   0.081  0.6211 -0.4815 -1.8646
 9870SOL     OW30187   1.424   8.044   6.701 -0.0931  0.3984 -0.4222
 9870SOL    HW130188   1.449   8.070   6.789  1.2530  0.3910 -0.7729
 9870SOL    HW230189   1.464   7.958   6.689 -1.0538 -0.0210 -0.7144
 9871SOL     OW30190   3.254   6.673   2.485 -0.0256 -0.1145 -0.2048
 9871SOL    HW130191   3.223   6.749   2.534 -0.2801  0.0702 -0.6508
 9871SOL    HW230192   3.349   6.671   2.503 -0.2776 -0.7106  1.1983
 9872SOL     OW30193   3.422   8.030   0.649 -0.3556  0.2213 -0.2095
 9872SOL    HW130194   3.413   8.046   0.555  1.3117 -0.3714 -0.4992
 9872SOL    HW230195   3.393   7.940   0.661  0.3463 -0.0258 -0.3272
 9873SOL     OW30196   8.141   3.269   7.874  0.2150  0.0532  0.2574
 9873SOL    HW130197   8.075   3.287   7.940  1.4204  1.8130  1.0575
 9873SOL    HW230198   8.182   3.187   7.901  1.3465  1.2290  2.3001
 9874SOL     OW30199   6.545   9.599   9.252 -0.2419  0.5733 -0.0034
 9874SOL    HW130200   6.527   9.657   9.178 -0.6184  0.9715  0.3964
 9874SOL    HW230201   6.459   9.572   9.283 -0.0683 -1.1657 -0.9130
 9875SOL     OW30202   7.922   6.875   7.020  0.2723 -0.3993 -0.3805
 9875SOL    HW130203   7.902   6.782   7.024  0.6443 -0.5007 -0.7989
 9875SOL    HW230204   7.969   6.893   7.102 -1.6986 -0.0941  0.7524
 9876SOL     OW30205   8.707   8.315   3.747  0.1400  0.0050 -0.1829
 9876SOL    HW130206   8.797   8.349   3.746 -0.4427  1.6327 -0.3998
 9876SOL    HW230207   8.712   8.235   3.695  1.5621 -0.2098  0.2371
 9877SOL     OW30208   5.038   8.849   2.775  0.0387  0.7371  0.3954
 9877SOL    HW130209   5.132   8.865   2.783  0.4327 -1.7556  1.6149
 9877SOL    HW230210   5.005   8.855   2.865 -0.8926  1.0496  0.0509
 9878SOL     OW30211   6.894   6.072   9.550 -0.4801 -0.5996  0.1399
 9878SOL    HW130212   6.915   6.112   9.635  0.3399 -1.0473  0.1502
 9878SOL    HW230213   6.970   6.018   9.529 -0.1595  0.4116 -1.4396
 9879SOL     OW30214   7.063   1.124   8.989 -0.1234  0.4364  0.0201
 9879SOL    HW130215   7.014   1.137   8.907 -0.2232 -0.9726 -0.1587
 9879SOL    HW230216   7.119   1.202   8.995  0.6313  0.1120 -1.9293
 9880SOL     OW30217   4.874   0.811   5.205 -0.3035  0.1875  0.1165
 9880SOL    HW130218   4.957   0.855   5.225 -1.4403  1.8612  1.3739
 9880SOL    HW230219   4.898   0.744   5.141  2.2743 -0.4841  1.6707
 9881SOL     OW30220   1.365   9.108   4.407  0.1758 -0.2520 -0.6417
 9881SOL    HW130221   1.288   9.079   4.455  0.7101  0.3162  0.5797
 9881SOL    HW230222   1.331   9.130   4.319 -1.3118  1.2723  0.2466
 9882SOL     OW30223   6.411   5.759   7.023 -0.5149  0.6494 -0.0612
 9882SOL    HW130224   6.377   5.733   6.937 -2.4688  2.0617  0.2214
 9882SOL    HW230225   6.433   5.676   7.066  1.4405 -0.0575 -2.2156
 9883SOL     OW30226   3.248   0.319   7.446 -0.0230 -0.4101  0.1764
 9883SOL    HW130227   3.224   0.253   7.512 -0.3087 -0.9515 -0.4543
 9883SOL    HW230228   3.213   0.401   7.480  0.4104 -0.5650  1.0157
 9884SOL     OW30229   4.619   2.351   8.418  0.6741  0.8011 -0.3580
 9884SOL    HW130230   4.538   2.305   8.397  0.6772  0.7268 -0.2102
 9884SOL    HW230231   4.671   2.346   8.339  0.5412  0.8329 -0.4481
 9885SOL     OW30232   8.428   0.668   4.838  0.3650 -0.2386  0.0897
 9885SOL    HW130233   8.511   0.630   4.808  0.1577  1.1961 -2.6310
 9885SOL    HW230234   8.450   0.707   4.923  2.1390 -0.9846  0.0315
 9886SOL     OW30235   1.297   6.378   0.645 -0.8807  0.0249 -0.1723
 9886SOL    HW130236   1.272   6.431   0.569 -1.0708  0.3439  0.1084
 9886SOL    HW230237   1.269   6.430   0.720 -2.4309 -1.1110  0.0954
 9887SOL     OW30238   6.387   4.347   9.242 -0.1734  0.6854 -0.0474
 9887SOL    HW130239   6.430   4.294   9.310 -0.3599 -0.1602 -0.5787
 9887SOL    HW230240   6.457   4.402   9.207  0.1696  0.3260  0.0635
 9888SOL     OW30241   8.271   7.748   3.080 -0.0060  0.2438 -0.4945
 9888SOL    HW130242   8.183   7.714   3.066 -0.7768  1.9810 -0.2231
 9888SOL    HW230243   8.298   7.713   3.165 -0.3158 -0.5071 -0.7037
 9889SOL     OW30244   7.690   2.494   3.314  0.3460  0.0628 -0.1357
 9889SOL    HW130245   7.644   2.568   3.352  1.0586  1.0603 -1.1429
 9889SOL    HW230246   7.774   2.491   3.360  0.8321  0.6940 -0.9551
 9890SOL     OW30247   2.343   4.902   8.274  0.0759  0.0537  0.3116
 9890SOL    HW130248   2.260   4.901   8.321 -1.4309  1.3535 -2.1001
 9890SOL    HW230249   2.369   4.994   8.273  1.1021 -0.2179  0.2477
 9891SOL     OW30250   5.639   5.109   6.815 -0.5831 -0.1108  0.0885
 9891SOL    HW130251   5.561   5.091   6.869  0.1435  1.1496  1.6157
 9891SOL    HW230252   5.642   5.204   6.808  1.0893 -0.1150  0.4531
 9892SOL     OW30253   2.422   7.582   4.359 -0.5879  0.2204  0.0335
 9892SOL    HW130254   2.360   7.524   4.403  1.1279 -2.4458 -0.8234
 9892SOL    HW230255   2.371   7.624   4.289 -1.5586 -1.5781 -0.3889
 9893SOL     OW30256   8.562   8.449   9.799 -0.5451 -0.2956  0.1346
 9893SOL    HW130257   8.587   8.457   9.891  0.0888 -0.4173 -0.0241
 9893SOL    HW230258   8.628   8.390   9.761 -0.1801  0.5977 -0.6442
 9894SOL     OW30259   3.996   4.328   4.385 -0.4433 -0.4759 -0.3630
 9894SOL    HW130260   4.069   4.275   4.354 -0.4735 -0.7810  0.0808
 9894SOL    HW230261   4.010   4.414   4.345 -0.4729 -0.8528 -1.2017
 9895SOL     OW30262   5.522   3.449   6.675 -0.1320  0.1340 -0.0263
 9895SOL    HW130263   5.573   3.435   6.595  1.7089  0.9151  0.9469
 9895SOL    HW230264   5.501   3.361   6.706  1.4440 -0.2428  0.0365
 9896SOL     OW30265   7.369   3.396   7.250 -0.1795  0.0362 -0.0214
 9896SOL    HW130266   7.463   3.391   7.266  0.1775  1.8344 -1.3104
 9896SOL    HW230267   7.349   3.320   7.195  0.6908  0.1379 -0.4870
 9897SOL     OW30268   3.605   6.826   0.804  0.7594 -0.1374 -0.4073
 9897SOL    HW130269   3.669   6.873   0.858  0.4611  0.9002 -0.9132
 9897SOL    HW230270   3.580   6.890   0.737  1.5062 -1.5432 -2.0925
 9898SOL     OW30271   0.456   8.452   9.406  0.0697 -0.4426 -0.1655
 9898SOL    HW130272   0.463   8.448   9.501  0.4383 -0.6867 -0.2013
 9898SOL    HW230273   0.372   8.411   9.386 -0.3949  0.3615  0.1101
 9899SOL     OW30274   9.810   3.413   6.312  0.4706  0.4690 -0.0881
 9899SOL    HW130275   9.720   3.441   6.330  0.6381  1.0177 -0.0904
 9899SOL    HW230276   9.829   3.350   6.382 -0.9118 -1.9383 -1.7278
 9900SOL     OW30277   1.042   9.056   4.489  0.1522  0.1661 -0.0095
 9900SOL    HW130278   0.995   9.035   4.409 -1.6670 -0.2134  1.0999
 9900SOL    HW230279   1.071   9.147   4.477  0.1757  0.0037 -1.2079
 9901SOL     OW30280   5.093   2.696   7.916  0.7296 -0.8849 -0.5960
 9901SOL    HW130281   5.155   2.708   7.844 -0.1686  0.0930 -1.2420
 9901SOL    HW230282   5.098   2.602   7.937  2.7936 -0.7262 -0.2540
 9902SOL     OW30283   9.207   4.978   8.951  0.2692  0.4947  0.1344
 9902SOL    HW130284   9.136   4.918   8.929 -0.4886 -0.0523  3.5273
 9902SOL    HW230285   9.167   5.064   8.955  0.4978  0.6566 -0.9564
 9903SOL     OW30286   3.865   5.577   7.139 -0.0752  0.1293  0.0728
 9903SOL    HW130287   3.783   5.590   7.090  0.3104  0.4901 -0.4951
 9903SOL    HW230288   3.932   5.568   7.071  0.5834  1.3158  0.5309
 9904SOL     OW30289   1.999   2.566   7.809  0.0851 -0.3461  0.1598
 9904SOL    HW130290   2.050   2.508   7.752 -0.3711  0.7973 -1.4642
 9904SOL    HW230291   1.920   2.585   7.759 -0.4894  0.4205  1.3330
 9905SOL     OW30292   8.447   6.860   1.902  0.2209  0.5753 -0.0650
 9905SOL    HW130293   8.389   6.849   1.977 -0.1468  0.9587 -0.2884
 9905SOL    HW230294   8.519   6.798   1.918 -0.9731 -1.0128 -0.4993
 9906SOL     OW30295   9.172   2.478   9.460 -0.7557 -0.1569  0.3108
 9906SOL    HW130296   9.158   2.567   9.494 -1.9268 -1.1871  2.7830
 9906SOL    HW230297   9.225   2.436   9.528 -1.9170 -1.9062  0.1786
 9907SOL     OW30298   6.483   2.500   4.945 -0.0828 -0.0325  0.2569
 9907SOL    HW130299   6.474   2.468   4.855 -0.0028 -0.1228  0.2821
 9907SOL    HW230300   6.458   2.427   5.000  0.9043 -0.3297  0.3350
 9908SOL     OW30301   3.460   6.184   3.661 -0.0413 -0.1239 -0.2410
 9908SOL    HW130302   3.542   6.135   3.665 -0.3469 -0.7902 -1.5400
 9908SOL    HW230303   3.407   6.137   3.596 -1.5050  0.2175  0.6510
 9909SOL     OW30304   5.192   7.395   1.102 -0.1036  0.0808 -0.0452
 9909SOL    HW130305   5.240   7.471   1.069 -1.5334  1.3326  0.6456
 9909SOL    HW230306   5.113   7.392   1.049 -0.6302 -0.1858  0.7429
 9910SOL     OW30307   6.222   3.478   1.829 -0.1915 -0.0531  0.2983
 9910SOL    HW130308   6.187   3.391   1.809  1.6350 -1.0255  1.0478
 9910SOL    HW230309   6.153   3.538   1.805 -0.2150 -1.4153 -3.6860
 9911SOL     OW30310   5.598   7.523   4.397  0.0838 -0.7531 -0.2550
 9911SOL    HW130311   5.668   7.588   4.395 -1.9647  1.6265 -0.6407
 9911SOL    HW230312   5.554   7.539   4.481  0.3267 -2.6288  0.2663
 9912SOL     OW30313   1.993   1.369   6.556 -0.4760  0.3480 -0.2323
 9912SOL    HW130314   2.018   1.448   6.508 -0.6353  1.6707  1.7173
 9912SOL    HW230315   1.910   1.343   6.518 -1.1127  1.9655 -0.0543
 9913SOL     OW30316   5.235   5.665   1.254 -0.1205  0.6462 -0.4272
 9913SOL    HW130317   5.314   5.616   1.277 -0.6428 -0.9156 -1.6852
 9913SOL    HW230318   5.228   5.733   1.320 -0.0083 -1.7469  2.2724
 9914SOL     OW30319   0.508   6.266   9.192 -0.1438 -0.5969 -0.5785
 9914SOL    HW130320   0.536   6.347   9.235  0.1444 -1.0563  0.1284
 9914SOL    HW230321   0.491   6.291   9.102 -1.0445  0.4637 -0.1288
 9915SOL     OW30322   1.438   8.588   9.670 -0.5799 -0.5631  0.1379
 9915SOL    HW130323   1.372   8.582   9.739  0.9833 -0.8929  1.6946
 9915SOL    HW230324   1.495   8.512   9.686  0.2899 -0.1752 -1.0176
 9916SOL     OW30325   9.721   6.006   1.874  0.6487 -0.2312 -0.0547
 9916SOL    HW130326   9.729   5.913   1.854  0.1143  0.0415 -1.6848
 9916SOL    HW230327   9.804   6.044   1.844  0.1077  0.0901 -1.1661
 9917SOL     OW30328   8.291   9.250   4.317 -0.1874 -0.4839  0.1571
 9917SOL    HW130329   8.213   9.209   4.280 -1.6035 -0.2531  2.6597
 9917SOL    HW230330   8.332   9.181   4.369 -0.3209  0.1200  1.0932
 9918SOL     OW30331   5.264   2.718   6.611  0.1351  0.0596 -0.2919
 9918SOL    HW130332   5.309   2.779   6.552  0.4118 -0.3058 -0.4630
 9918SOL    HW230333   5.228   2.773   6.680  0.6361  0.3824 -0.2871
 9919SOL     OW30334   5.927   4.444   8.969  0.9665 -0.6422 -0.2700
 9919SOL    HW130335   5.991   4.407   9.030  0.8292 -0.6104 -0.1046
 9919SOL    HW230336   5.970   4.442   8.884  1.2856 -0.3764 -0.1151
 9920SOL     OW30337   7.291   2.903   1.027  0.4720  0.4424 -0.2118
 9920SOL    HW130338   7.366   2.847   1.045  0.6348  1.2711  1.9669
 9920SOL    HW230339   7.326   2.977   0.978  0.1939 -1.3943 -3.4727
 9921SOL     OW30340   2.587   8.400   7.068 -0.5041  0.2661 -0.3601
 9921SOL    HW130341   2.605   8.310   7.044  0.2716  0.6243 -1.1929
 9921SOL    HW230342   2.611   8.451   6.990  1.0853  1.3690  0.7665
 9922SOL     OW30343   6.616   6.797   1.262  0.1978 -0.1071 -0.1436
 9922SOL    HW130344   6.578   6.709   1.259 -2.2277  0.8840 -2.4905
 9922SOL    HW230345   6.699   6.788   1.214  0.4535 -1.2662  0.4625
 9923SOL     OW30346   7.443   8.259   8.712  0.4525 -0.3329 -0.2122
 9923SOL    HW130347   7.413   8.174   8.745 -0.8914 -0.4072 -1.5362
 9923SOL    HW230348   7.422   8.257   8.619  0.4451  1.4387 -0.2679
 9924SOL     OW30349   7.981   2.398   7.554 -0.5579 -0.2006  0.1288
 9924SOL    HW130350   8.054   2.374   7.498 -0.0798  0.3240  0.5167
 9924SOL    HW230351   7.929   2.318   7.561  0.4270 -0.8178  0.5329
 9925SOL     OW30352   8.096   0.977   8.445  0.2163  0.6324 -1.1838
 9925SOL    HW130353   8.111   0.890   8.482  0.9652  0.1293 -2.6035
 9925SOL    HW230354   8.183   1.017   8.441 -0.1484  1.5573 -0.3407
 9926SOL     OW30355   9.656   6.077   5.733  0.6384  0.3244  0.3994
 9926SOL    HW130356   9.658   6.103   5.825  1.8496 -0.2069  0.5475
 9926SOL    HW230357   9.598   6.001   5.731  1.2905 -0.1896  0.8773
 9927SOL     OW30358   5.742   0.474   6.557  0.1090  0.2089  0.2978
 9927SOL    HW130359   5.730   0.564   6.586  0.0075  0.3028 -0.0304
 9927SOL    HW230360   5.817   0.477   6.498 -0.9478  0.3916 -1.0764
 9928SOL     OW30361   9.769   4.553   5.051 -0.0327 -0.0467  0.2536
 9928SOL    HW130362   9.734   4.507   4.974 -0.5260  0.2771  0.2821
 9928SOL    HW230363   9.803   4.483   5.107 -0.0581 -0.3179 -0.0648
 9929SOL     OW30364   1.398   4.819   0.705 -0.0300  0.1854  0.0074
 9929SOL    HW130365   1.360   4.732   0.693 -2.4111  1.3322 -1.5869
 9929SOL    HW230366   1.447   4.836   0.624 -1.3039  1.0748 -0.6148
 9930SOL     OW30367   9.579   7.540   7.611 -0.3884  0.1006 -0.2754
 9930SOL    HW130368   9.560   7.448   7.628  1.6003 -0.3484 -0.2252
 9930SOL    HW230369   9.559   7.552   7.518  0.4235 -0.6961 -0.5664
 9931SOL     OW30370   3.996   8.966   8.433  0.5032  0.2931 -0.2048
 9931SOL    HW130371   3.982   9.060   8.427  0.2603  0.1816 -1.8222
 9931SOL    HW230372   3.940   8.929   8.364  1.2360 -0.9616 -0.1508
 9932SOL     OW30373   2.145   8.105   6.897  0.0966 -0.0734  0.2862
 9932SOL    HW130374   2.167   8.019   6.933 -1.0219 -1.1081 -1.3527
 9932SOL    HW230375   2.208   8.117   6.826  0.3687  0.5541  0.6313
 9933SOL     OW30376   8.041   4.239   2.402 -0.1913  0.1853  0.2489
 9933SOL    HW130377   8.018   4.168   2.462 -0.4135 -1.7797 -2.0327
 9933SOL    HW230378   8.005   4.212   2.318  4.0608  0.4694 -1.9172
 9934SOL     OW30379   8.515   3.127   3.259 -0.2205  0.5707  0.3352
 9934SOL    HW130380   8.598   3.080   3.250  0.1882  1.5491 -1.5359
 9934SOL    HW230381   8.458   3.066   3.305  0.8326 -1.0339 -0.3940
 9935SOL     OW30382   2.314   2.346   2.052  0.4708  0.0990  0.2458
 9935SOL    HW130383   2.234   2.395   2.069  0.3564 -0.3040  0.9032
 9935SOL    HW230384   2.383   2.397   2.095  0.4738  0.0946  0.2460
 9936SOL     OW30385   9.503   7.990   9.835 -0.0469 -0.7196 -0.1979
 9936SOL    HW130386   9.500   8.042   9.755 -2.0538  1.8706  1.3852
 9936SOL    HW230387   9.537   8.050   9.901  0.9406 -2.5801  1.0687
 9937SOL     OW30388   2.084   2.583   1.364 -0.3784  0.6434  0.0227
 9937SOL    HW130389   2.103   2.635   1.443  0.4882  0.8273 -0.2931
 9937SOL    HW230390   2.067   2.495   1.397  1.7675  0.2802  0.3272
 9938SOL     OW30391   3.912   7.035   5.949  0.1029 -0.2119 -0.0089
 9938SOL    HW130392   3.987   6.996   5.905  0.9522  1.3291  0.0126
 9938SOL    HW230393   3.947   7.070   6.031 -0.2303  1.9965 -0.7439
 9939SOL     OW30394   1.374   0.739   2.343 -0.1808 -0.1837  0.1532
 9939SOL    HW130395   1.428   0.663   2.321 -0.8659 -0.5869 -0.1911
 9939SOL    HW230396   1.284   0.711   2.321 -0.7512 -0.1462  2.2418
 9940SOL     OW30397   9.583   1.101   1.752 -0.5002 -0.4763  0.0814
 9940SOL    HW130398   9.616   1.144   1.673  0.9470  0.0372  0.9207
 9940SOL    HW230399   9.494   1.134   1.762  0.2052  1.5525  0.1107
 9941SOL     OW30400   3.546   6.800   3.112 -0.1668  0.1335 -0.1062
 9941SOL    HW130401   3.505   6.884   3.132  0.1175  0.3596 -0.4519
 9941SOL    HW230402   3.510   6.776   3.026 -1.4002 -0.8365  0.6464
 9942SOL     OW30403   8.955   6.813   1.711  0.0810  0.1229 -0.5316
 9942SOL    HW130404   8.975   6.735   1.659  0.6833  0.6085 -1.0432
 9942SOL    HW230405   8.968   6.886   1.650  0.4466  0.6807  0.2073
 9943SOL     OW30406   6.915   6.763   5.003 -0.5995 -0.1200 -0.5977
 9943SOL    HW130407   6.925   6.805   4.918 -1.3889  1.0606 -0.1388
 9943SOL    HW230408   6.821   6.751   5.014 -0.6604  1.1696  0.7261
 9944SOL     OW30409   1.257   0.817   9.491  0.1110  0.5558  0.1567
 9944SOL    HW130410   1.188   0.812   9.557  0.1518  0.1746  0.1732
 9944SOL    HW230411   1.219   0.868   9.420 -0.7307 -0.9098 -0.4840
 9945SOL     OW30412   9.786   9.617   8.302  0.3163 -0.3594  0.0601
 9945SOL    HW130413   9.808   9.660   8.384 -1.2050  0.1014  0.2492
 9945SOL    HW230414   9.704   9.571   8.319 -0.3224  0.2043 -1.3432
 9946SOL     OW30415   9.185   6.539   3.328 -0.4344  0.4556 -0.2405
 9946SOL    HW130416   9.090   6.532   3.324 -0.4389  1.0507 -1.9771
 9946SOL    HW230417   9.202   6.623   3.370 -0.6933  0.8185 -0.8620
 9947SOL     OW30418   0.433   0.926   2.332 -0.1034 -0.1042 -0.4634
 9947SOL    HW130419   0.507   0.982   2.307 -0.1498 -0.5289 -1.5980
 9947SOL    HW230420   0.473   0.844   2.359 -0.1384 -0.1587 -0.5794
 9948SOL     OW30421   6.928   9.555   0.653  0.1637  0.4570  0.4178
 9948SOL    HW130422   6.948   9.599   0.735  0.1701  0.8514  0.2113
 9948SOL    HW230423   6.845   9.510   0.668  0.3307  0.2579  0.7399
 9949SOL     OW30424   0.658   6.823   9.868  0.5450  0.0112 -0.1006
 9949SOL    HW130425   0.574   6.787   9.895  1.2368 -0.5888  1.3783
 9949SOL    HW230426   0.723   6.774   9.920  1.6465  2.0113  0.5272
 9950SOL     OW30427   1.639   6.927   0.490  0.2088 -0.9561 -0.5867
 9950SOL    HW130428   1.548   6.954   0.503  0.7023 -0.1503  1.9024
 9950SOL    HW230429   1.642   6.837   0.523  0.3343 -0.9239 -0.5094
 9951SOL     OW30430   8.033   3.495   2.184  0.1047  0.8420  0.0336
 9951SOL    HW130431   8.066   3.427   2.242 -2.0201 -0.7386 -0.4961
 9951SOL    HW230432   7.998   3.562   2.243 -1.0824 -0.2556  0.6247
 9952SOL     OW30433   3.497   9.559   8.796  0.8942  0.4193 -0.4391
 9952SOL    HW130434   3.425   9.538   8.737 -1.1897  0.1901  1.9730
 9952SOL    HW230435   3.558   9.486   8.787 -0.4189 -0.6853 -0.7674
 9953SOL     OW30436   8.232   0.399   1.828 -0.4383 -0.0824 -0.6626
 9953SOL    HW130437   8.169   0.374   1.896 -0.2558  2.1944  0.4620
 9953SOL    HW230438   8.310   0.425   1.878 -0.7881  3.0438 -1.5749
 9954SOL     OW30439   5.159   1.579   8.933  0.1624  0.2162 -0.0519
 9954SOL    HW130440   5.079   1.527   8.942  0.7342 -0.7711 -0.4719
 9954SOL    HW230441   5.210   1.533   8.866  1.4694  0.3278  0.8388
 9955SOL     OW30442   1.072   0.722   5.800 -0.1988  0.2895  0.0094
 9955SOL    HW130443   1.001   0.703   5.861  2.1722  0.1165  2.9099
 9955SOL    HW230444   1.066   0.817   5.786 -0.3881  0.4469  1.0733
 9956SOL     OW30445   5.021   0.759   1.331  0.6193  0.4045 -0.0064
 9956SOL    HW130446   4.940   0.756   1.383  0.7596  0.4117  0.2136
 9956SOL    HW230447   5.060   0.844   1.352  0.2924  0.7359 -0.7075
 9957SOL     OW30448   3.637   9.430   4.195 -0.2543  0.5636  0.0454
 9957SOL    HW130449   3.631   9.491   4.121  0.5031  2.1306  1.2123
 9957SOL    HW230450   3.665   9.348   4.156  0.3969  1.4232 -1.3987
 9958SOL     OW30451   3.555   0.768   5.028 -0.0968  0.3838 -0.3889
 9958SOL    HW130452   3.513   0.837   4.977  3.2653  2.3534 -0.7873
 9958SOL    HW230453   3.581   0.811   5.109 -1.3502 -1.5429  1.1343
 9959SOL     OW30454   2.855   3.255   4.885  0.0987  0.1666 -0.0738
 9959SOL    HW130455   2.900   3.322   4.833 -0.4419 -0.5336 -1.5022
 9959SOL    HW230456   2.851   3.291   4.973  2.7100  0.6022 -0.0763
 9960SOL     OW30457   8.618   3.295   6.915 -0.2953  0.3385 -0.0806
 9960SOL    HW130458   8.641   3.384   6.944 -0.3610  0.2312  0.2962
 9960SOL    HW230459   8.672   3.281   6.837  0.1399  0.4915  0.1926
 9961SOL     OW30460   0.929   4.757   8.973 -0.9028 -0.0001  0.0316
 9961SOL    HW130461   0.857   4.695   8.984  0.2181 -0.8824  4.0701
 9961SOL    HW230462   0.887   4.843   8.975 -2.1365 -0.4773 -2.0638
 9962SOL     OW30463   8.159   6.402   1.380  0.4893 -0.1758  0.2953
 9962SOL    HW130464   8.132   6.315   1.352 -0.9813  0.1351  0.6702
 9962SOL    HW230465   8.162   6.453   1.299 -0.9594  0.0042  0.3345
 9963SOL     OW30466   3.785   0.247   2.616  0.0030  0.0491  0.1285
 9963SOL    HW130467   3.803   0.321   2.558  0.0881  0.5751  0.8212
 9963SOL    HW230468   3.837   0.175   2.580 -1.0541 -0.0428 -1.3060
 9964SOL     OW30469   3.921   8.308   5.150  0.5494 -0.5769 -0.2907
 9964SOL    HW130470   3.871   8.315   5.069 -0.0819  1.7771  0.2078
 9964SOL    HW230471   3.947   8.216   5.155 -1.9914 -1.4695 -1.6207
 9965SOL     OW30472   7.052   8.709   5.700  0.3563 -0.1809  0.3049
 9965SOL    HW130473   7.033   8.778   5.762  1.7300  0.2549  0.2715
 9965SOL    HW230474   7.102   8.644   5.750  0.1421 -0.5670  0.0293
 9966SOL     OW30475   8.551   3.241   9.184 -0.6273 -0.5874  0.0212
 9966SOL    HW130476   8.523   3.154   9.211 -0.1710 -1.1382 -1.2156
 9966SOL    HW230477   8.647   3.235   9.181 -0.6162 -0.2093 -0.5766
 9967SOL     OW30478   8.689   0.089   4.074  0.1239  0.2300 -0.0639
 9967SOL    HW130479   8.700   0.128   3.987  0.7204  0.9841  0.3352
 9967SOL    HW230480   8.653   0.002   4.057  0.4233  0.2881 -1.0735
 9968SOL     OW30481   2.266   2.181   8.030  0.2071 -0.3506  0.2273
 9968SOL    HW130482   2.327   2.205   8.100  0.9189 -1.8243  0.1417
 9968SOL    HW230483   2.182   2.217   8.059  0.2547 -1.7525  2.3786
 9969SOL     OW30484   9.299   5.635   1.090 -0.4160  0.0806 -0.2106
 9969SOL    HW130485   9.271   5.581   1.016 -1.1025  1.2678 -0.8339
 9969SOL    HW230486   9.240   5.609   1.161 -0.7595  0.0314 -0.5102
 9970SOL     OW30487   2.807   6.291   0.090 -0.0738 -0.3534 -0.7582
 9970SOL    HW130488   2.829   6.297  -0.003 -0.1958 -0.4534 -0.7942
 9970SOL    HW230489   2.882   6.248   0.130 -0.1703 -0.6329 -0.8691
 9971SOL     OW30490   0.566   3.336   7.831  0.2175  0.1980  0.1791
 9971SOL    HW130491   0.614   3.329   7.748  0.2911 -0.4742  0.2732
 9971SOL    HW230492   0.535   3.247   7.848 -1.4874  0.6994 -0.1283
 9972SOL     OW30493   3.677   4.324   9.990  0.2065 -0.6491  0.2172
 9972SOL    HW130494   3.657   4.304   9.899  0.6853 -0.3963  0.0541
 9972SOL    HW230495   3.770   4.349   9.989 -0.2494  1.1633  0.4781
 9973SOL     OW30496   3.015   5.491   3.023 -0.0632 -0.1519  0.4878
 9973SOL    HW130497   2.983   5.401   3.025  2.8946 -1.5241 -2.7517
 9973SOL    HW230498   2.944   5.542   2.985 -0.1364 -2.1673 -2.3384
 9974SOL     OW30499   0.757   6.596   6.482  0.3193 -0.4765  0.1101
 9974SOL    HW130500   0.681   6.654   6.486  0.0957 -0.6716 -1.0314
 9974SOL    HW230501   0.802   6.621   6.401  1.5842 -0.2367  0.8603
 9975SOL     OW30502   4.388   1.775   4.556  0.1653 -0.8308  0.7458
 9975SOL    HW130503   4.353   1.693   4.591 -1.5576 -0.0992  0.8146
 9975SOL    HW230504   4.327   1.799   4.486 -0.0481  0.9715  1.4918
 9976SOL     OW30505   7.843   0.897   3.593 -0.2038 -0.2384 -0.3730
 9976SOL    HW130506   7.757   0.929   3.619 -0.2735 -1.6439  1.3357
 9976SOL    HW230507   7.833   0.874   3.501 -1.0390  1.5152 -0.7567
 9977SOL     OW30508   1.218   1.035   8.827  0.2002 -0.9200  0.3157
 9977SOL    HW130509   1.291   0.974   8.835 -0.4908 -1.7693  0.2597
 9977SOL    HW230510   1.159   0.996   8.762  0.4584  0.5550 -0.8705
 9978SOL     OW30511   6.189   6.521   1.356  0.1499 -0.4343  0.0038
 9978SOL    HW130512   6.134   6.558   1.426 -1.3634 -0.7796 -0.9413
 9978SOL    HW230513   6.278   6.532   1.387 -0.4213  0.6781  1.3717
 9979SOL     OW30514   9.692   5.714   1.968 -0.1917 -0.5818  0.2134
 9979SOL    HW130515   9.754   5.660   2.017 -2.1688 -2.2334  1.0403
 9979SOL    HW230516   9.672   5.664   1.889  0.6161  0.6323 -0.7973
 9980SOL     OW30517   1.956   1.309   6.147  0.6471 -0.2367 -0.5370
 9980SOL    HW130518   1.889   1.293   6.213  0.1389 -2.2528 -1.4701
 9980SOL    HW230519   1.919   1.378   6.091  0.7731  0.9605  0.8061
 9981SOL     OW30520   4.027   5.717   2.703 -0.7797  0.1688 -0.5709
 9981SOL    HW130521   4.099   5.658   2.722 -0.7182 -0.5005 -2.6131
 9981SOL    HW230522   3.998   5.749   2.788  0.8408 -0.8340  0.3919
 9982SOL     OW30523   5.501   4.101   1.598  0.1019  0.1372 -0.2729
 9982SOL    HW130524   5.503   4.151   1.517 -0.1097 -1.3326 -1.2220
 9982SOL    HW230525   5.583   4.052   1.599 -0.1212 -0.2423  0.1514
 9983SOL     OW30526   7.639   9.466   2.875  0.1216  0.6774 -0.2660
 9983SOL    HW130527   7.567   9.452   2.937  1.2505  1.8212  1.4146
 9983SOL    HW230528   7.690   9.385   2.879 -0.6780  0.1292 -0.9417
 9984SOL     OW30529   1.582   6.560   1.802 -0.0308 -0.4706  0.1630
 9984SOL    HW130530   1.505   6.605   1.837  0.2987  0.5733 -0.4039
 9984SOL    HW230531   1.570   6.468   1.826 -1.8162 -0.4552 -0.5860
 9985SOL     OW30532   2.184   5.011   7.748  0.1190  0.1846  0.2219
 9985SOL    HW130533   2.277   4.991   7.746 -0.0600 -0.6146 -0.4994
 9985SOL    HW230534   2.153   4.971   7.830 -0.1646 -2.3744 -1.0219
 9986SOL     OW30535   1.575   1.410   2.376 -0.0041 -0.4545  0.1885
 9986SOL    HW130536   1.499   1.449   2.333  0.0728 -1.6275 -1.0928
 9986SOL    HW230537   1.642   1.479   2.373 -0.1783 -0.3167 -1.1178
 9987SOL     OW30538   5.992   2.688   5.118 -0.1455 -0.0984  0.3235
 9987SOL    HW130539   5.928   2.742   5.073  0.3360  0.8143  0.6969
 9987SOL    HW230540   5.953   2.670   5.204  0.2522  0.8225  0.7183
 9988SOL     OW30541   8.283   3.684   9.723 -0.3086  0.0991  0.9396
 9988SOL    HW130542   8.229   3.720   9.653  0.0594  0.0099  0.6088
 9988SOL    HW230543   8.234   3.705   9.803 -0.7341  0.1929  0.6615
 9989SOL     OW30544   8.913   3.832   6.837 -0.8794 -0.3880 -0.3691
 9989SOL    HW130545   8.947   3.864   6.754 -1.6299  0.6505 -0.2881
 9989SOL    HW230546   8.969   3.757   6.859  0.8569  0.8034 -0.5963
 9990SOL     OW30547   8.464   9.884   9.049 -0.1078  0.0375  0.0960
 9990SOL    HW130548   8.406   9.845   9.114  1.0909 -1.9496  0.0512
 9990SOL    HW230549   8.549   9.889   9.092  0.1801  0.9299 -0.5371
 9991SOL     OW30550   9.163   7.172   1.557 -0.3112  0.4166 -0.6427
 9991SOL    HW130551   9.252   7.207   1.548 -0.4559  0.6551 -1.1903
 9991SOL    HW230552   9.175   7.080   1.582  0.0870  1.3074  3.0167
 9992SOL     OW30553   4.841   8.306   0.945  0.8106  0.4162 -0.4012
 9992SOL    HW130554   4.815   8.252   0.871  0.5872  2.1135 -1.6184
 9992SOL    HW230555   4.896   8.249   0.998 -0.8301 -1.5520 -0.6573
 9993SOL     OW30556   6.414   2.447   1.964  0.0626  0.0317  0.2081
 9993SOL    HW130557   6.508   2.450   1.982  0.1635  0.7195 -0.3878
 9993SOL    HW230558   6.398   2.358   1.934  0.3147 -0.4278  1.3822
 9994SOL     OW30559   8.360   7.890   4.285 -0.8457  0.6123  0.1867
 9994SOL    HW130560   8.434   7.854   4.234 -1.5206 -2.0207  0.8914
 9994SOL    HW230561   8.401   7.926   4.363 -0.2522 -0.8553  0.5891
 9995SOL     OW30562   1.430   5.851   1.294 -0.1016  0.3095  0.5889
 9995SOL    HW130563   1.425   5.926   1.353 -0.1550  0.5010  0.3450
 9995SOL    HW230564   1.401   5.885   1.209 -2.8685 -0.6268  1.0415
 9996SOL     OW30565   4.605   4.872   6.288  0.6368 -0.1290  0.4127
 9996SOL    HW130566   4.530   4.887   6.230 -0.3362  0.5889  1.7675
 9996SOL    HW230567   4.681   4.868   6.230 -0.3859 -0.3902 -0.9657
 9997SOL     OW30568   0.463   7.363   5.744  0.0762  0.5033 -0.6332
 9997SOL    HW130569   0.441   7.442   5.695  1.1555  1.0716 -0.2342
 9997SOL    HW230570   0.499   7.303   5.679 -1.0795  0.1862 -0.9992
 9998SOL     OW30571   4.137   0.518   8.262 -0.1594  0.4241  0.4746
 9998SOL    HW130572   4.066   0.543   8.321  1.2625  1.2374  1.9479
 9998SOL    HW230573   4.210   0.575   8.287  0.5590  0.7280 -2.0477
 9999SOL     OW30574   4.573   3.473   2.126 -0.3904 -0.3968 -0.2562
 9999SOL    HW130575   4.649   3.426   2.161  1.0329  2.8369  1.3312
 9999SOL    HW230576   4.502   3.453   2.187  0.8322  1.3153  1.8620
10000SOL     OW30577   2.559   4.468   2.389  0.0932  0.2369  0.7239
10000SOL    HW130578   2.537   4.511   2.471 -2.2338 -1.6920  1.2260
10000SOL    HW230579   2.642   4.423   2.407 -1.5919 -2.2430  2.9717
10001SOL     OW30580   2.252   2.725   4.457 -0.1222 -0.0339 -0.2699
10001SOL    HW130581   2.267   2.654   4.520  2.3761  0.6532  0.0209
10001SOL    HW230582   2.316   2.709   4.387 -1.4560  0.3814 -1.6506
10002SOL     OW30583   1.834   4.580   4.570  0.4268  0.1309  0.0957
10002SOL    HW130584   1.740   4.588   4.587  0.6771  2.5804  0.7716
10002SOL    HW230585   1.875   4.625   4.643  2.0311  1.0246 -1.2901
10003SOL     OW30586   5.555   5.791   5.749  0.1817 -0.1409 -0.2578
10003SOL    HW130587   5.586   5.864   5.695 -0.4456 -0.4560 -1.0853
10003SOL    HW230588   5.594   5.714   5.709  0.9174 -0.2638  0.6705
10004SOL     OW30589   2.359   9.343   0.525  0.2856  0.7457 -0.3571
10004SOL    HW130590   2.424   9.389   0.471  0.0514  0.2665 -1.0665
10004SOL    HW230591   2.301   9.301   0.462 -0.7471  1.1984  0.2732
10005SOL     OW30592   4.717   6.258   5.251 -0.1886  0.1629 -0.6958
10005SOL    HW130593   4.709   6.245   5.346 -1.7828  1.0474 -0.6768
10005SOL    HW230594   4.695   6.173   5.214 -0.7436  0.1304 -0.3056
10006SOL     OW30595   1.153   1.118   0.056 -0.8020 -0.3960  0.1647
10006SOL    HW130596   1.112   1.038   0.091 -0.8613 -0.2163  0.5163
10006SOL    HW230597   1.190   1.161   0.133 -0.5874 -0.1874 -0.0529
10007SOL     OW30598   8.200   9.035   0.265 -0.6484 -0.3934  0.4440
10007SOL    HW130599   8.111   9.032   0.231 -0.4827 -1.3214  0.0641
10007SOL    HW230600   8.254   9.001   0.194 -0.1272 -0.9504  1.0961
10008SOL     OW30601   4.130   0.882   4.056 -0.0555  0.0196 -0.1526
10008SOL    HW130602   4.162   0.814   4.115 -0.1949  0.3496  0.3125
10008SOL    HW230603   4.055   0.919   4.101  1.0283  1.6494  0.4341
10009SOL     OW30604   4.944   3.925   2.416  0.2121 -0.1935 -0.3009
10009SOL    HW130605   4.935   3.988   2.344  1.4949 -0.5211 -0.7622
10009SOL    HW230606   4.857   3.923   2.456 -0.2133  0.8627 -1.1154
10010SOL     OW30607   6.282   0.210   7.444 -0.4477  0.2783  0.3221
10010SOL    HW130608   6.277   0.302   7.417 -2.1106  0.0032 -0.4456
10010SOL    HW230609   6.359   0.206   7.500 -0.7767  2.2928  1.0077
10011SOL     OW30610   0.697   2.491   3.765 -0.2345 -0.5315 -0.0605
10011SOL    HW130611   0.654   2.565   3.722 -0.3949 -1.3106 -1.3183
10011SOL    HW230612   0.695   2.512   3.858 -1.2871  0.5174 -0.2957
10012SOL     OW30613   9.511   1.235   9.419 -0.1249 -0.4384  0.2246
10012SOL    HW130614   9.433   1.284   9.445 -0.7780 -2.0433  1.4141
10012SOL    HW230615   9.568   1.237   9.496 -0.2294 -1.6514  0.3484
10013SOL     OW30616   4.378   9.773   1.716 -0.4363  0.0099 -0.0134
10013SOL    HW130617   4.366   9.848   1.658 -0.4421 -0.2319 -0.3238
10013SOL    HW230618   4.413   9.704   1.660  2.1544  0.5701  0.7916
10014SOL     OW30619   4.937   9.798   1.862  0.2939  0.5914  0.2796
10014SOL    HW130620   4.919   9.733   1.794  0.8644  0.7752 -0.0610
10014SOL    HW230621   4.852   9.833   1.885  0.1263  0.8247 -0.6441
10015SOL     OW30622   1.667   1.932   6.009 -0.2604  0.1764 -0.1577
10015SOL    HW130623   1.624   1.968   5.932 -0.6864 -1.2856 -0.6452
10015SOL    HW230624   1.600   1.880   6.053  1.1814 -3.5413 -1.8243
10016SOL     OW30625   6.428   8.380   9.568 -0.1971 -0.0214 -0.5982
10016SOL    HW130626   6.351   8.330   9.540 -0.0113 -1.1767  0.8248
10016SOL    HW230627   6.494   8.312   9.587  0.7256  0.8800 -0.5078
10017SOL     OW30628   5.389   4.670   4.126  0.1262  0.0078  0.3055
10017SOL    HW130629   5.432   4.696   4.208  1.1018 -0.3805 -0.0614
10017SOL    HW230630   5.378   4.576   4.133 -2.2190  0.2769  1.0821
10018SOL     OW30631   3.111   7.790   3.072 -0.5017  0.1577  0.5414
10018SOL    HW130632   3.181   7.822   3.129 -0.6136 -0.2830  0.9373
10018SOL    HW230633   3.037   7.849   3.091 -0.0251  1.0897 -0.4265
10019SOL     OW30634   6.476   3.070   9.253 -0.0072 -0.1845  0.1612
10019SOL    HW130635   6.451   3.093   9.164  1.1370  0.1475 -0.0914
10019SOL    HW230636   6.398   3.088   9.305 -0.5622 -0.0017 -0.7146
10020SOL     OW30637   6.701   5.587   0.528 -0.1643  0.3259 -0.1170
10020SOL    HW130638   6.754   5.517   0.490 -0.0103  1.3096 -1.8243
10020SOL    HW230639   6.611   5.558   0.517 -0.0549 -0.3417  0.7139
10021SOL     OW30640   8.271   5.634   5.114 -0.3065  0.2294 -0.0295
10021SOL    HW130641   8.207   5.646   5.183 -0.4221  1.2474 -0.2871
10021SOL    HW230642   8.271   5.718   5.067  0.9533  0.1280 -0.2461
10022SOL     OW30643   5.888   2.942   0.403 -0.2328  0.4399  0.0588
10022SOL    HW130644   5.902   2.861   0.450 -0.4495  0.1809 -0.3148
10022SOL    HW230645   5.950   3.004   0.442  1.5663 -0.4977 -1.1770
10023SOL     OW30646   4.345   4.776   7.050 -0.0076  0.0821  0.4048
10023SOL    HW130647   4.349   4.798   6.957 -1.5733 -0.5001  0.1720
10023SOL    HW230648   4.397   4.843   7.093 -0.6958  1.3863 -0.7329
10024SOL     OW30649   4.656   1.433   9.468  0.4900  0.2526 -0.7435
10024SOL    HW130650   4.731   1.404   9.519  1.0502  0.3544 -1.4889
10024SOL    HW230651   4.672   1.526   9.453  1.9135 -0.3439 -3.6374
10025SOL     OW30652   8.717   2.899   3.211  0.3102 -0.1783  0.1241
10025SOL    HW130653   8.803   2.882   3.174 -0.8816 -2.2391 -1.9601
10025SOL    HW230654   8.711   2.840   3.286 -0.2903 -2.2112 -1.4568
10026SOL     OW30655   4.012   5.831   8.002 -0.1418  0.2384  0.0697
10026SOL    HW130656   4.061   5.848   8.082 -0.4917 -0.9880  0.5754
10026SOL    HW230657   4.068   5.772   7.951 -1.6576 -2.6032  1.4120
10027SOL     OW30658   4.736   6.019   0.073 -0.6219 -0.5964  0.5335
10027SOL    HW130659   4.731   6.102   0.120 -4.0697 -0.7845  0.7410
10027SOL    HW230660   4.749   6.043  -0.018 -3.4685  0.3816  0.3066
10028SOL     OW30661   9.671   1.386   6.748 -0.0314  0.2838  0.2818
10028SOL    HW130662   9.656   1.369   6.655 -1.7343 -1.6826  0.8343
10028SOL    HW230663   9.716   1.307   6.780 -1.9493 -0.3734  1.6006
10029SOL     OW30664   8.488   7.251   1.441  0.2570  0.0626 -0.2017
10029SOL    HW130665   8.467   7.336   1.479 -0.6188  0.0906 -0.7293
10029SOL    HW230666   8.421   7.236   1.374 -0.0861 -1.4029  0.4187
10030SOL     OW30667   9.477   6.498   5.769  0.8365  0.2911 -0.1619
10030SOL    HW130668   9.542   6.528   5.832  0.8683  1.3538 -0.6833
10030SOL    HW230669   9.425   6.576   5.749 -0.0682 -0.3574 -0.3788
10031SOL     OW30670   4.476   1.524   3.101  1.1009  0.1650 -0.2015
10031SOL    HW130671   4.547   1.463   3.081  0.9196  0.3081 -1.3404
10031SOL    HW230672   4.480   1.589   3.030  1.4777  1.6547  1.1185
10032SOL     OW30673   6.330   8.635   0.161 -0.0660  0.3511 -0.2842
10032SOL    HW130674   6.270   8.565   0.187  1.8499 -1.1094  0.3979
10032SOL    HW230675   6.358   8.675   0.243  0.5819  0.4055 -0.5231
10033SOL     OW30676   0.830   3.450   2.149  0.2706  0.3050  0.1003
10033SOL    HW130677   0.847   3.544   2.139  2.5450 -0.1061 -0.6501
10033SOL    HW230678   0.801   3.421   2.063  0.6523  0.1377  0.0262
10034SOL     OW30679   3.473   6.307   4.528  0.6721 -0.1291  0.1559
10034SOL    HW130680   3.437   6.219   4.519 -0.7414  0.4775 -0.3138
10034SOL    HW230681   3.471   6.344   4.440 -1.5782  1.4052  0.7511
10035SOL     OW30682   1.197   1.013   8.454  0.6435 -0.5234  0.0858
10035SOL    HW130683   1.276   1.063   8.433 -0.1203  0.9919  0.6650
10035SOL    HW230684   1.224   0.921   8.447  2.7146 -0.0634  1.1578
10036SOL     OW30685   0.563   5.267   0.853  0.2240 -0.3221 -0.4960
10036SOL    HW130686   0.655   5.262   0.879 -0.2333  0.6358  1.5106
10036SOL    HW230687   0.556   5.208   0.779  2.6758  0.3764 -1.3818
10037SOL     OW30688   1.953   1.761   2.777 -0.3733  0.2126 -0.3126
10037SOL    HW130689   1.873   1.754   2.726  1.5321 -1.8139 -3.3907
10037SOL    HW230690   1.949   1.689   2.840 -1.6074  1.1450  0.7357
10038SOL     OW30691   7.100   5.129   8.333 -0.1716 -0.1037 -0.2233
10038SOL    HW130692   7.154   5.202   8.302  0.0245  0.8445  2.0952
10038SOL    HW230693   7.102   5.138   8.428 -2.6019 -1.3738  0.0105
10039SOL     OW30694   3.473   5.444   1.659  0.6261 -0.0319 -0.1899
10039SOL    HW130695   3.489   5.534   1.633  2.2569  0.4657  2.2655
10039SOL    HW230696   3.475   5.395   1.576  2.7731  1.7654 -1.3106
10040SOL     OW30697   7.345   1.244   2.589  0.0080  0.0135 -0.4988
10040SOL    HW130698   7.256   1.234   2.623 -0.8190 -1.8559 -2.9001
10040SOL    HW230699   7.346   1.332   2.551 -1.7766 -0.8404 -2.7602
10041SOL     OW30700   5.478   8.430   0.170  0.6754  0.1512  0.3320
10041SOL    HW130701   5.559   8.398   0.209  0.8267  0.4087  0.2305
10041SOL    HW230702   5.463   8.515   0.212  0.9153  0.4997 -0.2709
10042SOL     OW30703   3.904   5.211   1.854 -0.2418 -0.2655 -0.3437
10042SOL    HW130704   3.861   5.230   1.937  1.6437  0.5423  0.5140
10042SOL    HW230705   3.979   5.157   1.878  0.2937 -0.0877 -1.5386
10043SOL     OW30706   6.170   4.987   6.533 -0.4185 -0.1411  0.3820
10043SOL    HW130707   6.200   4.928   6.463 -3.1604 -1.0376 -0.1435
10043SOL    HW230708   6.156   4.930   6.608 -1.6945  0.0608  0.3118
10044SOL     OW30709   2.135   7.313   9.181  0.4694 -0.4234  0.4731
10044SOL    HW130710   2.131   7.407   9.165  0.5638 -0.4616  0.2154
10044SOL    HW230711   2.059   7.277   9.134  0.5784 -0.5027  0.3551
10045SOL     OW30712   2.909   5.579   5.823 -0.1241  0.3544 -0.1750
10045SOL    HW130713   2.933   5.667   5.852  1.2626  0.0684 -0.3886
10045SOL    HW230714   2.818   5.587   5.796 -0.2689  1.5351  0.5584
10046SOL     OW30715   7.430   5.957   8.431  0.3409  0.4718  0.0593
10046SOL    HW130716   7.377   5.912   8.365 -1.2366  1.1155  0.8188
10046SOL    HW230717   7.520   5.938   8.407 -0.2344 -1.0596 -1.0348
10047SOL     OW30718   6.517   2.672   1.004 -0.5149  0.1380 -0.1137
10047SOL    HW130719   6.431   2.691   0.967  0.2337 -0.7898 -2.5503
10047SOL    HW230720   6.577   2.727   0.954  0.4779 -0.5426  0.3078
10048SOL     OW30721   5.951   8.247   4.443 -0.1105 -0.2643 -0.1760
10048SOL    HW130722   5.988   8.267   4.357  2.2539 -1.0383  0.5710
10048SOL    HW230723   5.955   8.330   4.490 -3.5353  0.7506 -1.4159
10049SOL     OW30724   6.093   2.215   1.821  0.7706  0.2753  0.5548
10049SOL    HW130725   6.002   2.220   1.852  0.8790  0.1363  0.8920
10049SOL    HW230726   6.101   2.289   1.760  0.1481 -0.2835 -0.2229
10050SOL     OW30727   4.434   3.873   6.335 -0.4886 -0.2285  0.6596
10050SOL    HW130728   4.428   3.927   6.256  0.0993 -0.4347  0.4678
10050SOL    HW230729   4.460   3.933   6.404  0.1437 -0.2532  0.4514
10051SOL     OW30730   8.038   4.246   3.423 -0.2467 -0.1126 -0.3236
10051SOL    HW130731   8.059   4.269   3.333 -2.8893 -1.9126 -1.5144
10051SOL    HW230732   8.045   4.329   3.471  0.9222  0.9422 -2.1925
10052SOL     OW30733   4.872   6.327   2.076  0.2589 -0.2409 -0.6367
10052SOL    HW130734   4.963   6.310   2.052  0.3220  0.2652 -0.7665
10052SOL    HW230735   4.835   6.371   1.999  0.2639  0.7397 -0.0957
10053SOL     OW30736   7.814   0.552   3.290  0.6889  0.8458 -0.4253
10053SOL    HW130737   7.784   0.537   3.200 -0.9322 -1.0791  0.3514
10053SOL    HW230738   7.775   0.480   3.340  2.3684  1.2960  1.6571
10054SOL     OW30739   9.881   2.497   1.011  0.4085  0.1309 -0.2103
10054SOL    HW130740   9.832   2.579   1.005  0.8018  0.5326  1.6058
10054SOL    HW230741   9.814   2.429   1.016  0.0215  0.5894  1.1509
10055SOL     OW30742   6.092   2.846   9.365 -0.1015  0.1218 -0.5193
10055SOL    HW130743   6.143   2.863   9.444  1.2624  0.5301 -1.4656
10055SOL    HW230744   6.137   2.773   9.322 -1.9300 -1.4099  0.0044
10056SOL     OW30745   7.430   0.883   9.545 -0.1338  0.2484 -0.5077
10056SOL    HW130746   7.427   0.788   9.554 -0.7527 -0.1174 -3.4714
10056SOL    HW230747   7.505   0.899   9.487  0.5628  1.6840  0.7330
10057SOL     OW30748   3.436   1.474   1.438 -0.1450  0.0549  0.4575
10057SOL    HW130749   3.399   1.560   1.456  1.2402  0.8743 -0.4339
10057SOL    HW230750   3.405   1.419   1.510 -2.4861  0.8307  0.1259
10058SOL     OW30751   4.507   1.968   9.624  0.2119  0.1137 -0.0376
10058SOL    HW130752   4.528   1.950   9.532 -1.0033  1.0016 -0.5122
10058SOL    HW230753   4.413   1.950   9.631  0.2923  0.0548  1.0420
10059SOL     OW30754   5.543   0.520   4.858 -0.4903  0.8922 -0.2213
10059SOL    HW130755   5.490   0.555   4.785 -5.7714 -1.9488  1.6786
10059SOL    HW230756   5.556   0.428   4.836 -0.4532  0.4467  1.5267
10060SOL     OW30757   5.130   2.608   3.164  0.2195  0.1352  0.1205
10060SOL    HW130758   5.215   2.575   3.137  0.1259  0.3783 -0.4766
10060SOL    HW230759   5.145   2.640   3.254  0.5674 -0.5080  0.2947
10061SOL     OW30760   6.557   8.091   2.265 -0.0871  0.0099  0.2429
10061SOL    HW130761   6.539   8.152   2.336  0.5148 -1.0083  1.3192
10061SOL    HW230762   6.521   8.008   2.296 -0.2879 -0.3386 -0.8880
10062SOL     OW30763   3.045   9.961   8.400 -0.4110 -0.4138 -0.1179
10062SOL    HW130764   3.061   9.868   8.415  1.1677  0.1669  2.6471
10062SOL    HW230765   3.130   9.995   8.371 -0.9872  0.1594 -1.1591
10063SOL     OW30766   6.341   7.858   3.702 -0.5171 -0.1356 -0.0274
10063SOL    HW130767   6.398   7.908   3.643 -1.8082  0.9518 -0.3984
10063SOL    HW230768   6.370   7.767   3.692  0.7346  0.3121 -0.6684
10064SOL     OW30769   6.288   6.936   5.320  0.0748 -0.4559 -0.1787
10064SOL    HW130770   6.294   6.850   5.278 -1.5220 -0.0571 -1.3125
10064SOL    HW230771   6.254   6.917   5.407  1.6308 -1.1254  0.3236
10065SOL     OW30772   3.664   5.161   2.723  0.7252  0.9013 -0.4842
10065SOL    HW130773   3.729   5.228   2.748  1.9853  0.2055 -1.7597
10065SOL    HW230774   3.717   5.087   2.694 -0.4745 -1.9022  3.5261
10066SOL     OW30775   7.908   2.081   5.290 -0.0728  0.1618 -0.1978
10066SOL    HW130776   7.947   2.010   5.239  1.5298  0.6261  0.3268
10066SOL    HW230777   7.890   2.042   5.376  0.7473  0.3552  0.0697
10067SOL     OW30778   3.019   3.475   3.529 -0.0788 -0.4800  0.2251
10067SOL    HW130779   3.049   3.422   3.455  1.0785 -1.2457  1.2107
10067SOL    HW230780   3.058   3.433   3.606 -0.3811  0.9264  1.1749
10068SOL     OW30781   1.885   3.720   2.692  0.2242 -0.2970  0.1996
10068SOL    HW130782   1.914   3.809   2.670  1.8027 -0.7036  0.4956
10068SOL    HW230783   1.805   3.733   2.743  0.3697  0.9513  0.1460
10069SOL     OW30784   8.286   2.181   4.979  1.2700  0.1696  0.7148
10069SOL    HW130785   8.373   2.146   4.960  0.2722 -1.8631 -0.4924
10069SOL    HW230786   8.226   2.116   4.943 -0.7931 -0.0368  4.1301
10070SOL     OW30787   3.958   3.273   1.355 -0.0411 -0.2359  0.4177
10070SOL    HW130788   4.027   3.258   1.420  0.3127  0.4351  0.2001
10070SOL    HW230789   3.881   3.229   1.392 -0.2281  1.3197  1.9824
10071SOL     OW30790   7.265   1.555   3.359  0.4454 -0.1563 -0.0717
10071SOL    HW130791   7.308   1.640   3.349  1.4974 -0.6938 -0.2056
10071SOL    HW230792   7.278   1.533   3.452 -0.3129  0.0670  0.1010
10072SOL     OW30793   4.910   3.596   2.169 -0.5406 -0.3030  0.3533
10072SOL    HW130794   4.962   3.676   2.180 -1.2992  0.2781 -0.2155
10072SOL    HW230795   4.950   3.551   2.095 -0.2615 -0.3422  0.5246
10073SOL     OW30796   3.863   7.889   5.033  0.1456  0.1981 -0.9008
10073SOL    HW130797   3.790   7.950   5.024 -0.4746 -0.3803  0.0764
10073SOL    HW230798   3.932   7.940   5.075 -0.2633  0.3292 -0.3750
10074SOL     OW30799   3.674   3.717   3.327 -0.5698 -0.1360 -0.3400
10074SOL    HW130800   3.620   3.731   3.406  1.8837 -0.6596  1.5469
10074SOL    HW230801   3.681   3.622   3.320  1.8458 -0.1084  0.8054
10075SOL     OW30802   7.545   9.297   1.674  0.4434  0.0694  0.0976
10075SOL    HW130803   7.638   9.298   1.697  0.1426  1.3022  1.3294
10075SOL    HW230804   7.507   9.228   1.729  0.1932  1.2683  1.4624
10076SOL     OW30805   2.441   3.529   3.723  0.0519 -0.3100 -0.1945
10076SOL    HW130806   2.439   3.455   3.783  1.9509  0.9466  1.5805
10076SOL    HW230807   2.349   3.548   3.705 -0.6260 -0.7368  2.4055
10077SOL     OW30808   6.081   1.132   5.668  0.8049 -0.3991 -0.1469
10077SOL    HW130809   6.042   1.199   5.724 -0.3971 -1.5088  0.3704
10077SOL    HW230810   6.127   1.074   5.728  3.4033  0.8851 -0.7394
10078SOL     OW30811   2.148   4.580   7.039  0.4116  0.4153 -0.7831
10078SOL    HW130812   2.114   4.660   7.079  1.0448  0.8346 -1.0718
10078SOL    HW230813   2.241   4.597   7.025  1.0355 -1.1322  1.0262
10079SOL     OW30814   7.910   8.256   1.854 -0.1703 -0.5596 -0.3647
10079SOL    HW130815   7.855   8.183   1.880 -0.7944  0.3268  0.8735
10079SOL    HW230816   7.887   8.327   1.914  0.6511  0.5593 -1.3183
10080SOL     OW30817   5.336   0.401   3.120  0.3407 -0.0210 -0.0091
10080SOL    HW130818   5.337   0.395   3.216  1.2432  0.9087  0.0447
10080SOL    HW230819   5.390   0.476   3.099 -0.8287  0.5391 -1.2123
10081SOL     OW30820   4.070   7.169   1.295 -0.2150  0.0910 -0.0545
10081SOL    HW130821   4.077   7.169   1.390 -1.0189 -0.8093  0.0234
10081SOL    HW230822   3.996   7.226   1.276 -0.1265  0.1795 -0.1343
10082SOL     OW30823   1.750   2.934   3.003 -0.0438 -0.4582  0.4776
10082SOL    HW130824   1.655   2.929   2.992 -0.1139 -0.8179  1.1281
10082SOL    HW230825   1.780   2.987   2.930 -0.7832 -0.0671  0.4383
10083SOL     OW30826   9.260   9.843   5.035 -0.0853  0.8385 -0.2038
10083SOL    HW130827   9.190   9.895   5.073  0.3905 -0.2357  2.3808
10083SOL    HW230828   9.242   9.753   5.065  1.7155  0.3495 -0.4414
10084SOL     OW30829   4.252   7.704   3.936  0.4863 -0.4667  0.3070
10084SOL    HW130830   4.287   7.681   4.022 -3.3185 -0.6752  2.0078
10084SOL    HW230831   4.231   7.620   3.895  0.1896 -0.3166  0.1488
10085SOL     OW30832   9.808   5.402   2.364  0.5211  0.0386  0.1134
10085SOL    HW130833   9.731   5.425   2.312  0.5856  1.5316  0.6261
10085SOL    HW230834   9.817   5.307   2.354 -0.8052 -0.0165 -0.7336
10086SOL     OW30835   8.350   6.689   7.491 -0.6043  0.0633  0.0606
10086SOL    HW130836   8.420   6.643   7.538  0.5819  0.8905 -0.8411
10086SOL    HW230837   8.325   6.760   7.550 -0.1046  0.2593  0.0387
10087SOL     OW30838   0.303   4.988   6.899 -0.3181 -0.3572 -0.0907
10087SOL    HW130839   0.379   5.046   6.909  0.4451 -1.4631  0.8160
10087SOL    HW230840   0.334   4.917   6.843 -0.3785 -1.2688  0.9927
10088SOL     OW30841   4.112   7.125   8.694 -1.0228 -0.4077  0.8270
10088SOL    HW130842   4.124   7.031   8.680 -0.5804 -0.3740  0.9731
10088SOL    HW230843   4.038   7.131   8.754 -1.6603 -0.6245  0.0765
10089SOL     OW30844   7.486   9.579   5.542  0.1750 -0.3397  0.2266
10089SOL    HW130845   7.540   9.512   5.583  1.1403  0.5432  0.4596
10089SOL    HW230846   7.500   9.657   5.596  2.7541  1.3201 -2.5593
10090SOL     OW30847   6.793   0.865   7.048  0.5686 -0.0139  0.2561
10090SOL    HW130848   6.772   0.773   7.033  0.8336  0.0903 -0.8048
10090SOL    HW230849   6.730   0.913   6.994 -0.2273  0.4823  1.5572
10091SOL     OW30850   5.283   4.204   8.011  0.3957 -0.2181 -0.3016
10091SOL    HW130851   5.283   4.269   7.941 -0.9384 -0.4961 -0.5848
10091SOL    HW230852   5.207   4.226   8.065  0.2833 -1.1705 -0.0513
10092SOL     OW30853   0.995   8.730   2.761 -0.3485  0.5263  0.0450
10092SOL    HW130854   1.070   8.764   2.713 -1.8322  1.3170 -1.8110
10092SOL    HW230855   0.970   8.801   2.820  0.3802  0.2174  0.7589
10093SOL     OW30856   7.612   8.386   1.825  0.6752  0.3691  0.3300
10093SOL    HW130857   7.698   8.384   1.783  1.2975  0.4235  1.5657
10093SOL    HW230858   7.550   8.387   1.752  1.7295  1.1264 -0.5900
10094SOL     OW30859   1.159   0.702   3.772 -0.1610 -0.1161 -0.1137
10094SOL    HW130860   1.073   0.687   3.812 -0.1841 -0.5545 -0.3224
10094SOL    HW230861   1.188   0.785   3.809  0.1738 -0.9041  1.4738
10095SOL     OW30862   0.556   7.113   3.678 -0.2281  0.2983 -0.0532
10095SOL    HW130863   0.463   7.090   3.683  0.1022 -0.9629  0.4910
10095SOL    HW230864   0.556   7.209   3.680 -1.5064  0.3205  0.0980
10096SOL     OW30865   6.663   3.810   1.278  0.2975 -0.3583  0.2503
10096SOL    HW130866   6.582   3.774   1.243  0.1268 -0.1662  0.4506
10096SOL    HW230867   6.731   3.777   1.219 -0.0392  0.3559 -0.5493
10097SOL     OW30868   6.636   8.087   1.988  0.3500  0.0475 -0.3323
10097SOL    HW130869   6.616   8.094   2.081  0.1169  2.7761 -0.5025
10097SOL    HW230870   6.707   8.023   1.983  0.8476  0.3666  1.8024
10098SOL     OW30871   1.758   2.141   7.593  0.8241 -0.2334 -0.6727
10098SOL    HW130872   1.677   2.143   7.645  0.5820  0.3237 -1.0531
10098SOL    HW230873   1.810   2.213   7.628  0.4747  0.4249 -1.4743
10099SOL     OW30874   6.001   5.982   4.228 -0.5310 -0.2183 -0.1489
10099SOL    HW130875   6.043   6.057   4.271  3.2555 -2.7104  1.0534
10099SOL    HW230876   6.030   5.987   4.137  0.4025 -0.5565  0.1105
10100SOL     OW30877   3.205   5.397   0.390 -0.1529 -0.2757  0.9557
10100SOL    HW130878   3.227   5.458   0.461 -0.0533 -1.2368  1.7679
10100SOL    HW230879   3.258   5.319   0.407  0.8950 -0.0454 -0.9522
10101SOL     OW30880   0.940   9.688   7.801 -0.2255 -0.3155 -0.0431
10101SOL    HW130881   0.870   9.628   7.826 -0.0345 -0.5180  0.0079
10101SOL    HW230882   0.995   9.694   7.878  0.2837 -0.8230 -0.3612
10102SOL     OW30883   6.450   8.159   4.147 -0.2707 -0.1006  0.1501
10102SOL    HW130884   6.357   8.181   4.149 -0.3608 -0.4251 -0.2752
10102SOL    HW230885   6.469   8.125   4.235 -0.4396  0.4044  0.3839
10103SOL     OW30886   1.663   9.176   1.581  0.3030  0.1319  0.3759
10103SOL    HW130887   1.711   9.094   1.573 -0.4014 -0.1657 -1.2275
10103SOL    HW230888   1.704   9.235   1.518 -1.6020 -0.2723 -1.3617
10104SOL     OW30889   7.663   6.811   0.134 -0.8378  0.1240  0.2497
10104SOL    HW130890   7.705   6.784   0.216 -0.0077 -1.8239 -0.7463
10104SOL    HW230891   7.691   6.745   0.071 -1.1285  1.8168 -1.7174
10105SOL     OW30892   2.717   4.508   0.598 -0.2696  0.3159 -0.1396
10105SOL    HW130893   2.679   4.495   0.511 -0.0166 -0.8598 -0.0906
10105SOL    HW230894   2.739   4.602   0.602  0.8265  0.1610 -1.7963
10106SOL     OW30895   7.812   9.963   3.067  0.0357  0.5422 -0.4634
10106SOL    HW130896   7.820   9.889   3.006  0.3589  0.9924 -0.9805
10106SOL    HW230897   7.798  10.039   3.010 -1.0302  0.7797  0.0994
10107SOL     OW30898   4.565   2.381   8.700  0.4974  0.2786  0.1880
10107SOL    HW130899   4.583   2.386   8.606 -0.4637 -0.3159 -0.0472
10107SOL    HW230900   4.577   2.288   8.722 -1.4226 -0.0178  0.1603
10108SOL     OW30901   1.957   0.836   5.853 -0.4729 -0.1952  0.2643
10108SOL    HW130902   1.992   0.764   5.799  0.1374 -0.4564  0.9785
10108SOL    HW230903   1.948   0.797   5.941  1.0521  0.9236  0.9570
10109SOL     OW30904   6.649   8.377   1.517  0.5022 -0.6369  0.0006
10109SOL    HW130905   6.736   8.369   1.477  0.7880  0.7157  0.3125
10109SOL    HW230906   6.664   8.362   1.610  0.4139 -0.3735  0.0590
10110SOL     OW30907   9.705   8.047   8.179 -0.4038  0.4547  0.1950
10110SOL    HW130908   9.679   8.118   8.237 -1.8885  1.1164 -1.1996
10110SOL    HW230909   9.782   8.080   8.133 -2.2103  2.0675 -1.8805
10111SOL     OW30910   7.628   4.015   4.949 -0.1095 -0.1854  0.3313
10111SOL    HW130911   7.671   3.962   5.017 -2.9218 -0.4928  2.0635
10111SOL    HW230912   7.616   4.101   4.990 -0.7041  0.0170 -0.2518
10112SOL     OW30913   7.693   1.920   5.070 -0.6544 -0.1563  0.1453
10112SOL    HW130914   7.713   2.008   5.102 -0.5635  0.1185 -0.6412
10112SOL    HW230915   7.660   1.873   5.146 -0.9019  0.6250  0.5245
10113SOL     OW30916   5.235   1.295   0.980 -0.6431 -0.1026 -0.1124
10113SOL    HW130917   5.226   1.207   1.017  0.4968 -1.2832 -2.4171
10113SOL    HW230918   5.284   1.282   0.899 -0.4528  2.6874 -0.5489
10114SOL     OW30919   7.846   5.152   2.590 -0.5468  0.3556  0.0474
10114SOL    HW130920   7.801   5.105   2.661  0.2547  0.4394  0.6238
10114SOL    HW230921   7.936   5.119   2.592 -0.3361  0.8819 -0.4689
10115SOL     OW30922   5.145   4.820   9.576  0.2161  0.0406 -0.3463
10115SOL    HW130923   5.204   4.886   9.540 -0.7494  2.0481  1.5013
10115SOL    HW230924   5.155   4.828   9.671 -0.1441 -2.3395 -0.0321
10116SOL     OW30925   1.902   0.359   0.992  0.1884  0.0847  0.1351
10116SOL    HW130926   1.884   0.371   0.899 -1.2894 -0.6872  0.2800
10116SOL    HW230927   1.928   0.268   1.000 -0.3176 -0.0253  0.5554
10117SOL     OW30928   9.774   2.675   6.729  0.4362  0.5569  0.6587
10117SOL    HW130929   9.709   2.745   6.732  0.3879  0.4896  1.3500
10117SOL    HW230930   9.742   2.616   6.660 -0.3300  0.4412  1.0986
10118SOL     OW30931   1.984   2.032   8.390 -0.4686  0.2735  0.2392
10118SOL    HW130932   1.957   2.086   8.315  0.6499 -0.5830 -0.8308
10118SOL    HW230933   1.908   2.031   8.448 -0.6157  2.7892  0.1981
10119SOL     OW30934   4.689   2.637   9.487 -0.1298  0.4424 -0.0731
10119SOL    HW130935   4.651   2.683   9.563 -1.6919 -0.5306 -0.2196
10119SOL    HW230936   4.721   2.555   9.523 -1.2011 -0.1821 -0.4862
10120SOL     OW30937   1.984   7.256   2.275  0.3546 -0.5007  0.2041
10120SOL    HW130938   1.904   7.284   2.320  0.4477  1.6550 -0.8494
10120SOL    HW230939   2.054   7.300   2.323  0.5403  0.8809 -1.2427
10121SOL     OW30940   2.400   7.601   2.324 -0.5095  0.3007  0.2939
10121SOL    HW130941   2.492   7.600   2.350 -0.5329 -2.1683  0.5515
10121SOL    HW230942   2.354   7.631   2.403 -0.0047  0.8082  0.4091
10122SOL     OW30943   0.374   6.599   7.658  0.0301  0.2121  0.4117
10122SOL    HW130944   0.388   6.684   7.700 -1.1670  2.0380 -2.5690
10122SOL    HW230945   0.459   6.574   7.624  0.0681  1.1410 -0.2111
10123SOL     OW30946   0.059   0.773   4.951  0.3929  0.0697  0.3114
10123SOL    HW130947   0.063   0.847   5.011 -0.0764 -1.4465  2.3388
10123SOL    HW230948  -0.018   0.723   4.979  0.7234 -1.2199 -0.9464
10124SOL     OW30949   8.668   2.577   1.915 -0.6725  0.0256 -0.2362
10124SOL    HW130950   8.750   2.612   1.881  0.4189 -1.7952  0.3991
10124SOL    HW230951   8.674   2.589   2.010 -0.0366 -2.1821  0.0682
10125SOL     OW30952   7.931   9.314   6.579 -0.4190 -0.3779 -0.0867
10125SOL    HW130953   7.966   9.295   6.492 -0.7330 -0.4097 -0.2076
10125SOL    HW230954   8.006   9.347   6.628  0.1168 -1.7503  0.0740
10126SOL     OW30955   2.714   4.263   8.297 -0.4809 -0.2112 -0.1156
10126SOL    HW130956   2.622   4.285   8.314 -0.1892 -0.1378  1.4588
10126SOL    HW230957   2.709   4.184   8.242 -1.4811 -0.0601 -0.2734
10127SOL     OW30958   1.543   3.688   7.527 -0.6188 -0.0279 -0.5095
10127SOL    HW130959   1.481   3.624   7.562  0.3899  0.1545  1.7459
10127SOL    HW230960   1.619   3.636   7.501  0.1291  0.1791  1.1568
10128SOL     OW30961   1.570   9.855   9.269 -0.4718  0.6439  0.0906
10128SOL    HW130962   1.638   9.889   9.327 -0.7136  2.4809 -0.6493
10128SOL    HW230963   1.602   9.873   9.181 -0.7645 -0.8274 -0.3485
10129SOL     OW30964   1.091   9.306   0.228 -0.2720 -0.1911  0.2402
10129SOL    HW130965   1.007   9.346   0.253 -1.4403 -1.0933 -1.9562
10129SOL    HW230966   1.107   9.240   0.295 -0.2530  1.3304  1.8064
10130SOL     OW30967   7.126   6.059   0.403  0.0249 -0.3335 -0.7643
10130SOL    HW130968   7.195   6.078   0.340  0.8157  1.2604  0.5045
10130SOL    HW230969   7.072   6.138   0.404 -3.6052 -2.4078 -3.6897
10131SOL     OW30970   4.304   8.228   4.372 -0.4492 -0.2729 -0.2754
10131SOL    HW130971   4.320   8.138   4.398  0.6954 -0.5837 -1.9143
10131SOL    HW230972   4.390   8.263   4.351 -0.8573  1.2727  0.4847
10132SOL     OW30973   5.054   5.101   5.302 -0.2443 -0.1858  0.4242
10132SOL    HW130974   5.013   5.092   5.388 -1.8577  0.2836 -0.2403
10132SOL    HW230975   4.988   5.148   5.250  1.9648  2.4649 -0.1930
10133SOL     OW30976   2.457   0.581   9.012  0.0409  0.4932  0.5814
10133SOL    HW130977   2.381   0.640   9.011  0.0016  0.4561 -0.7761
10133SOL    HW230978   2.435   0.513   8.949  0.1774 -0.9064  1.9822
10134SOL     OW30979   0.327   2.196   0.214  0.1936 -0.1416 -0.0571
10134SOL    HW130980   0.413   2.163   0.187 -0.4634 -2.3895  0.4023
10134SOL    HW230981   0.288   2.229   0.133  0.4871 -1.5431 -0.8071
10135SOL     OW30982   7.977   0.169   2.158 -0.2353  0.2903  0.2845
10135SOL    HW130983   8.005   0.078   2.157  1.6452  0.7900  1.2645
10135SOL    HW230984   7.894   0.169   2.205 -0.3911 -0.9349  0.0270
10136SOL     OW30985   4.010   6.316   9.782  0.7495 -0.0753 -0.4010
10136SOL    HW130986   4.007   6.227   9.817  1.7813 -0.8100 -2.0204
10136SOL    HW230987   3.967   6.370   9.848  0.1873 -1.7573  0.6687
10137SOL     OW30988   0.207   0.049   6.886  0.3615  0.0605  0.0372
10137SOL    HW130989   0.295   0.056   6.921  0.4222 -1.8197  0.3323
10137SOL    HW230990   0.219   0.023   6.794  0.1249  2.2233 -0.6853
10138SOL     OW30991   1.813   8.242   9.555  0.0063 -0.7229  0.2639
10138SOL    HW130992   1.765   8.194   9.488 -0.5965  0.9132 -0.5225
10138SOL    HW230993   1.782   8.206   9.638 -1.9546 -0.3109 -0.2454
10139SOL     OW30994   0.673   7.207   8.771 -0.1567 -0.2829 -0.2271
10139SOL    HW130995   0.623   7.281   8.739 -1.4082 -0.8192  0.4026
10139SOL    HW230996   0.611   7.157   8.825  1.0018 -1.0817  0.4296
10140SOL     OW30997   6.182   1.695   3.376 -0.2697  0.2624  0.2543
10140SOL    HW130998   6.275   1.676   3.390 -0.1409  0.1148 -0.7576
10140SOL    HW230999   6.146   1.614   3.340 -0.9044  0.1585  1.0704
10141SOL     OW31000   1.839   1.254   3.288 -0.6720 -0.3903 -0.0396
10141SOL    HW131001   1.803   1.166   3.276  0.0550 -0.6361 -0.4998
10141SOL    HW231002   1.816   1.301   3.208 -1.3385 -0.0548  0.3420
10142SOL     OW31003   1.255   8.385   6.064 -0.2761 -0.8694 -0.3075
10142SOL    HW131004   1.210   8.447   6.007  0.1340 -0.5312 -0.2646
10142SOL    HW231005   1.347   8.410   6.060 -0.2492 -0.8123  0.5389
10143SOL     OW31006   8.050   6.897   1.724 -0.0059 -0.4014  0.1837
10143SOL    HW131007   8.088   6.810   1.733 -1.4553 -1.3094 -1.7591
10143SOL    HW231008   7.998   6.893   1.644 -1.1340  1.8813  0.7052
10144SOL     OW31009   7.306   9.016   7.115 -0.1745  0.3981 -0.0201
10144SOL    HW131010   7.324   9.095   7.167  0.9130 -0.7647  1.4528
10144SOL    HW231011   7.305   8.945   7.179 -1.4778 -0.7658 -1.2696
10145SOL     OW31012   0.211   0.552   8.305 -0.6272 -0.7526  0.3161
10145SOL    HW131013   0.150   0.517   8.240 -1.4066 -0.1774  0.7202
10145SOL    HW231014   0.274   0.603   8.255 -0.4739 -1.3528 -0.1084
10146SOL     OW31015   8.110   9.521   2.896  0.6589 -0.5633  0.1916
10146SOL    HW131016   8.053   9.597   2.878  0.5173 -0.1356  2.2008
10146SOL    HW231017   8.171   9.520   2.823  0.4146  1.2628 -0.1000
10147SOL     OW31018   6.859   0.346   9.665  0.0539  0.5005  0.0881
10147SOL    HW131019   6.868   0.431   9.620  0.2093  0.7885  0.6525
10147SOL    HW231020   6.938   0.340   9.719 -0.2360  0.2571  0.4858
10148SOL     OW31021   0.575   6.545   0.412  0.7245  0.1987 -0.2695
10148SOL    HW131022   0.511   6.479   0.438  0.1950  0.8137  0.0212
10148SOL    HW231023   0.660   6.502   0.424  0.3626 -0.7112 -0.9100
10149SOL     OW31024   3.672   2.272   7.741 -0.0036 -1.2447 -0.0696
10149SOL    HW131025   3.698   2.331   7.670 -1.1717 -1.3677 -0.6246
10149SOL    HW231026   3.673   2.327   7.819  0.3522 -0.8618 -0.3367
10150SOL     OW31027   4.661   0.162   0.134  0.3521 -0.2290  0.2608
10150SOL    HW131028   4.587   0.196   0.185 -0.5583  0.7883 -1.6423
10150SOL    HW231029   4.737   0.171   0.193 -0.8320 -0.3265  1.8775
10151SOL     OW31030   1.244   2.496   1.328  0.5010  0.5453  0.1653
10151SOL    HW131031   1.155   2.516   1.299  0.2267  0.5783  1.0043
10151SOL    HW231032   1.256   2.404   1.305  0.2843  0.5635 -0.0258
10152SOL     OW31033   5.183   4.132   4.665 -0.0506 -0.0143  0.2258
10152SOL    HW131034   5.116   4.164   4.725 -0.8433 -1.5535  0.1804
10152SOL    HW231035   5.191   4.202   4.599 -1.0033  0.5460  0.6808
10153SOL     OW31036   6.392   0.860   7.428 -0.1665  0.2255  0.0826
10153SOL    HW131037   6.363   0.940   7.384  0.1689  1.1292  1.4720
10153SOL    HW231038   6.480   0.879   7.458  0.8783 -1.5129 -1.5939
10154SOL     OW31039   2.059   1.865   4.174  1.0770 -0.1606  0.1776
10154SOL    HW131040   2.007   1.917   4.113  0.0820 -2.4495 -1.0346
10154SOL    HW231041   1.995   1.835   4.239  1.0833 -1.9442 -0.5987
10155SOL     OW31042   1.046   4.264   8.733  0.0299 -0.1317 -0.3258
10155SOL    HW131043   1.090   4.180   8.720  1.5534  0.6558 -0.5803
10155SOL    HW231044   0.967   4.259   8.680  0.8409 -0.8915 -1.5167
10156SOL     OW31045   2.041   2.930   8.604  0.1705 -0.1922  0.3291
10156SOL    HW131046   2.046   3.014   8.558  0.7280 -0.3734  0.0528
10156SOL    HW231047   2.131   2.914   8.634 -0.0230 -0.4700  0.7827
10157SOL     OW31048   0.640   0.044   6.623 -0.1047 -0.3092 -0.1382
10157SOL    HW131049   0.650  -0.029   6.684 -1.5145  0.6390  1.2845
10157SOL    HW231050   0.627   0.002   6.538 -0.1132 -1.7002  0.5246
10158SOL     OW31051   8.828   6.839   2.124  0.3887 -0.1577 -0.1314
10158SOL    HW131052   8.861   6.838   2.214  0.1711 -1.5696 -0.0411
10158SOL    HW231053   8.768   6.913   2.122  0.5966  0.0550  0.8123
10159SOL     OW31054   5.607   3.249   4.742  0.3224 -0.4319  0.4487
10159SOL    HW131055   5.622   3.198   4.662 -0.7287  1.7648 -1.2580
10159SOL    HW231056   5.532   3.207   4.784 -1.9761  0.8115 -2.0888
10160SOL     OW31057   0.722   9.353   7.073  1.1529  0.1207 -0.1729
10160SOL    HW131058   0.736   9.359   7.167 -0.3456 -2.4065  0.2840
10160SOL    HW231059   0.725   9.260   7.054  0.6177  0.5182 -2.5119
10161SOL     OW31060   3.375   3.511   7.417  0.2933  0.3024  0.3143
10161SOL    HW131061   3.334   3.525   7.503  0.8492  1.8212  0.3644
10161SOL    HW231062   3.455   3.563   7.420  1.5362 -1.4781 -0.3008
10162SOL     OW31063   3.747   5.247   5.556 -0.1673  0.4244  0.1495
10162SOL    HW131064   3.749   5.169   5.501 -1.6683 -2.1292  3.3967
10162SOL    HW231065   3.655   5.273   5.559 -0.2287  0.1511  1.7927
10163SOL     OW31066   4.731   0.345   9.931 -0.6178 -0.2814  0.0230
10163SOL    HW131067   4.716   0.310   9.843 -0.0007  0.2098 -0.2798
10163SOL    HW231068   4.722   0.268   9.988  1.0100 -1.0332 -0.6626
10164SOL     OW31069   7.932   6.711   2.154  0.0572  0.4600 -0.2614
10164SOL    HW131070   7.942   6.640   2.091 -1.2369  1.5617 -1.7919
10164SOL    HW231071   7.957   6.790   2.105  1.2040  1.1194  1.3059
10165SOL     OW31072   0.795   0.806   0.719  0.6539  0.3136 -0.2359
10165SOL    HW131073   0.744   0.726   0.725  1.7286 -0.3322  0.6447
10165SOL    HW231074   0.882   0.777   0.691  1.3221  1.0460  1.0038
10166SOL     OW31075   8.856   1.008   9.367 -0.3111  0.2433  0.5316
10166SOL    HW131076   8.930   1.028   9.426 -0.7824 -0.4030  1.3725
10166SOL    HW231077   8.824   0.923   9.398  0.5196 -0.9972 -1.7664
10167SOL     OW31078   4.131   6.784   6.654 -0.3244  0.1232  0.2315
10167SOL    HW131079   4.098   6.696   6.637 -0.6452  0.4448 -0.8378
10167SOL    HW231080   4.158   6.781   6.746 -0.1082 -1.1531  0.1435
10168SOL     OW31081   7.980   4.971   6.190 -0.5803  0.3561  0.0903
10168SOL    HW131082   7.943   4.979   6.102  0.4987 -0.9247 -0.5119
10168SOL    HW231083   7.917   4.918   6.239 -0.0404 -0.9995 -0.6426
10169SOL     OW31084   5.540   8.989   2.687  0.3975  0.7413  0.6024
10169SOL    HW131085   5.580   8.917   2.735  1.1162  0.2391 -0.7278
10169SOL    HW231086   5.587   9.067   2.717  2.9458  0.1154 -1.3807
10170SOL     OW31087   0.241   9.880   7.535  0.1468 -0.0998 -0.2815
10170SOL    HW131088   0.208   9.827   7.462  0.4648  1.2805 -1.4817
10170SOL    HW231089   0.325   9.841   7.558 -0.2987 -0.9982 -0.1382
10171SOL     OW31090   9.213   7.495   7.570  0.1774  0.2688 -0.2238
10171SOL    HW131091   9.282   7.444   7.527 -0.0652 -0.6118  0.3953
10171SOL    HW231092   9.211   7.462   7.659 -1.1234  0.1924 -0.2590
10172SOL     OW31093   2.172   9.273   5.660 -0.2566 -0.1183 -0.0720
10172SOL    HW131094   2.084   9.241   5.680  0.5057 -1.7518  0.8476
10172SOL    HW231095   2.169   9.297   5.567 -1.6412 -0.1748 -0.0544
10173SOL     OW31096   5.525   7.156   5.245  0.8400 -0.1823  0.3917
10173SOL    HW131097   5.509   7.245   5.275 -0.2452 -0.4066  0.5419
10173SOL    HW231098   5.500   7.156   5.153 -0.4281 -0.6158  0.7078
10174SOL     OW31099   5.239   6.308   5.558 -0.2164  0.8253 -0.4832
10174SOL    HW131100   5.227   6.366   5.634 -1.5641 -0.4819  0.3617
10174SOL    HW231101   5.160   6.321   5.506  0.1328  0.7847 -1.0287
10175SOL     OW31102   0.531   3.816   1.140 -0.1237  0.1098 -0.0614
10175SOL    HW131103   0.565   3.865   1.215 -0.0558  1.4221 -0.9207
10175SOL    HW231104   0.605   3.810   1.080  0.0083 -1.5032  0.2276
10176SOL     OW31105   4.308   6.869   4.565 -0.3539  0.5229  0.4175
10176SOL    HW131106   4.228   6.835   4.524 -0.3840  0.9852  0.0840
10176SOL    HW231107   4.313   6.960   4.535  1.7203 -0.2284 -1.7461
10177SOL     OW31108   7.581   9.154   1.416 -0.0553  0.4823  0.0731
10177SOL    HW131109   7.557   9.188   1.502  1.1698  0.1918  0.5458
10177SOL    HW231110   7.662   9.199   1.394  0.7021 -0.8709 -0.0249
10178SOL     OW31111   9.324   9.840   1.488 -0.9249  0.9343 -0.1333
10178SOL    HW131112   9.252   9.904   1.483 -0.8720  0.9406 -1.0017
10178SOL    HW231113   9.395   9.880   1.438 -0.1627  1.1004  1.0380
10179SOL     OW31114   4.665   6.627   4.930 -0.4694 -0.1047 -0.0520
10179SOL    HW131115   4.605   6.560   4.962 -0.7029 -0.8145 -1.8606
10179SOL    HW231116   4.613   6.708   4.930 -0.4811 -0.0912  1.1995
10180SOL     OW31117   3.541   5.971   2.508  0.7356 -0.2405  0.3450
10180SOL    HW131118   3.514   6.018   2.587 -3.2335  0.7568 -1.3590
10180SOL    HW231119   3.602   6.030   2.465  0.0979  0.8977  0.9414
10181SOL     OW31120   5.280   9.227   3.338  0.1231 -0.0760  0.0062
10181SOL    HW131121   5.246   9.291   3.401  1.6172  1.4615 -0.6709
10181SOL    HW231122   5.238   9.251   3.255 -0.5179 -1.0051  0.0495
10182SOL     OW31123   0.143   7.276   5.744  0.0205 -0.4154 -0.1110
10182SOL    HW131124   0.149   7.181   5.729 -0.4395 -0.3399 -0.7726
10182SOL    HW231125   0.234   7.303   5.760  0.1083 -1.0267  0.4665
10183SOL     OW31126   5.791   6.548   4.786  0.6649 -0.5076 -0.2682
10183SOL    HW131127   5.853   6.614   4.755  0.8133 -0.9729 -1.0073
10183SOL    HW231128   5.782   6.564   4.880  1.0170  0.2899 -0.3673
10184SOL     OW31129   0.605   4.245   4.939  0.2867 -0.5258  0.3591
10184SOL    HW131130   0.584   4.204   5.023 -2.0440  2.4872  1.4185
10184SOL    HW231131   0.660   4.320   4.962 -1.7980  1.3662 -0.4887
10185SOL     OW31132   8.040   1.137   7.860  0.7594 -0.2859 -0.0801
10185SOL    HW131133   8.031   1.079   7.784  1.0264 -0.4577  0.0169
10185SOL    HW231134   7.956   1.132   7.905  0.3638  0.3341 -0.7276
10186SOL     OW31135   1.359   5.037   5.601  0.5922 -0.6982  0.4004
10186SOL    HW131136   1.413   4.959   5.610  1.4535 -0.2018 -0.3212
10186SOL    HW231137   1.369   5.063   5.509  0.6590  0.5075  0.7295
10187SOL     OW31138   0.173   6.253   9.070  0.0017  0.5088 -0.1528
10187SOL    HW131139   0.252   6.307   9.067  0.7742 -0.5825 -0.1983
10187SOL    HW231140   0.174   6.205   8.987 -1.3998  1.3900 -0.7113
10188SOL     OW31141   5.998   0.646   5.290  0.0519  0.5785  0.1998
10188SOL    HW131142   5.936   0.583   5.253  0.1690  0.1097  0.7952
10188SOL    HW231143   6.084   0.612   5.266  0.1640 -0.1831  1.5783
10189SOL     OW31144   9.534   5.517   3.475  0.1458  0.3285  0.2167
10189SOL    HW131145   9.562   5.454   3.540 -1.3329  1.4783  2.0819
10189SOL    HW231146   9.556   5.602   3.513 -0.3678  1.0290 -0.9846
10190SOL     OW31147   9.696   5.161   5.448  0.6562  0.2106  0.3723
10190SOL    HW131148   9.648   5.243   5.462  0.5079 -0.0928  1.8583
10190SOL    HW231149   9.704   5.123   5.536  1.4610 -0.9588 -0.1797
10191SOL     OW31150   0.581   3.508   0.078 -0.0803 -0.1009 -0.4117
10191SOL    HW131151   0.540   3.553   0.005  0.2923 -0.4902 -0.8672
10191SOL    HW231152   0.533   3.426   0.086  0.3958 -0.4145 -0.7386
10192SOL     OW31153   5.867   4.501   7.281 -0.0117 -0.3770  0.0381
10192SOL    HW131154   5.781   4.471   7.311 -0.9081  1.1150 -0.8998
10192SOL    HW231155   5.878   4.586   7.324  0.7962 -0.3547 -0.2056
10193SOL     OW31156   4.792   8.391   9.807  0.4252 -0.2243  0.1550
10193SOL    HW131157   4.732   8.374   9.734  1.1279 -0.4912 -0.3646
10193SOL    HW231158   4.748   8.459   9.858  0.4658  0.8249 -1.1685
10194SOL     OW31159   3.662   5.958   8.162  0.4117  0.7177  0.3716
10194SOL    HW131160   3.571   5.929   8.167  0.0445  1.8424  0.7260
10194SOL    HW231161   3.711   5.894   8.213 -0.1425 -0.0217 -0.0015
10195SOL     OW31162   6.921   4.872   7.358  0.3210  0.0085  0.8573
10195SOL    HW131163   6.990   4.906   7.301  0.1476 -0.8543  0.1115
10195SOL    HW231164   6.851   4.845   7.298 -0.1665 -0.2495  1.5256
10196SOL     OW31165   7.246   3.980   4.737 -0.4076 -0.4149 -0.5535
10196SOL    HW131166   7.329   3.994   4.783 -0.5206  0.7592 -0.6896
10196SOL    HW231167   7.180   4.016   4.795 -0.8483 -1.4013 -0.4208
10197SOL     OW31168   7.810   7.074   2.983 -0.2845 -0.0915  0.1648
10197SOL    HW131169   7.730   7.116   2.952 -0.9833  0.2803  2.3035
10197SOL    HW231170   7.834   7.013   2.913 -2.6197 -0.4674 -0.4075
10198SOL     OW31171   9.288   0.188   7.769  0.2064 -0.4215 -0.4124
10198SOL    HW131172   9.256   0.123   7.831 -2.9494  0.6626 -0.7244
10198SOL    HW231173   9.276   0.272   7.815 -1.6195  0.3526 -2.1790
10199SOL     OW31174   6.844   1.492   5.235 -0.3276 -0.2980  0.2807
10199SOL    HW131175   6.879   1.527   5.317  1.6186 -0.4165 -0.4268
10199SOL    HW231176   6.788   1.562   5.201  0.6120  0.6707  0.6562
10200SOL     OW31177   3.989   8.403   3.550  0.4568  0.6829 -0.5501
10200SOL    HW131178   4.075   8.361   3.552 -0.0609 -0.4581 -1.2165
10200SOL    HW231179   4.008   8.495   3.532  1.4898  0.2789 -1.6830
10201SOL     OW31180   4.987   9.760   5.027 -0.1079  0.0467 -0.7743
10201SOL    HW131181   5.021   9.746   5.116 -2.5635  0.3695  0.2814
10201SOL    HW231182   4.966   9.673   4.995  0.1928 -0.0165 -0.8060
10202SOL     OW31183   2.141   5.647   6.488 -0.1198  0.7795  0.2090
10202SOL    HW131184   2.207   5.603   6.542  0.2006 -0.9642 -1.4654
10202SOL    HW231185   2.135   5.593   6.409 -2.7828  1.5006 -0.1862
10203SOL     OW31186   5.445   8.624   2.281  0.0188 -0.3397  0.7223
10203SOL    HW131187   5.404   8.565   2.345  0.1411  1.3699  2.4829
10203SOL    HW231188   5.395   8.611   2.201 -2.8478  0.3063  2.2602
10204SOL     OW31189   9.670   6.652   8.990 -0.3487  0.4054  0.0002
10204SOL    HW131190   9.737   6.605   8.940  1.2908  2.5524  0.0379
10204SOL    HW231191   9.588   6.631   8.945  0.5133 -1.1866 -0.9182
10205SOL     OW31192   7.492   3.223   6.977 -0.5395 -0.0218  0.0643
10205SOL    HW131193   7.491   3.135   7.015 -0.9565  1.1571  3.0285
10205SOL    HW231194   7.572   3.263   7.010  0.1473  0.4856 -2.0331
10206SOL     OW31195   2.562   2.493   2.064  1.0280  0.3244 -0.3654
10206SOL    HW131196   2.649   2.487   2.102  1.6663  1.7683 -1.4663
10206SOL    HW231197   2.576   2.487   1.969  0.2084  2.4227 -0.6860
10207SOL     OW31198   7.124   5.261   0.253  0.0634 -0.2452  0.6075
10207SOL    HW131199   7.130   5.240   0.159 -1.3114  0.7166  0.2775
10207SOL    HW231200   7.127   5.176   0.296  0.7288 -0.7042 -0.2984
10208SOL     OW31201   5.885   8.826   0.415  0.2749 -1.0443 -0.9959
10208SOL    HW131202   5.936   8.798   0.491 -1.5904 -1.0325  0.3350
10208SOL    HW231203   5.865   8.918   0.432 -0.2521 -1.0736 -1.4322
10209SOL     OW31204   3.869   2.937   1.306 -0.0008  0.4727 -0.0137
10209SOL    HW131205   3.792   2.989   1.327 -0.1415 -0.1339  1.0241
10209SOL    HW231206   3.835   2.859   1.261  0.1829  1.0914 -1.2738
10210SOL     OW31207   7.155   6.548   7.980 -0.0403 -0.0939  0.0116
10210SOL    HW131208   7.141   6.476   7.919 -1.0989  0.4597 -0.4191
10210SOL    HW231209   7.234   6.523   8.028  0.1076 -1.1229 -0.7248
10211SOL     OW31210   9.672   8.802   1.231 -0.2553  0.2629 -0.0157
10211SOL    HW131211   9.693   8.802   1.325  0.0531 -2.1434 -0.0255
10211SOL    HW231212   9.577   8.803   1.228 -0.3098 -1.3304  0.4053
10212SOL     OW31213   7.082   2.779   9.368  0.1729 -0.0823 -0.2397
10212SOL    HW131214   7.030   2.859   9.367 -0.7769 -0.6722 -1.2574
10212SOL    HW231215   7.158   2.800   9.421 -0.3544  1.2996  0.0133
10213SOL     OW31216   2.387   9.027   1.728  0.1948 -0.1525  0.4261
10213SOL    HW131217   2.381   8.957   1.792 -1.4940  1.5036  2.2436
10213SOL    HW231218   2.443   9.093   1.768 -2.1042  1.5849  1.0389
10214SOL     OW31219   9.479   5.350   1.554 -0.3772  0.0625 -0.2828
10214SOL    HW131220   9.535   5.274   1.567 -0.6848 -0.6121 -2.5405
10214SOL    HW231221   9.391   5.314   1.545 -0.7411  0.8320  0.0889
10215SOL     OW31222   5.660   3.231   1.212 -0.4515  0.1463  0.0213
10215SOL    HW131223   5.693   3.196   1.129  0.5555  0.5585  0.2245
10215SOL    HW231224   5.609   3.308   1.188 -1.8949 -0.8818 -0.3529
10216SOL     OW31225   2.323   2.683   7.928  0.1759 -0.1483 -0.1994
10216SOL    HW131226   2.229   2.693   7.914  0.3378  1.3148 -0.4207
10216SOL    HW231227   2.341   2.592   7.907 -1.5366 -1.0658  1.9496
10217SOL     OW31228   3.804   0.052   8.837  0.0509  0.3222 -0.1977
10217SOL    HW131229   3.797  -0.043   8.850 -1.9594  0.5607  0.8928
10217SOL    HW231230   3.817   0.063   8.743  0.1242 -1.0296 -0.3585
10218SOL     OW31231   0.520   5.653   1.179  0.3557 -0.5347  0.4290
10218SOL    HW131232   0.440   5.692   1.144 -0.3811 -0.9950  1.5201
10218SOL    HW231233   0.535   5.701   1.260 -0.6736 -2.5340  1.9020
10219SOL     OW31234   6.415   1.306   5.663  0.5971 -0.4086  0.3565
10219SOL    HW131235   6.352   1.359   5.614 -0.3474 -0.4360  1.4887
10219SOL    HW231236   6.459   1.370   5.720 -1.4780 -0.9245  2.7043
10220SOL     OW31237   4.754   8.569   0.519  0.4906 -0.0563 -0.2085
10220SOL    HW131238   4.805   8.650   0.530  0.0914  0.1251  0.3371
10220SOL    HW231239   4.729   8.569   0.426  0.6180  0.3691 -0.2463
10221SOL     OW31240   3.367   6.444   3.795  0.0241 -0.1370 -0.3366
10221SOL    HW131241   3.378   6.367   3.740 -2.0014  0.0220 -1.0390
10221SOL    HW231242   3.291   6.424   3.850 -1.7858  2.0386 -1.8719
10222SOL     OW31243   5.970   1.933   6.968  0.5773 -0.1597 -0.5057
10222SOL    HW131244   6.000   1.934   7.058 -0.0348  1.7137 -0.2664
10222SOL    HW231245   5.909   1.860   6.964  1.0340 -0.6108  0.4441
10223SOL     OW31246   0.575   9.733   0.878  0.3514 -0.3281  1.0216
10223SOL    HW131247   0.613   9.820   0.866 -0.8156  0.0684 -0.0152
10223SOL    HW231248   0.490   9.750   0.918  1.0576 -1.1746  2.9953
10224SOL     OW31249   0.008   5.051   6.399 -0.0311  0.3559 -0.0946
10224SOL    HW131250  -0.009   5.032   6.307  2.2067 -0.8850 -0.3367
10224SOL    HW231251   0.090   5.101   6.398  0.3895 -0.2581  1.2545
10225SOL     OW31252   6.522   0.312   0.833 -0.7328 -0.1959  0.0415
10225SOL    HW131253   6.611   0.290   0.859 -0.8890 -0.8461  0.0698
10225SOL    HW231254   6.515   0.406   0.844 -0.2003 -0.2098  0.5133
10226SOL     OW31255   4.354   8.927   8.633 -0.2541  0.2660  0.5705
10226SOL    HW131256   4.341   8.860   8.700  0.0221 -0.2370  0.1269
10226SOL    HW231257   4.275   8.923   8.580  0.5396 -1.0054 -0.5718
10227SOL     OW31258   5.794   4.616   3.725 -0.4508 -0.5444 -0.4644
10227SOL    HW131259   5.735   4.608   3.650  0.0558  3.3784 -1.5052
10227SOL    HW231260   5.738   4.650   3.795 -0.4635 -2.0959  0.3179
10228SOL     OW31261   3.530   6.978   4.236  0.0411 -0.2250  0.4949
10228SOL    HW131262   3.598   7.044   4.226  0.5530 -0.9044 -0.6815
10228SOL    HW231263   3.501   6.986   4.327  2.3429 -0.5496  1.3070
10229SOL     OW31264   8.201   7.399   6.207 -0.1652  0.0275 -0.2527
10229SOL    HW131265   8.146   7.472   6.236  0.8645  0.8651 -0.3353
10229SOL    HW231266   8.168   7.377   6.120  0.7547  1.7585 -1.1008
10230SOL     OW31267   2.134   1.359   0.614 -1.1789 -0.6159 -0.4374
10230SOL    HW131268   2.156   1.270   0.586 -1.5720 -0.8465 -0.0330
10230SOL    HW231269   2.192   1.376   0.688 -0.6465 -0.2816 -0.9230
10231SOL     OW31270   0.798   7.593   8.962  0.1640 -0.3565 -0.4628
10231SOL    HW131271   0.710   7.578   8.928  0.0624 -0.7400 -0.0392
10231SOL    HW231272   0.800   7.546   9.045  0.7623 -0.3292 -0.4583
10232SOL     OW31273   0.735   8.915   5.869 -0.0071 -0.4651 -0.2795
10232SOL    HW131274   0.672   8.871   5.926 -0.7159  0.6605 -0.1503
10232SOL    HW231275   0.756   8.996   5.915 -0.6630  0.5125 -1.6292
10233SOL     OW31276   1.607   3.088   9.044  0.2689  0.2291 -0.4378
10233SOL    HW131277   1.535   3.052   8.993  0.6118  1.9366 -2.2364
10233SOL    HW231278   1.651   3.011   9.081 -1.6159 -0.9013 -0.4455
10234SOL     OW31279   0.501   2.711   4.663 -0.1310 -0.4021  0.1353
10234SOL    HW131280   0.454   2.638   4.704 -3.3245  1.7485  0.7089
10234SOL    HW231281   0.587   2.711   4.705 -1.4177 -1.4936  3.0187
10235SOL     OW31282   5.582   6.290   2.590 -0.5458  0.1333 -0.0117
10235SOL    HW131283   5.632   6.348   2.532 -0.5347  0.2124  0.0770
10235SOL    HW231284   5.554   6.218   2.534 -0.9611  0.4627 -0.2339
10236SOL     OW31285   5.900   1.366   9.398 -0.3632  0.6935  0.8203
10236SOL    HW131286   5.903   1.272   9.413  2.3473  0.7481  1.0359
10236SOL    HW231287   5.820   1.395   9.444 -1.3261 -1.4670  0.6126
10237SOL     OW31288   9.211   5.688   8.740 -0.7412 -0.3481 -0.1132
10237SOL    HW131289   9.277   5.646   8.795 -0.4251  0.2493 -0.0241
10237SOL    HW231290   9.128   5.668   8.783 -0.6814 -1.5610 -0.5210
10238SOL     OW31291   0.449   8.778   1.078 -0.4182 -0.4058  0.2403
10238SOL    HW131292   0.463   8.839   1.005  0.6184 -0.3125  0.5089
10238SOL    HW231293   0.430   8.835   1.153 -3.0461 -0.5332 -0.2314
10239SOL     OW31294   9.738   3.888   3.887  0.4191 -0.0837 -0.4482
10239SOL    HW131295   9.746   3.980   3.913 -0.7011 -0.1005  0.0305
10239SOL    HW231296   9.701   3.845   3.964 -0.7363 -0.5878 -1.2458
10240SOL     OW31297   1.362   7.485   5.449  0.4113 -1.0501 -0.1574
10240SOL    HW131298   1.277   7.451   5.475 -0.6297  1.2527 -0.2875
10240SOL    HW231299   1.374   7.456   5.358  0.1256 -1.9980  0.1017
10241SOL     OW31300   1.676   6.013   2.541  0.6164  0.2572  0.0008
10241SOL    HW131301   1.623   5.937   2.565  1.0606 -0.0432  0.0491
10241SOL    HW231302   1.757   5.976   2.507  0.0631  0.6552 -1.8984
10242SOL     OW31303   5.591   7.866   9.931 -0.4181  0.7420 -0.2620
10242SOL    HW131304   5.657   7.911   9.985  0.2985 -0.6340  0.0579
10242SOL    HW231305   5.508   7.886   9.974  0.0361  0.5509  0.7619
10243SOL     OW31306   2.323   0.277   5.861  0.1264 -0.1585  0.9510
10243SOL    HW131307   2.400   0.311   5.816 -0.7379 -1.5068 -1.7920
10243SOL    HW231308   2.270   0.354   5.882 -0.3080  0.5174 -2.2103
10244SOL     OW31309   8.332   0.405   1.074 -0.3515 -0.2459 -0.0909
10244SOL    HW131310   8.406   0.405   1.135 -1.5539  3.5689  1.6483
10244SOL    HW231311   8.268   0.346   1.115  0.3249 -0.7699  0.2422
10245SOL     OW31312   6.911   5.237   6.859 -0.0957 -0.3241 -0.2617
10245SOL    HW131313   6.852   5.189   6.801 -0.6085  1.7690 -1.5841
10245SOL    HW231314   6.949   5.305   6.803  1.2893  0.2519  1.2896
10246SOL     OW31315   0.548   8.842   6.091 -0.3539  0.0860  0.3414
10246SOL    HW131316   0.617   8.781   6.119 -1.4328 -2.1950 -1.6689
10246SOL    HW231317   0.466   8.797   6.112 -1.2115  1.2516 -0.3929
10247SOL     OW31318   0.543   1.453   0.427  0.1841  0.3422 -0.3668
10247SOL    HW131319   0.609   1.422   0.365  1.0870 -0.1338  0.7772
10247SOL    HW231320   0.585   1.526   0.472 -0.2019  0.2809  0.1061
10248SOL     OW31321   3.502   3.231   3.644 -0.4459 -0.2184 -0.3726
10248SOL    HW131322   3.516   3.237   3.738  1.2060 -1.1536 -0.5276
10248SOL    HW231323   3.443   3.304   3.624  0.5415  1.0595  1.1182
10249SOL     OW31324   4.051   0.133   7.641 -0.0530 -0.4509  0.2866
10249SOL    HW131325   4.125   0.131   7.702  0.0510  0.2224  0.1920
10249SOL    HW231326   4.083   0.090   7.562 -0.0366 -0.9074  0.5402
10250SOL     OW31327   9.610   0.950   6.108  0.1696  0.2427  0.2873
10250SOL    HW131328   9.653   0.903   6.179 -1.9352 -3.4387 -0.6034
10250SOL    HW231329   9.523   0.969   6.141 -0.3226 -0.1115 -0.7804
10251SOL     OW31330   0.892   1.222   4.496  0.1728 -0.1583  0.5371
10251SOL    HW131331   0.867   1.199   4.586 -1.1669  2.1893  0.8485
10251SOL    HW231332   0.849   1.306   4.480 -0.8179 -1.1616 -2.8439
10252SOL     OW31333   3.296   2.917   6.900  0.2589  0.1015 -0.2563
10252SOL    HW131334   3.219   2.873   6.863  0.8328 -1.8877  0.7835
10252SOL    HW231335   3.261   2.968   6.973 -0.0999 -0.6781  0.1256
10253SOL     OW31336   0.310   9.109   3.283  0.0915  0.0487 -0.0693
10253SOL    HW131337   0.384   9.147   3.331 -0.3513  1.9576 -0.7993
10253SOL    HW231338   0.348   9.037   3.233  2.0534  2.3958 -2.2567
10254SOL     OW31339   7.731   6.077   8.829 -0.2478 -0.7106 -0.4824
10254SOL    HW131340   7.753   6.050   8.739 -0.3653  1.4993 -1.2342
10254SOL    HW231341   7.811   6.064   8.879  0.8270  0.9981 -1.6705
10255SOL     OW31342   2.046   3.373   2.356 -0.2158  0.4550  0.5297
10255SOL    HW131343   2.079   3.362   2.445 -0.2877  2.3335  0.8151
10255SOL    HW231344   2.055   3.467   2.338  2.2430 -0.1794 -2.3745
10256SOL     OW31345   1.880   4.819   2.646  0.2875  0.1066  0.5165
10256SOL    HW131346   1.829   4.743   2.616  0.1985  0.6785 -0.8872
10256SOL    HW231347   1.946   4.831   2.578  0.2317  1.3385  0.6512
10257SOL     OW31348   0.807   3.131   5.812  0.2826  0.4199  0.2159
10257SOL    HW131349   0.856   3.166   5.887 -0.3375 -1.9201  1.8056
10257SOL    HW231350   0.770   3.209   5.770  0.0677  1.8093  2.7603
10258SOL     OW31351   7.790   7.673   0.623 -0.4546  0.3610 -0.0877
10258SOL    HW131352   7.699   7.699   0.638 -1.1580 -0.9065 -1.8933
10258SOL    HW231353   7.795   7.653   0.530  1.5550 -0.0908  0.0660
10259SOL     OW31354   5.380   0.448   7.432  0.2375 -0.5439 -0.2467
10259SOL    HW131355   5.318   0.415   7.497  0.7783 -0.5287  0.2797
10259SOL    HW231356   5.415   0.369   7.391  1.1854 -0.6297  0.6920
10260SOL     OW31357   4.898   5.598   7.775  0.8463  0.1563  0.2491
10260SOL    HW131358   4.922   5.505   7.767 -0.3987 -0.2234  0.6609
10260SOL    HW231359   4.851   5.617   7.694 -1.5645 -0.4517  1.4255
10261SOL     OW31360   6.265   2.548   5.500  0.2917  0.3889  0.2543
10261SOL    HW131361   6.299   2.569   5.587  0.8599  0.0094  0.1285
10261SOL    HW231362   6.256   2.633   5.456 -1.4646  0.7356  1.1963
10262SOL     OW31363   8.684   2.871   4.488  0.0772  0.0519  0.1094
10262SOL    HW131364   8.690   2.784   4.450  1.7024  0.0505  0.2771
10262SOL    HW231365   8.720   2.862   4.576 -0.5725  0.7137  0.4548
10263SOL     OW31366   9.444   2.652   0.910 -0.1111  0.6140 -0.5139
10263SOL    HW131367   9.456   2.629   1.003  1.1878 -0.4892 -0.9164
10263SOL    HW231368   9.354   2.684   0.905 -0.5210 -0.1922  0.9585
10264SOL     OW31369   5.869   2.510   9.246  0.3895 -0.2353  0.1301
10264SOL    HW131370   5.900   2.523   9.336  1.6662 -2.3450  0.0583
10264SOL    HW231371   5.949   2.494   9.196 -0.3615  0.3027 -1.2792
10265SOL     OW31372   8.378   1.412   9.138  0.0458  0.1266 -0.2084
10265SOL    HW131373   8.311   1.345   9.152  0.5435 -0.6379 -1.3632
10265SOL    HW231374   8.374   1.466   9.217 -1.8411  0.0223 -0.1822
10266SOL     OW31375   4.232   8.313   1.221  1.0217 -0.4918 -0.8570
10266SOL    HW131376   4.197   8.348   1.139 -0.3243 -1.1825 -0.5968
10266SOL    HW231377   4.305   8.256   1.194  1.5603  0.4637 -1.4505
10267SOL     OW31378   7.981   2.702   3.657 -0.6998 -1.0998 -0.0668
10267SOL    HW131379   8.065   2.749   3.647 -1.3360  0.0634 -0.1726
10267SOL    HW231380   7.928   2.760   3.711 -1.4254 -1.8557  0.0470
10268SOL     OW31381   3.480   2.566   4.795  0.1225  0.2537  0.0751
10268SOL    HW131382   3.499   2.508   4.868 -0.0588  1.7248  1.3363
10268SOL    HW231383   3.389   2.548   4.772  0.0759  0.0220  0.4418
10269SOL     OW31384   6.535   1.005   4.311 -0.0335  0.5798  0.4307
10269SOL    HW131385   6.604   1.060   4.272  1.6145 -0.4625  1.7164
10269SOL    HW231386   6.568   0.983   4.398 -1.1608 -1.4617  0.4079
10270SOL     OW31387   9.515   0.735   1.469  0.2589 -0.2334 -0.1954
10270SOL    HW131388   9.446   0.798   1.488 -0.1978 -0.1360 -1.9749
10270SOL    HW231389   9.554   0.766   1.387  2.0791 -0.5779  0.4928
10271SOL     OW31390   9.333   2.200   9.271 -0.1984  0.2948  0.1965
10271SOL    HW131391   9.307   2.121   9.223 -0.4354  0.9032 -0.7267
10271SOL    HW231392   9.312   2.272   9.210  2.7328  0.9108 -0.2082
10272SOL     OW31393   7.053   1.572   1.390 -0.0124  0.1998  1.0184
10272SOL    HW131394   7.093   1.489   1.366 -2.3018 -0.8467  0.5033
10272SOL    HW231395   7.105   1.604   1.464  0.6790 -1.8990  1.5048
10273SOL     OW31396   8.016   1.290   5.854 -0.6965 -0.1151  0.0803
10273SOL    HW131397   7.988   1.200   5.871 -0.8190  0.2741  2.1005
10273SOL    HW231398   7.936   1.336   5.830 -0.9492 -0.1593  0.8090
10274SOL     OW31399   9.043   3.491   3.389 -0.3820 -0.7275  0.3236
10274SOL    HW131400   9.037   3.487   3.294 -0.9345  0.6581  0.2799
10274SOL    HW231401   9.113   3.554   3.406 -2.4107  1.5441  0.7814
10275SOL     OW31402   0.772   6.401   2.975  0.2081 -0.3556  0.1230
10275SOL    HW131403   0.708   6.329   2.976  1.4063 -1.4945 -0.8202
10275SOL    HW231404   0.856   6.358   2.995  0.9858  0.7476 -0.6590
10276SOL     OW31405   4.424   3.668   1.857 -0.1549 -0.2822 -0.1347
10276SOL    HW131406   4.426   3.729   1.931 -3.8439  0.1629 -0.2306
10276SOL    HW231407   4.485   3.705   1.793  1.3688  0.5553  1.7110
10277SOL     OW31408   7.241   5.600   4.965  0.0489  0.0551  0.1284
10277SOL    HW131409   7.163   5.566   4.920 -1.0029  1.4056  0.8567
10277SOL    HW231410   7.300   5.625   4.894 -0.3962 -0.5002 -0.4515
10278SOL     OW31411   8.799   7.401   3.073  0.2918 -0.4221  0.0048
10278SOL    HW131412   8.813   7.391   2.978  0.2442  1.0801 -0.1783
10278SOL    HW231413   8.879   7.368   3.113  0.6673 -0.2754 -0.6073
10279SOL     OW31414   3.958   7.216   4.523 -0.9399  0.0014 -0.0906
10279SOL    HW131415   4.023   7.221   4.453 -2.4725  1.1167 -1.5008
10279SOL    HW231416   3.998   7.265   4.596  1.7626 -3.2918  0.8683
10280SOL     OW31417   1.712   8.225   3.359 -0.2334  0.2151  0.1677
10280SOL    HW131418   1.671   8.170   3.292 -0.2484 -0.4009  0.6704
10280SOL    HW231419   1.736   8.164   3.429 -0.4370  0.8737  0.8270
10281SOL     OW31420   3.776   4.639   8.129  0.0788  1.0060  0.7167
10281SOL    HW131421   3.858   4.619   8.175 -0.2510 -1.7616  0.2340
10281SOL    HW231422   3.791   4.609   8.040 -1.2841  0.9960  0.4839
10282SOL     OW31423   6.613   5.205   1.640 -0.1385 -0.5952 -0.3841
10282SOL    HW131424   6.684   5.269   1.646  0.0876 -0.8961  0.3334
10282SOL    HW231425   6.650   5.125   1.677 -1.4743 -0.2070  2.0474
10283SOL     OW31426   1.499   0.608   0.173  0.2057 -0.4402 -0.2210
10283SOL    HW131427   1.524   0.632   0.262 -0.6006 -0.1787 -0.0581
10283SOL    HW231428   1.582   0.604   0.125  0.8968 -2.6853  1.0131
10284SOL     OW31429   3.887   6.764   6.132  0.7877 -0.4586 -0.0091
10284SOL    HW131430   3.801   6.735   6.104  1.3431 -2.0585 -0.1575
10284SOL    HW231431   3.871   6.844   6.181 -0.8124 -0.9767  0.3611
10285SOL     OW31432   0.558   0.789   4.415  0.1631  0.3280  0.7275
10285SOL    HW131433   0.508   0.838   4.350 -0.9336 -0.4517  0.9691
10285SOL    HW231434   0.493   0.757   4.477  0.9221 -0.9222  0.9066
10286SOL     OW31435   7.571   6.917   1.562 -0.8289 -0.4592  0.1963
10286SOL    HW131436   7.502   6.972   1.524 -0.8482 -0.0602  0.7990
10286SOL    HW231437   7.578   6.946   1.653  0.0250 -0.6053  0.1887
10287SOL     OW31438   9.884   9.330   1.820  0.4283  0.0053 -0.0400
10287SOL    HW131439   9.930   9.253   1.854 -0.8007 -0.7758 -0.0788
10287SOL    HW231440   9.804   9.334   1.872  0.0738  0.7612 -0.6249
10288SOL     OW31441   0.128   6.699   0.378 -0.2334  0.0086  0.4875
10288SOL    HW131442   0.075   6.775   0.402 -0.5685 -0.1140  0.1466
10288SOL    HW231443   0.183   6.730   0.306  0.0732  0.1028  0.7626
10289SOL     OW31444   2.090   4.237   3.630 -0.5158 -0.0173 -0.0147
10289SOL    HW131445   2.141   4.244   3.711 -0.4860  1.6882 -0.1495
10289SOL    HW231446   2.154   4.253   3.560 -0.6561 -0.9204 -0.3739
10290SOL     OW31447   1.310   1.866   3.769 -0.0071  0.3258  0.0247
10290SOL    HW131448   1.257   1.884   3.847 -0.7399  1.3697 -0.7004
10290SOL    HW231449   1.400   1.871   3.801 -0.3117 -0.7894  1.1213
10291SOL     OW31450   4.869   0.030   4.923  0.6708  0.5822 -0.8220
10291SOL    HW131451   4.856   0.081   5.003 -1.9291 -1.2584  0.0765
10291SOL    HW231452   4.893  -0.058   4.954 -0.7153 -0.2582 -1.9741
10292SOL     OW31453   4.321   2.799   5.459  0.1138 -0.5072 -0.1053
10292SOL    HW131454   4.404   2.751   5.469  0.2991 -0.2675 -0.4364
10292SOL    HW231455   4.348   2.885   5.426 -0.0420  0.5698  2.4100
10293SOL     OW31456   1.765   5.780   1.188 -0.2552  0.4450 -0.1682
10293SOL    HW131457   1.858   5.781   1.213  0.1421  0.0387 -1.5633
10293SOL    HW231458   1.719   5.756   1.269  0.8954  0.1224  0.4137
10294SOL     OW31459   3.439   1.279   8.189 -0.2499 -0.0860 -0.0262
10294SOL    HW131460   3.526   1.288   8.228 -0.6374 -2.9890  1.7859
10294SOL    HW231461   3.456   1.266   8.096  1.0741  1.2834 -0.0228
10295SOL     OW31462   0.280   6.982   4.254 -0.6216 -0.8532 -0.4337
10295SOL    HW131463   0.254   7.059   4.204  0.3516  0.6562  1.2289
10295SOL    HW231464   0.308   6.918   4.188  2.2739  1.6250 -1.8695
10296SOL     OW31465   1.886   5.796   6.191 -0.6779 -0.3314  0.4730
10296SOL    HW131466   1.913   5.731   6.255 -0.5375  0.2861  1.0470
10296SOL    HW231467   1.908   5.880   6.231  0.7491  0.0349 -0.9776
10297SOL     OW31468   5.839   3.575   7.273  0.0131  0.3448 -0.3680
10297SOL    HW131469   5.829   3.479   7.274  0.2973  0.3033  1.6138
10297SOL    HW231470   5.751   3.607   7.253 -0.2890 -0.3191 -0.1371
10298SOL     OW31471   4.886   7.150   1.075 -0.4560 -0.0589  0.1075
10298SOL    HW131472   4.915   7.236   1.047 -1.0865 -0.6973 -2.7983
10298SOL    HW231473   4.921   7.090   1.009 -0.7080 -1.9525  1.5938
10299SOL     OW31474   8.444   1.749   2.307  0.1152  0.0076  0.1065
10299SOL    HW131475   8.424   1.840   2.282 -1.0788 -0.1836  0.3011
10299SOL    HW231476   8.362   1.702   2.292  0.1100 -0.6313  1.9206
10300SOL     OW31477   3.840   9.510   0.737  0.3252  0.2457 -0.1451
10300SOL    HW131478   3.757   9.559   0.734 -0.7467 -1.4807 -0.2352
10300SOL    HW231479   3.875   9.517   0.649 -0.1105  0.3791 -0.3106
10301SOL     OW31480   1.495   8.276   3.748  0.5006 -0.3050  0.4348
10301SOL    HW131481   1.485   8.237   3.661  0.4904 -1.1107  0.7864
10301SOL    HW231482   1.586   8.305   3.751  0.1242  1.0237 -0.3556
10302SOL     OW31483   9.924   3.881   6.748 -0.0314 -0.1772 -0.3493
10302SOL    HW131484   9.840   3.839   6.731  0.6486 -1.0169 -1.7906
10302SOL    HW231485   9.901   3.969   6.779 -1.4340  0.0924 -2.0310
10303SOL     OW31486   9.030   3.317   8.567 -0.6106 -0.0173  0.7142
10303SOL    HW131487   8.950   3.343   8.613 -0.8805  0.3663  0.0471
10303SOL    HW231488   8.999   3.285   8.483 -0.0391  0.4033  0.3366
10304SOL     OW31489   6.821   0.335   2.145  0.1579  0.2719  0.4987
10304SOL    HW131490   6.767   0.412   2.165 -3.1365 -1.9779  1.0501
10304SOL    HW231491   6.847   0.348   2.054 -2.0873  1.1680 -0.1090
10305SOL     OW31492   3.772   2.238   1.619  0.3042  0.3134  0.1575
10305SOL    HW131493   3.806   2.163   1.571  0.0432  1.2146 -1.5306
10305SOL    HW231494   3.750   2.204   1.706 -1.1301 -1.9061 -0.9752
10306SOL     OW31495   2.841   2.547   1.315  0.1049 -0.1799 -0.2399
10306SOL    HW131496   2.820   2.597   1.236  0.0396 -0.5503 -0.4588
10306SOL    HW231497   2.789   2.467   1.306 -0.1508 -0.0797  0.3339
10307SOL     OW31498   6.645   3.235   7.448  0.4637  0.3943 -0.1826
10307SOL    HW131499   6.579   3.166   7.442  1.0552 -0.2485  0.4321
10307SOL    HW231500   6.723   3.196   7.410  1.1805  0.2105  1.4018
10308SOL     OW31501   5.798   8.697   4.045 -0.1332  0.1434  0.2597
10308SOL    HW131502   5.801   8.618   4.100  1.2605  0.2818  0.4206
10308SOL    HW231503   5.847   8.672   3.966 -1.8185  0.0584 -0.8127
10309SOL     OW31504   5.230   3.244   3.378  0.5018 -0.1077  0.6712
10309SOL    HW131505   5.195   3.332   3.365  1.4631  0.0658 -1.0671
10309SOL    HW231506   5.290   3.254   3.453 -0.3751  0.4011  1.3264
10310SOL     OW31507   4.562   3.290   1.487 -0.1974 -0.1423 -0.0759
10310SOL    HW131508   4.582   3.213   1.434 -0.7719 -2.2642  2.5417
10310SOL    HW231509   4.644   3.339   1.490  0.3301 -0.8920 -1.3902
10311SOL     OW31510   2.904   3.232   6.980 -0.5801 -0.2528 -0.0511
10311SOL    HW131511   2.999   3.235   6.984 -0.5906 -0.4532  0.3462
10311SOL    HW231512   2.883   3.273   6.896 -0.2903  2.4412  1.1122
10312SOL     OW31513   1.357   6.429   2.099  0.6047 -0.5886 -0.0466
10312SOL    HW131514   1.404   6.503   2.059  3.0798 -1.4466  1.0601
10312SOL    HW231515   1.266   6.457   2.102  1.3517  2.1559 -0.2531
10313SOL     OW31516   2.915   3.619   1.723 -0.3119  0.3740  0.4661
10313SOL    HW131517   2.985   3.554   1.732 -3.0151 -2.7701  0.5883
10313SOL    HW231518   2.867   3.615   1.805 -1.6135  1.2277 -0.2191
10314SOL     OW31519   1.162   3.149   3.174  0.0363  0.2520 -0.2212
10314SOL    HW131520   1.097   3.090   3.211 -1.4973  1.3437 -1.0884
10314SOL    HW231521   1.184   3.208   3.246  1.1669 -0.9730  0.4867
10315SOL     OW31522   0.229   6.473   5.078 -0.0671 -0.0306 -0.1759
10315SOL    HW131523   0.169   6.398   5.085  0.2376 -0.2892 -0.2674
10315SOL    HW231524   0.313   6.433   5.056 -0.0670  0.4059 -0.9903
10316SOL     OW31525   2.026   1.902   7.957 -0.0132 -0.4386 -0.0371
10316SOL    HW131526   2.020   1.873   8.048 -0.7683 -3.1882 -0.8800
10316SOL    HW231527   1.939   1.936   7.937 -0.0149 -0.3609  0.0980
10317SOL     OW31528   6.446   0.191   6.115  0.4191  0.1722 -0.1092
10317SOL    HW131529   6.389   0.120   6.086 -0.9081 -0.0935  2.7991
10317SOL    HW231530   6.529   0.148   6.138  0.5068 -0.0295 -0.8004
10318SOL     OW31531   5.352   6.145   8.311  0.9456  0.2648  0.6080
10318SOL    HW131532   5.447   6.132   8.302  0.9627 -0.8191  2.0232
10318SOL    HW231533   5.330   6.210   8.244  2.6457  0.3584  0.1005
10319SOL     OW31534   9.509   0.246   4.468  0.2573 -0.3908  0.6220
10319SOL    HW131535   9.427   0.213   4.432  0.7784 -1.0523  0.0270
10319SOL    HW231536   9.563   0.169   4.481  2.1119  0.2605 -2.2979
10320SOL     OW31537   8.943   9.830   4.396  0.0680  0.6765 -0.0450
10320SOL    HW131538   8.887   9.871   4.463 -1.6485 -0.5756 -0.6340
10320SOL    HW231539   8.922   9.877   4.315 -3.0218 -2.0399 -1.0450
10321SOL     OW31540   4.004   0.547   8.022 -0.0859  0.1429  0.2170
10321SOL    HW131541   4.060   0.530   8.097 -1.4573 -0.3905  1.1727
10321SOL    HW231542   3.971   0.461   7.997 -0.8967  0.5001  0.0242
10322SOL     OW31543   8.196   1.298   0.502 -0.4253 -0.1773  0.0636
10322SOL    HW131544   8.113   1.280   0.457 -0.0504  0.6243 -0.9805
10322SOL    HW231545   8.170   1.322   0.590 -1.2592 -0.6531 -0.0369
10323SOL     OW31546   4.891   0.440   4.184 -0.7780  0.6273 -0.2796
10323SOL    HW131547   4.952   0.448   4.257 -1.3239  1.8926  0.0540
10323SOL    HW231548   4.853   0.353   4.194  1.0965 -0.2897 -0.6167
10324SOL     OW31549   4.141   2.357   2.421 -0.0336 -0.0245  0.5659
10324SOL    HW131550   4.046   2.355   2.426 -0.1833  1.3816 -0.9547
10324SOL    HW231551   4.169   2.280   2.470 -1.9590 -0.6918  0.6961
10325SOL     OW31552   1.952   3.307   4.899  0.1519 -0.1191 -0.5495
10325SOL    HW131553   1.969   3.395   4.933  2.4925 -0.2333 -1.2808
10325SOL    HW231554   1.947   3.319   4.805  2.7097 -1.0146 -0.8632
10326SOL     OW31555   6.539   9.672   1.584  0.2480  0.0614  0.6404
10326SOL    HW131556   6.475   9.632   1.643  0.3741  1.1661  1.5761
10326SOL    HW231557   6.501   9.662   1.497 -0.4530 -0.6694  1.0144
10327SOL     OW31558   8.687   2.212   0.489  0.2636 -0.1346 -0.2785
10327SOL    HW131559   8.593   2.197   0.479  0.0672  1.0590 -0.3379
10327SOL    HW231560   8.694   2.261   0.571  0.4851  2.6861 -1.8569
10328SOL     OW31561   1.692   9.423   7.243  0.0782 -0.2737  0.5327
10328SOL    HW131562   1.747   9.406   7.168 -0.8273 -1.8967  0.1989
10328SOL    HW231563   1.742   9.391   7.318  0.3154 -0.1241  0.4387
10329SOL     OW31564   5.013   9.583   7.409  0.4412 -0.2031  0.1955
10329SOL    HW131565   5.054   9.509   7.365  0.9286 -0.0051  0.3174
10329SOL    HW231566   5.040   9.660   7.359 -1.5418 -0.2401 -1.0652
10330SOL     OW31567   9.407   9.633   5.342  0.5139 -0.3774  0.1187
10330SOL    HW131568   9.410   9.628   5.247  0.5754 -1.4984  0.1647
10330SOL    HW231569   9.314   9.627   5.364  0.2490  2.4598  0.0448
10331SOL     OW31570   8.116   4.514   0.781 -0.1902  0.0543 -0.1024
10331SOL    HW131571   8.199   4.535   0.738 -0.3679  0.7410 -0.1202
10331SOL    HW231572   8.085   4.436   0.736  0.9572 -0.8317  0.5936
10332SOL     OW31573   6.713   3.168   1.207 -0.4144  0.5082 -0.0283
10332SOL    HW131574   6.677   3.254   1.228 -1.3886 -0.5030  3.0853
10332SOL    HW231575   6.636   3.110   1.205  0.4560 -0.7633  1.1886
10333SOL     OW31576   2.329   3.412   2.057  0.2692 -0.0977  0.7508
10333SOL    HW131577   2.249   3.463   2.071  0.4754  0.3056  0.4992
10333SOL    HW231578   2.302   3.340   1.999  0.1902  0.3322  0.2366
10334SOL     OW31579   0.163   8.625   7.965  0.3042 -0.2004  0.0751
10334SOL    HW131580   0.133   8.680   8.038  1.9038 -0.1437  0.7196
10334SOL    HW231581   0.083   8.581   7.936 -0.4602  0.0633  1.6073
10335SOL     OW31582   2.746   0.375   1.567  0.3947  0.0181  0.6858
10335SOL    HW131583   2.658   0.356   1.599  0.1415  0.1664  0.0851
10335SOL    HW231584   2.736   0.452   1.512  1.2788  1.4841  2.4551
10336SOL     OW31585   1.645   1.591   5.833 -0.6986  0.5937  0.2738
10336SOL    HW131586   1.650   1.515   5.774 -0.2930  1.2155 -0.5077
10336SOL    HW231587   1.671   1.665   5.779  0.6009  1.0539  1.4842
10337SOL     OW31588   3.737   2.683   8.545  0.1094  0.2442 -0.1128
10337SOL    HW131589   3.765   2.595   8.568 -0.6943 -0.4609 -1.6815
10337SOL    HW231590   3.643   2.683   8.559 -0.1829  0.2461 -1.8455
10338SOL     OW31591   4.283   7.909   7.552 -0.3627  0.4153 -0.0169
10338SOL    HW131592   4.339   7.984   7.533 -1.4969  1.3911  0.3399
10338SOL    HW231593   4.253   7.924   7.642 -0.8584 -0.2890 -0.0585
10339SOL     OW31594   4.308   6.846   8.056 -0.2635 -0.3817 -0.1249
10339SOL    HW131595   4.231   6.889   8.095 -0.1030 -0.2721  0.0737
10339SOL    HW231596   4.276   6.809   7.974 -0.4919 -0.2006 -0.1189
10340SOL     OW31597   0.097   5.863   3.460  0.2934 -0.2892 -0.0633
10340SOL    HW131598   0.163   5.879   3.528  0.5991 -1.5720 -0.0177
10340SOL    HW231599   0.115   5.928   3.393  1.0285 -0.0338  0.3691
10341SOL     OW31600   8.066   5.315   4.729  0.4931 -0.1687 -0.2071
10341SOL    HW131601   7.992   5.312   4.668  1.2069 -1.1031 -1.0651
10341SOL    HW231602   8.133   5.366   4.683  1.1366 -1.1148 -0.3415
10342SOL     OW31603   6.937   6.162   9.811  0.2757 -0.0423  0.0222
10342SOL    HW131604   6.847   6.193   9.809  0.8836  2.0662  1.3259
10342SOL    HW231605   6.988   6.238   9.839  2.2017 -1.6887  1.3533
10343SOL     OW31606   2.230   5.621   2.486 -0.2338  0.3011  0.7358
10343SOL    HW131607   2.140   5.592   2.498 -0.4689  0.3968 -0.6751
10343SOL    HW231608   2.273   5.600   2.569 -1.4515 -0.0888  1.2912
10344SOL     OW31609   5.089   5.674   0.172 -0.4690  0.0594  0.5180
10344SOL    HW131610   5.073   5.584   0.142  1.3486  0.0934 -0.7179
10344SOL    HW231611   5.183   5.676   0.194 -0.3170  1.8029 -0.1007
10345SOL     OW31612   7.462   1.635   1.114  0.0347  0.2489  0.1703
10345SOL    HW131613   7.549   1.667   1.139  0.4806 -0.5754 -0.2866
10345SOL    HW231614   7.471   1.608   1.022  0.0959 -2.4827  0.8850
10346SOL     OW31615   3.382   0.614   0.069 -0.1344 -0.2683 -0.0024
10346SOL    HW131616   3.288   0.599   0.058 -0.5321  2.2408 -0.6910
10346SOL    HW231617   3.391   0.644   0.160 -0.0478 -0.2753 -0.0086
10347SOL     OW31618   0.500   8.910   9.166 -0.0119  0.6433  0.6933
10347SOL    HW131619   0.550   8.907   9.248 -0.0277  0.5399  0.7000
10347SOL    HW231620   0.563   8.883   9.099 -0.3972 -0.7698  0.8698
10348SOL     OW31621   7.506   2.466   2.444  0.2369 -0.1906  0.0315
10348SOL    HW131622   7.584   2.522   2.437  0.2711 -0.2665 -0.2190
10348SOL    HW231623   7.456   2.503   2.516 -0.0097  0.4873 -0.4829
10349SOL     OW31624   5.068   6.779   6.012  0.6547  0.3208 -0.2587
10349SOL    HW131625   4.983   6.739   6.032  0.9354 -0.4314 -0.5386
10349SOL    HW231626   5.131   6.726   6.061  0.9340  1.0753  0.2061
10350SOL     OW31627   6.565   1.474   9.658 -0.5064 -0.6056  0.2354
10350SOL    HW131628   6.586   1.405   9.596  0.2909 -0.5575  0.4383
10350SOL    HW231629   6.617   1.454   9.736  0.5355  0.7587 -0.0596
10351SOL     OW31630   6.407   9.847   0.915 -0.0716  0.2816  0.1804
10351SOL    HW131631   6.400   9.868   1.009  2.3731  0.4820  0.3921
10351SOL    HW231632   6.373   9.925   0.871 -1.7595 -0.0332  0.8683
10352SOL     OW31633   7.045   5.396   6.663  0.7181  0.2951  0.0055
10352SOL    HW131634   7.091   5.351   6.592 -0.9005  0.1143 -0.9816
10352SOL    HW231635   6.977   5.446   6.618 -1.0749 -0.7003  1.5134
10353SOL     OW31636   3.012   8.850   4.117 -0.3025  0.1733  0.6732
10353SOL    HW131637   3.006   8.755   4.118 -1.1334  0.2226  0.9684
10353SOL    HW231638   3.084   8.869   4.056 -0.3321 -0.6282  0.3769
10354SOL     OW31639   5.277   4.316   2.304 -0.0816 -0.1134 -0.2768
10354SOL    HW131640   5.325   4.275   2.232  0.1909  0.7817 -0.6258
10354SOL    HW231641   5.333   4.303   2.380  0.2440  0.0520 -0.4848
10355SOL     OW31642   5.969   7.134   2.335 -0.3595  0.7746  0.6192
10355SOL    HW131643   5.920   7.116   2.255  1.1490  1.6715 -0.5656
10355SOL    HW231644   6.007   7.050   2.359  0.0463  0.7034 -0.2355
10356SOL     OW31645   4.081   4.194   8.037  0.3189  0.2387  0.1934
10356SOL    HW131646   4.129   4.249   8.099  0.1106  0.2718  0.3274
10356SOL    HW231647   4.059   4.252   7.965  0.2120  0.2992  0.2743
10357SOL     OW31648   2.959   5.299   0.108 -0.6983 -0.1082 -0.3075
10357SOL    HW131649   2.908   5.237   0.160  0.2586 -0.7324 -0.0804
10357SOL    HW231650   2.911   5.382   0.115 -0.1008  0.1127  2.4635
10358SOL     OW31651   0.012   5.578   7.655 -0.7433 -0.6961 -0.1446
10358SOL    HW131652   0.074   5.585   7.728 -0.4028 -1.1634 -0.3815
10358SOL    HW231653   0.062   5.535   7.585 -1.5367 -1.7107 -0.1030
10359SOL     OW31654   8.289   0.318   8.268  0.1303 -0.0404 -0.2045
10359SOL    HW131655   8.300   0.413   8.273  2.1334 -0.0310 -2.8677
10359SOL    HW231656   8.366   0.282   8.313 -0.6309 -0.4355  0.8155
10360SOL     OW31657   6.294   4.942   7.747 -0.3936  0.0666  0.4196
10360SOL    HW131658   6.256   4.916   7.831  0.2902 -1.3388  0.3290
10360SOL    HW231659   6.219   4.959   7.691 -0.8831  2.4495  1.6813
10361SOL     OW31660   0.725   5.576   7.624 -0.2686  0.0759  0.4315
10361SOL    HW131661   0.693   5.570   7.534  0.1947 -0.4269  0.2964
10361SOL    HW231662   0.741   5.486   7.650 -0.1699  0.2364  0.9378
10362SOL     OW31663   2.897   1.913   7.910  0.1641 -0.2028 -0.4330
10362SOL    HW131664   2.981   1.937   7.949  0.9346 -1.5577 -1.1662
10362SOL    HW231665   2.860   1.995   7.878  0.8692  0.5099  0.5401
10363SOL     OW31666   9.438   8.469   5.856 -0.0345 -0.2874  0.2931
10363SOL    HW131667   9.383   8.544   5.837  0.4972 -0.0351 -0.2814
10363SOL    HW231668   9.398   8.428   5.933  0.2765  1.1800  1.2616
10364SOL     OW31669   0.307   1.753   0.933  0.1538  0.0056 -0.5860
10364SOL    HW131670   0.372   1.724   0.997  0.1564  0.3777 -0.4167
10364SOL    HW231671   0.358   1.799   0.866 -0.0463  1.5076  0.2353
10365SOL     OW31672   4.532   8.227   0.907 -0.5094  0.0107 -0.0398
10365SOL    HW131673   4.595   8.158   0.886 -0.0734  0.6384 -0.7937
10365SOL    HW231674   4.579   8.309   0.892 -1.6055  0.4933 -0.9218
10366SOL     OW31675   6.549   4.692   3.881 -0.3391  0.0393 -0.2507
10366SOL    HW131676   6.608   4.760   3.851  0.7803 -0.7084  0.1938
10366SOL    HW231677   6.475   4.695   3.820 -0.2292  1.5088 -0.3356
10367SOL     OW31678   7.999   8.839   8.874  0.1901 -0.4384  0.0786
10367SOL    HW131679   7.904   8.845   8.867  0.1778  0.1467  0.6308
10367SOL    HW231680   8.027   8.927   8.900  0.8010 -0.8197  0.7584
10368SOL     OW31681   3.856   2.268   2.134 -0.3584 -0.2062  0.5987
10368SOL    HW131682   3.941   2.225   2.121  0.5565  1.7929 -0.4783
10368SOL    HW231683   3.804   2.240   2.059 -0.3126 -0.6468  0.7271
10369SOL     OW31684   3.525   0.175   9.699 -0.5383 -0.0883 -1.0239
10369SOL    HW131685   3.463   0.102   9.703  0.2470 -0.7209  2.4470
10369SOL    HW231686   3.611   0.132   9.698 -0.0822  0.7549  0.3083
10370SOL     OW31687   3.926   5.087   0.275  0.3058  0.0518 -0.2967
10370SOL    HW131688   3.874   5.164   0.249 -0.1499 -0.7068 -1.7580
10370SOL    HW231689   3.861   5.018   0.287  0.8112 -0.3741 -0.0011
10371SOL     OW31690   9.749   1.969   2.980 -0.1087  0.2473  0.0328
10371SOL    HW131691   9.738   1.878   2.951  1.5278 -0.2179  0.7661
10371SOL    HW231692   9.792   2.012   2.907 -0.5641  0.3498 -0.1772
10372SOL     OW31693   4.555   3.810   9.427 -0.3870  0.9425 -0.2044
10372SOL    HW131694   4.521   3.786   9.514 -1.3362  0.3376 -0.7227
10372SOL    HW231695   4.603   3.733   9.397  1.2008  1.6676  0.3708
10373SOL     OW31696   4.020   8.577   6.421 -0.0003  0.5295 -0.4583
10373SOL    HW131697   4.038   8.484   6.436  1.9906  0.9044 -0.1466
10373SOL    HW231698   4.006   8.613   6.508  2.9454  1.1256 -0.1064
10374SOL     OW31699   0.639   5.951   5.710  0.0806  0.1287 -0.0778
10374SOL    HW131700   0.634   6.047   5.709 -0.5017  0.1592 -2.7439
10374SOL    HW231701   0.557   5.923   5.750 -0.1687  0.7574 -0.1383
10375SOL     OW31702   8.087   5.953   8.293 -0.4134  0.6894 -0.7350
10375SOL    HW131703   8.135   6.021   8.246 -1.9661  2.1664 -0.2813
10375SOL    HW231704   8.024   5.919   8.230 -1.3365  1.4620 -0.2484
10376SOL     OW31705   4.451   6.181   5.441 -0.4035  0.4474  0.3096
10376SOL    HW131706   4.536   6.138   5.438 -0.1651  0.9476 -0.2101
10376SOL    HW231707   4.419   6.164   5.530  1.0000  1.7026  1.0866
10377SOL     OW31708   5.959   9.149   4.698  0.0003 -0.2929 -0.5508
10377SOL    HW131709   5.889   9.187   4.645  2.0275  1.6794 -2.0230
10377SOL    HW231710   6.013   9.100   4.635  0.8235 -0.4151  0.2243
10378SOL     OW31711   6.912   3.363   6.218  0.4292  0.6180 -0.5803
10378SOL    HW131712   6.860   3.283   6.214 -0.5067  1.2491 -1.1885
10378SOL    HW231713   6.996   3.339   6.177 -0.1468  0.1752 -1.5323
10379SOL     OW31714   7.678   3.227   5.042  0.1217 -0.3004 -0.7785
10379SOL    HW131715   7.589   3.249   5.070  0.7240 -0.4089  1.3547
10379SOL    HW231716   7.675   3.133   5.022 -0.2720 -0.2656 -0.8870
10380SOL     OW31717   4.114   2.427   4.122 -0.4609  0.6102  0.0958
10380SOL    HW131718   4.123   2.426   4.217  1.1041 -1.5670 -0.0148
10380SOL    HW231719   4.196   2.390   4.090 -1.6940 -0.4218 -2.0285
10381SOL     OW31720   2.696   3.378   1.224 -0.5100 -0.3861 -0.3406
10381SOL    HW131721   2.708   3.315   1.294 -0.8865 -1.7360 -1.4426
10381SOL    HW231722   2.612   3.354   1.184 -0.1140  0.0699 -1.5029
10382SOL     OW31723   6.369   3.754   9.119  0.3186 -0.3263 -0.4133
10382SOL    HW131724   6.426   3.805   9.177 -0.7121 -0.5327  0.8258
10382SOL    HW231725   6.409   3.762   9.033  2.3924 -0.7287  0.4634
10383SOL     OW31726   7.148   6.447   3.462  0.6023  0.3962 -0.0714
10383SOL    HW131727   7.169   6.466   3.370  0.5808 -0.8124 -0.3391
10383SOL    HW231728   7.232   6.453   3.508  1.3021 -2.4276 -0.7923
10384SOL     OW31729   9.138   3.400   2.183 -0.0746  0.0071  0.3855
10384SOL    HW131730   9.159   3.448   2.103  0.0598 -0.6438  0.0252
10384SOL    HW231731   9.071   3.453   2.226 -0.9240 -0.1604 -0.6849
10385SOL     OW31732   9.215   2.006   9.081  0.0007 -0.0752  0.5427
10385SOL    HW131733   9.144   1.976   9.024  0.4153 -0.5257  0.2646
10385SOL    HW231734   9.259   1.926   9.109  0.5770  0.2184  0.4866
10386SOL     OW31735   5.003   8.570   4.101 -0.3640 -0.5761  0.3289
10386SOL    HW131736   4.991   8.626   4.177 -3.2498 -0.8657  0.1855
10386SOL    HW231737   4.975   8.483   4.130  2.3354 -1.6478  0.0322
10387SOL     OW31738   8.033   2.626   0.373 -0.3141 -0.1367 -0.1172
10387SOL    HW131739   8.019   2.668   0.458 -0.4199 -0.9422  0.2714
10387SOL    HW231740   8.112   2.573   0.385 -0.2393 -0.1302 -0.5700
10388SOL     OW31741   9.683   3.744   6.660  0.0251  0.1462  0.1743
10388SOL    HW131742   9.680   3.708   6.749 -0.2061  2.8084  1.3557
10388SOL    HW231743   9.603   3.713   6.619  0.7078 -2.1190  0.4060
10389SOL     OW31744   9.589   5.573   5.942  0.3284  0.2806  0.4165
10389SOL    HW131745   9.495   5.551   5.943  0.2959  0.3939  0.1513
10389SOL    HW231746   9.620   5.552   6.030  0.2609 -0.6641  0.2209
10390SOL     OW31747   8.368   1.570   0.537  0.3129  0.4372  0.2963
10390SOL    HW131748   8.379   1.504   0.468  0.9262 -0.6482  1.3872
10390SOL    HW231749   8.285   1.612   0.517  0.2042 -0.2525 -0.7842
10391SOL     OW31750   4.562   1.279   8.155  0.1724 -0.1329 -0.1144
10391SOL    HW131751   4.617   1.244   8.085 -0.0960 -1.8112  0.4702
10391SOL    HW231752   4.558   1.373   8.138 -0.7877 -0.6138 -3.0045
10392SOL     OW31753   4.020   3.921   5.610  0.7031 -0.1535  0.5748
10392SOL    HW131754   4.098   3.883   5.651 -0.6422 -1.0091  2.4976
10392SOL    HW231755   3.960   3.847   5.601  0.0006  0.5364 -0.6706
10393SOL     OW31756   0.267   0.209   1.825 -0.2587 -0.3141  0.1569
10393SOL    HW131757   0.341   0.164   1.865  0.9290 -0.3978 -1.9682
10393SOL    HW231758   0.192   0.152   1.841  0.6271 -1.4977  0.1877
10394SOL     OW31759   0.668   6.932   2.633  0.1136  0.6181 -0.5066
10394SOL    HW131760   0.763   6.932   2.623  0.0427  1.8957 -1.4159
10394SOL    HW231761   0.646   6.843   2.660  1.5903  0.3870 -0.0130
10395SOL     OW31762   1.225   6.899   8.548 -0.0943  0.2098 -0.2355
10395SOL    HW131763   1.148   6.930   8.500  1.1469  0.7724 -1.9428
10395SOL    HW231764   1.296   6.954   8.516  1.3173 -1.3553  0.1250
10396SOL     OW31765   3.941   0.898   4.705  0.5488  0.3931 -0.4711
10396SOL    HW131766   4.026   0.912   4.662  1.6155  0.7857  1.6597
10396SOL    HW231767   3.890   0.975   4.682  1.4822  1.1164 -0.1690
10397SOL     OW31768   4.284   5.909   1.305  0.2710 -0.0891 -0.0072
10397SOL    HW131769   4.192   5.931   1.320  0.5493  1.4351 -0.2712
10397SOL    HW231770   4.322   5.902   1.392  0.0661  0.0890  0.0975
10398SOL     OW31771   7.612   4.799   5.113  0.4002  0.1073  0.2042
10398SOL    HW131772   7.542   4.783   5.050  0.8564 -1.2201 -0.0157
10398SOL    HW231773   7.588   4.880   5.157  0.6074  1.7324 -2.4308
10399SOL     OW31774   5.965   6.316   5.840 -0.2390  0.1375 -0.2555
10399SOL    HW131775   6.004   6.257   5.904  1.0886  0.8384 -0.3793
10399SOL    HW231776   6.039   6.347   5.787 -1.3077 -0.5007 -2.2090
10400SOL     OW31777   3.117   2.632   3.911  0.6529  0.6037 -0.2068
10400SOL    HW131778   3.194   2.617   3.857  1.6547 -0.1264  1.3624
10400SOL    HW231779   3.150   2.632   4.001 -1.2999 -0.7755  0.5801
10401SOL     OW31780   5.624   1.920   9.348 -0.1397 -0.1556  0.0450
10401SOL    HW131781   5.668   1.835   9.345 -1.9846 -1.1827  0.8116
10401SOL    HW231782   5.622   1.949   9.257 -0.3666 -1.4033 -0.3621
10402SOL     OW31783   1.160   6.534   4.233  0.1422  0.3868 -0.4844
10402SOL    HW131784   1.122   6.457   4.276  0.8085  0.5021  0.3454
10402SOL    HW231785   1.140   6.522   4.140  1.7883 -1.7391 -0.6366
10403SOL     OW31786   2.464   7.700   9.273  0.0776  0.0923  0.0035
10403SOL    HW131787   2.506   7.639   9.214 -1.2158 -0.3718 -0.4704
10403SOL    HW231788   2.402   7.748   9.219  1.9552  2.7886  0.0811
10404SOL     OW31789   3.552   3.370   8.918  0.2470  0.2624  0.1107
10404SOL    HW131790   3.614   3.302   8.943  0.9948 -0.1263 -2.4584
10404SOL    HW231791   3.601   3.452   8.926  1.0119 -0.0019 -1.4477
10405SOL     OW31792   3.489   9.147   7.957  0.2036  0.3223 -0.1994
10405SOL    HW131793   3.541   9.081   7.912 -0.1016  0.0496 -0.1652
10405SOL    HW231794   3.421   9.096   8.002  0.4109  0.5993  0.4399
10406SOL     OW31795   6.098   3.330   3.702  0.5377 -0.0006 -0.1462
10406SOL    HW131796   6.083   3.254   3.647  1.4017 -0.4208  0.1867
10406SOL    HW231797   6.048   3.313   3.782 -1.0322  0.7840 -0.9168
10407SOL     OW31798   3.764   5.812   6.496  0.5105 -0.0804  0.8118
10407SOL    HW131799   3.749   5.788   6.405 -0.5609  1.4474  0.5566
10407SOL    HW231800   3.858   5.801   6.509  0.7381  0.1264 -0.5971
10408SOL     OW31801   7.331   1.891   6.487 -0.0389 -0.0109  0.4049
10408SOL    HW131802   7.385   1.893   6.566  0.1376 -1.3683  0.3438
10408SOL    HW231803   7.279   1.971   6.491  2.3764  1.6759  0.1513
10409SOL     OW31804   4.203   0.075   1.184 -0.3618 -0.6690 -0.0095
10409SOL    HW131805   4.122   0.055   1.231 -0.4631 -1.9780 -0.7100
10409SOL    HW231806   4.187   0.045   1.094  0.1882  0.8869 -0.6751
10410SOL     OW31807   8.581   9.148   3.533  0.0887 -0.2764  0.4714
10410SOL    HW131808   8.636   9.226   3.538 -2.4084  1.6034  0.3016
10410SOL    HW231809   8.506   9.168   3.589 -0.7398 -2.4752  0.2407
10411SOL     OW31810   0.123   4.145   2.446 -0.5830 -0.1263 -0.1588
10411SOL    HW131811   0.159   4.213   2.503 -1.1350  0.9188 -1.0153
10411SOL    HW231812   0.111   4.069   2.503 -2.2042  1.2326  1.4275
10412SOL     OW31813   7.774   8.306   1.309  0.0102 -0.2130  0.2400
10412SOL    HW131814   7.792   8.254   1.388 -1.4639 -1.4272 -0.1570
10412SOL    HW231815   7.723   8.380   1.341 -0.6201 -0.7235  0.4566
10413SOL     OW31816   3.420   8.076   1.896 -0.3958 -0.4399 -0.1899
10413SOL    HW131817   3.429   8.154   1.951  0.4691  1.3584 -2.6944
10413SOL    HW231818   3.330   8.080   1.863  0.0994  0.4949 -1.5632
10414SOL     OW31819   6.013   5.196   9.623  0.5076  0.1940 -0.0304
10414SOL    HW131820   6.010   5.222   9.531  1.4030  0.4351 -0.0043
10414SOL    HW231821   6.085   5.247   9.660 -1.6495  2.2982  1.5264
10415SOL     OW31822   5.493   9.630   2.111  0.4091  0.2801  0.0609
10415SOL    HW131823   5.445   9.699   2.066  0.6337 -0.3899 -1.2431
10415SOL    HW231824   5.585   9.644   2.088  0.6339  0.3995  0.9735
10416SOL     OW31825   1.868   2.883   5.875  0.3803  0.4152 -0.2479
10416SOL    HW131826   1.938   2.930   5.919 -0.8521 -0.2532  2.6305
10416SOL    HW231827   1.800   2.948   5.862  0.8517  0.6790 -1.5205
10417SOL     OW31828   5.539   9.826   3.041 -0.8782 -0.0531 -0.2394
10417SOL    HW131829   5.608   9.823   2.975 -0.5884  1.8434 -0.0686
10417SOL    HW231830   5.469   9.875   3.000 -0.9692  0.5443  0.6137
10418SOL     OW31831   0.120   6.914   8.177  0.2111  0.2878  0.2018
10418SOL    HW131832   0.117   6.998   8.130  1.2633 -0.9564 -2.2592
10418SOL    HW231833   0.032   6.905   8.215  0.0417  2.4182  0.4389
10419SOL     OW31834   6.506   5.229   6.270 -0.2220  0.3078  0.3252
10419SOL    HW131835   6.451   5.268   6.338  0.0269 -2.6236  2.3689
10419SOL    HW231836   6.589   5.276   6.276 -0.8234  1.3814  0.6453
10420SOL     OW31837   1.207   6.144   7.075 -0.2324  0.5687  0.6964
10420SOL    HW131838   1.206   6.177   6.985 -0.7229  0.0856  0.5200
10420SOL    HW231839   1.258   6.209   7.123  4.3341 -1.5127 -0.8006
10421SOL     OW31840   2.697   5.504   0.460 -0.0825 -0.0256  0.2168
10421SOL    HW131841   2.682   5.571   0.526  1.3470  1.2723 -0.6974
10421SOL    HW231842   2.777   5.459   0.488  0.3084  0.2666 -0.4041
10422SOL     OW31843   7.668   2.939   5.096  0.4890 -0.5110 -0.2327
10422SOL    HW131844   7.629   2.933   5.009  2.0963 -0.6895 -0.9860
10422SOL    HW231845   7.707   2.853   5.110  0.9720 -0.2115  0.2989
10423SOL     OW31846   0.467   1.633   7.364 -0.5902 -0.0659 -0.7353
10423SOL    HW131847   0.466   1.694   7.290 -1.6261 -0.1693 -0.8207
10423SOL    HW231848   0.375   1.625   7.390 -0.3276 -0.6451  0.0597
10424SOL     OW31849   8.987   3.003   4.030 -0.3663  0.7380  0.1076
10424SOL    HW131850   9.063   3.058   4.048 -0.2351  0.5384  0.1639
10424SOL    HW231851   9.012   2.915   4.059 -1.1519  0.9518  1.5158
10425SOL     OW31852   0.229   4.718   6.158 -0.3705 -0.0087 -0.3753
10425SOL    HW131853   0.197   4.775   6.227 -0.1943  1.3773 -1.4047
10425SOL    HW231854   0.164   4.648   6.153 -1.2674  0.7682  0.0503
10426SOL     OW31855   1.241   7.729   1.290  0.1713  0.1641  0.0128
10426SOL    HW131856   1.243   7.675   1.212 -0.7531 -0.9843  0.7584
10426SOL    HW231857   1.280   7.674   1.358 -2.5122 -0.3879  1.2369
10427SOL     OW31858   7.010   5.040   2.656  0.4541 -0.5272  0.6709
10427SOL    HW131859   7.064   4.993   2.720  0.8987  0.2596  0.8909
10427SOL    HW231860   6.932   5.066   2.705  0.1709 -1.1071  0.5273
10428SOL     OW31861   9.336   5.840   7.038 -0.0359  0.2716  0.1199
10428SOL    HW131862   9.355   5.767   7.097 -1.7097  0.8112  1.4033
10428SOL    HW231863   9.265   5.809   6.983  0.0258  0.5322 -0.1106
10429SOL     OW31864   3.440   5.638   4.511 -0.3478 -0.3394 -0.0474
10429SOL    HW131865   3.398   5.557   4.541  1.9418 -1.1369  1.2824
10429SOL    HW231866   3.491   5.611   4.435 -0.0542 -0.0162  0.0342
10430SOL     OW31867   3.159   1.871   9.756 -0.2868  0.3433 -0.3627
10430SOL    HW131868   3.103   1.890   9.831  0.8450  0.6425  0.4455
10430SOL    HW231869   3.130   1.785   9.725 -0.0175 -0.3453  1.1739
10431SOL     OW31870   7.077   0.617   3.670 -0.0726  0.0953 -0.0846
10431SOL    HW131871   7.138   0.556   3.713  1.3597  0.5441 -1.4139
10431SOL    HW231872   7.099   0.702   3.707  1.6316  0.5957 -2.0664
10432SOL     OW31873   5.947   7.085   7.616  0.6383 -0.5231 -0.4135
10432SOL    HW131874   6.028   7.050   7.580  0.7020 -1.1111  0.2972
10432SOL    HW231875   5.969   7.110   7.706  0.1194 -0.3646 -0.3279
10433SOL     OW31876   6.613   2.123   2.512 -0.2860  0.5237 -0.1097
10433SOL    HW131877   6.602   2.032   2.541  0.0425 -0.0653 -1.7497
10433SOL    HW231878   6.536   2.167   2.547 -2.2881 -1.1504 -2.0737
10434SOL     OW31879   2.940   6.296   5.369  0.3486  0.0032  0.5537
10434SOL    HW131880   2.892   6.311   5.450 -2.1859  0.4194 -0.9396
10434SOL    HW231881   2.895   6.222   5.328  0.6028  0.7643 -1.1768
10435SOL     OW31882   8.610   7.620   4.669 -0.5510  0.2722 -0.3313
10435SOL    HW131883   8.662   7.683   4.720  0.1642  1.5498 -2.5081
10435SOL    HW231884   8.545   7.673   4.624 -2.4905 -1.0755  0.7553
10436SOL     OW31885   7.261   5.703   3.452 -0.1210 -0.1787 -0.8613
10436SOL    HW131886   7.265   5.707   3.356 -0.9614  1.0635 -0.8663
10436SOL    HW231887   7.201   5.631   3.470  0.5310 -0.8322 -1.2470
10437SOL     OW31888   0.588   4.715   1.543 -0.0272  0.1981 -0.2181
10437SOL    HW131889   0.564   4.635   1.589  0.9524  0.6356  1.1278
10437SOL    HW231890   0.668   4.745   1.587 -0.0059  1.5642 -1.1142
10438SOL     OW31891   2.350   4.871   5.512  0.0584  0.3160 -0.8296
10438SOL    HW131892   2.429   4.818   5.501  0.1306  0.2114  0.1012
10438SOL    HW231893   2.303   4.861   5.430  1.3426  0.9453 -1.6712
10439SOL     OW31894   0.908   9.049   2.603 -0.0650 -0.3230  0.1507
10439SOL    HW131895   0.854   9.088   2.671  0.6669  0.9365  0.0240
10439SOL    HW231896   0.869   8.962   2.589 -0.7073 -0.2901  1.5844
10440SOL     OW31897   6.170   8.987   4.571 -0.1937 -0.3059  0.0848
10440SOL    HW131898   6.223   9.051   4.619 -1.5903  0.7566  0.2702
10440SOL    HW231899   6.232   8.946   4.511  0.6699  1.6102 -0.4280
10441SOL     OW31900   8.520   1.598   3.017  0.3699 -0.0148 -0.1740
10441SOL    HW131901   8.427   1.602   2.994 -0.6752 -0.1237  3.4092
10441SOL    HW231902   8.534   1.506   3.041  1.3885  0.0513 -0.4804
10442SOL     OW31903   6.337   6.018   9.635  0.0449 -0.2942  0.2563
10442SOL    HW131904   6.403   5.970   9.685  1.5633  0.6530 -0.7433
10442SOL    HW231905   6.385   6.053   9.560 -1.9113 -0.7427 -1.2910
10443SOL     OW31906   6.921   2.015   6.496  0.4473  0.2179 -0.6830
10443SOL    HW131907   6.954   2.084   6.438  0.6744  1.5474  0.9563
10443SOL    HW231908   6.857   2.059   6.552 -2.4913 -1.7804 -2.1858
10444SOL     OW31909   3.176   2.625   2.839  0.4739  0.2480 -0.5809
10444SOL    HW131910   3.269   2.622   2.861  0.4319  1.4908 -0.1082
10444SOL    HW231911   3.148   2.534   2.839  1.2364 -0.0232  1.3029
10445SOL     OW31912   9.497   3.094   5.313 -0.4870 -0.0465  0.2254
10445SOL    HW131913   9.480   3.184   5.341  2.9075  1.1697 -1.1085
10445SOL    HW231914   9.553   3.057   5.381  1.4682  0.3070 -1.1288
10446SOL     OW31915   6.404   5.319   4.447  0.2021  0.4713  0.5577
10446SOL    HW131916   6.309   5.320   4.444  0.1769 -0.8677 -1.4233
10446SOL    HW231917   6.426   5.236   4.490  0.3815 -0.6866 -1.6083
10447SOL     OW31918   5.521   1.824   3.713 -0.0546  0.3450  0.5127
10447SOL    HW131919   5.430   1.852   3.710  0.2778  1.7442  2.1386
10447SOL    HW231920   5.541   1.817   3.806  1.3188 -0.5885  0.1747
10448SOL     OW31921   8.859   0.213   4.706  0.8195  0.2874  0.4763
10448SOL    HW131922   8.804   0.207   4.784  0.8774 -0.8739  0.4405
10448SOL    HW231923   8.946   0.185   4.735  0.5639 -1.4051 -0.2504
10449SOL     OW31924   1.393   6.787   2.448 -0.5898  0.0121 -0.0199
10449SOL    HW131925   1.324   6.850   2.464 -0.1473  0.1666  1.4331
10449SOL    HW231926   1.454   6.832   2.389 -1.5202  0.0076 -1.0009
10450SOL     OW31927   2.789   4.234   4.096 -0.1136  0.0284 -0.2078
10450SOL    HW131928   2.722   4.292   4.132 -0.3553 -1.1473  1.3522
10450SOL    HW231929   2.867   4.289   4.089 -0.4037  0.6258  0.9896
10451SOL     OW31930   2.429   4.268   8.305  0.0403  0.2761 -0.5718
10451SOL    HW131931   2.423   4.268   8.400 -2.4576  0.7929 -0.6740
10451SOL    HW231932   2.414   4.359   8.280 -0.3556 -0.0369 -1.5063
10452SOL     OW31933   5.727   0.167   4.432  0.0979  0.7421  0.0993
10452SOL    HW131934   5.709   0.260   4.443 -1.0102  0.8344 -2.0599
10452SOL    HW231935   5.800   0.149   4.492 -1.0755  2.4860  2.1434
10453SOL     OW31936   5.767   6.481   7.028  0.5031  0.3189 -1.0614
10453SOL    HW131937   5.744   6.567   7.064  0.0186 -0.0944 -0.3560
10453SOL    HW231938   5.761   6.493   6.933 -0.2695  0.8780 -0.9529
10454SOL     OW31939   9.849   3.735   2.807  0.2740  0.1671 -0.1981
10454SOL    HW131940   9.846   3.751   2.901 -1.8027  0.0692 -0.2170
10454SOL    HW231941   9.938   3.703   2.792  0.1107 -1.5689  2.0048
10455SOL     OW31942   8.443   6.244   9.602  0.0572  0.3578 -0.5532
10455SOL    HW131943   8.525   6.286   9.627 -0.4372 -0.4167  2.8330
10455SOL    HW231944   8.462   6.150   9.605 -0.5411  0.1910 -1.4729
10456SOL     OW31945   0.007   6.433   7.068  0.0091 -0.0691  0.3181
10456SOL    HW131946   0.006   6.469   7.157  1.2913  1.3964 -0.2155
10456SOL    HW231947   0.091   6.387   7.062  1.3699  2.3886 -1.0128
10457SOL     OW31948   5.571   6.228   1.143 -0.6921 -0.2884 -1.0632
10457SOL    HW131949   5.654   6.242   1.189 -0.4940 -1.8636 -0.8798
10457SOL    HW231950   5.530   6.314   1.141 -0.3955 -0.0005  1.4805
10458SOL     OW31951   3.624   7.155   6.549  0.6064 -0.5356  0.1473
10458SOL    HW131952   3.546   7.208   6.563  0.0911 -1.2438  0.0016
10458SOL    HW231953   3.656   7.134   6.637  1.1959  0.5529  0.2079
10459SOL     OW31954   5.411   5.763   9.128 -0.3327 -0.1948  0.4488
10459SOL    HW131955   5.434   5.730   9.215 -1.0310 -2.1768 -0.0481
10459SOL    HW231956   5.494   5.766   9.081 -0.1130 -0.2511  0.8260
10460SOL     OW31957   8.027   2.048   9.760  0.4730 -0.4067 -0.3447
10460SOL    HW131958   8.014   2.050   9.854  0.4950  2.0528 -0.3376
10460SOL    HW231959   8.088   1.975   9.745  0.0095 -1.2077  1.4356
10461SOL     OW31960   8.928   6.302   3.952 -0.0298 -0.0724 -0.9530
10461SOL    HW131961   8.999   6.265   4.004 -0.5234 -1.2412 -1.0708
10461SOL    HW231962   8.936   6.396   3.964 -1.6424 -0.2787  3.3154
10462SOL     OW31963   5.853   6.606   8.837  0.2875  0.0528 -0.0066
10462SOL    HW131964   5.891   6.679   8.789 -0.0749  1.1231  1.2908
10462SOL    HW231965   5.777   6.642   8.881  0.9269 -0.7162  1.8506
10463SOL     OW31966   6.650   7.258   6.565 -0.0905 -0.2087  0.0913
10463SOL    HW131967   6.660   7.191   6.497  2.2353  0.7426 -0.6169
10463SOL    HW231968   6.639   7.340   6.517 -0.0653  0.2777  0.8892
10464SOL     OW31969   8.310   4.266   6.578  0.2638 -0.0651  0.1064
10464SOL    HW131970   8.352   4.246   6.661  0.3770 -1.0498 -0.1755
10464SOL    HW231971   8.280   4.181   6.545 -0.5603  0.4207 -0.4402
10465SOL     OW31972   4.427   2.127   5.962 -0.5370 -0.3824  0.0085
10465SOL    HW131973   4.472   2.103   6.043 -0.8054 -0.2894  0.1867
10465SOL    HW231974   4.488   2.185   5.917 -0.7137  0.2065  0.5215
10466SOL     OW31975   9.400   0.140   2.906  0.2770  0.1162  0.3349
10466SOL    HW131976   9.488   0.175   2.916 -0.3955  1.9873  0.0442
10466SOL    HW231977   9.393   0.118   2.814  0.3218  0.3406  0.2770
10467SOL     OW31978   8.938   3.687   1.484 -0.1763  0.0373 -0.4805
10467SOL    HW131979   8.989   3.609   1.463  1.9860  1.6240 -1.6016
10467SOL    HW231980   8.867   3.688   1.419  0.8683 -0.0722 -1.6639
10468SOL     OW31981   7.764   3.551   1.650  0.0347  0.2843  0.5197
10468SOL    HW131982   7.748   3.646   1.655  0.2469  0.3277  0.3635
10468SOL    HW231983   7.698   3.519   1.589 -0.4794  0.2298  1.0941
10469SOL     OW31984   3.631   4.862   6.505  0.4999 -0.1155 -0.0292
10469SOL    HW131985   3.578   4.788   6.479 -0.8694  0.2411  1.5790
10469SOL    HW231986   3.589   4.938   6.464  0.6854  0.0026 -0.0060
10470SOL     OW31987   3.337   9.151   5.792 -1.0424 -0.2403  0.3085
10470SOL    HW131988   3.291   9.088   5.848  0.6081 -0.5156  1.4538
10470SOL    HW231989   3.408   9.100   5.752 -0.4669  0.5916  0.2407
10471SOL     OW31990   7.687   4.872   9.635  0.1848 -0.3481 -0.0171
10471SOL    HW131991   7.611   4.825   9.669  0.2263  0.2740  0.9592
10471SOL    HW231992   7.738   4.805   9.589  1.7792 -2.0566  3.8124
10472SOL     OW31993   9.438   8.168   7.407  0.7716 -0.3180 -0.5077
10472SOL    HW131994   9.481   8.249   7.432  0.9596 -0.7059  0.4776
10472SOL    HW231995   9.347   8.179   7.436  0.9346 -0.6791  0.1565
10473SOL     OW31996   4.100   1.370   8.391  0.3382 -0.1527 -0.4346
10473SOL    HW131997   4.085   1.323   8.473 -1.0612 -1.4985 -1.3995
10473SOL    HW231998   4.013   1.397   8.363  0.7214 -0.2617 -1.7912
10474SOL     OW31999   1.985   3.470   3.485  0.1552  0.0151  0.4989
10474SOL    HW132000   2.019   3.413   3.416 -1.6683 -1.6241  0.8404
10474SOL    HW232001   2.015   3.430   3.566 -0.8688 -0.3042  0.7351
10475SOL     OW32002   4.258   0.647   7.596 -0.1341  0.2405  0.0258
10475SOL    HW132003   4.204   0.713   7.639 -0.0009  0.1474  0.3360
10475SOL    HW232004   4.281   0.585   7.665 -0.7651 -0.4773 -0.3780
10476SOL     OW32005   5.019   7.521   8.574 -0.5356 -0.1019  0.2120
10476SOL    HW132006   5.037   7.562   8.659 -1.2246  1.1611 -0.2265
10476SOL    HW232007   5.029   7.427   8.590  1.1108  0.2136  1.2553
10477SOL     OW32008   0.540   9.188   4.906  0.0776 -0.4143 -0.4970
10477SOL    HW132009   0.621   9.206   4.953 -0.1665 -0.2534 -0.1280
10477SOL    HW232010   0.532   9.260   4.843 -0.4515  0.3186  0.3833
10478SOL     OW32011   1.691   8.690   6.138 -0.0410  0.1193  0.1102
10478SOL    HW132012   1.775   8.647   6.131  0.3889  0.7424  1.1256
10478SOL    HW232013   1.701   8.772   6.089  0.0208  0.2943  0.4114
10479SOL     OW32014   5.970   8.481   4.598 -0.1288 -0.3296 -0.2477
10479SOL    HW132015   6.035   8.546   4.625  1.0018 -0.9196 -1.4465
10479SOL    HW232016   5.887   8.528   4.603  0.7182  1.4937 -1.8419
10480SOL     OW32017   6.718   3.614   1.737  0.3385 -0.4064 -0.0001
10480SOL    HW132018   6.661   3.658   1.674 -1.3324  0.2837  1.8653
10480SOL    HW232019   6.678   3.528   1.749  0.2408 -0.2857  0.5876
10481SOL     OW32020   6.075   9.170   0.637  0.2854  0.6533  0.0713
10481SOL    HW132021   6.106   9.160   0.727  1.8634 -1.2642 -0.6359
10481SOL    HW232022   6.150   9.208   0.590  0.0767  0.0172 -0.7856
10482SOL     OW32023   2.324   6.998   7.932 -0.1314  0.2390  0.1087
10482SOL    HW132024   2.328   7.092   7.915  1.0156  0.5644  1.8619
10482SOL    HW232025   2.258   6.990   8.001 -0.3017 -0.2567 -0.1128
10483SOL     OW32026   7.528   7.159   4.233  0.6263 -0.3298  0.7840
10483SOL    HW132027   7.552   7.243   4.194 -1.0137  0.2519  0.9787
10483SOL    HW232028   7.566   7.094   4.174 -2.1553  0.4797 -2.2286
10484SOL     OW32029   4.061   3.397   9.360  0.1849  0.6398  0.1960
10484SOL    HW132030   3.990   3.389   9.423 -0.3292  0.7906 -0.3518
10484SOL    HW232031   4.058   3.316   9.309 -1.0938  1.5792 -1.3337
10485SOL     OW32032   8.847   5.273   2.538  0.4198 -0.0832 -0.1803
10485SOL    HW132033   8.924   5.235   2.580  0.2289 -0.9189 -0.5718
10485SOL    HW232034   8.807   5.328   2.606  1.2841  0.2654  0.0584
10486SOL     OW32035   6.674   7.509   4.651 -0.5742  0.0131  0.0263
10486SOL    HW132036   6.585   7.479   4.633 -0.9493  0.7626  0.5998
10486SOL    HW232037   6.725   7.429   4.659 -1.2587 -0.4305 -0.0008
10487SOL     OW32038   4.978   7.471   9.436  0.2614 -0.1296  0.1566
10487SOL    HW132039   4.958   7.501   9.525 -0.6979  0.0691 -0.1145
10487SOL    HW232040   4.928   7.389   9.427 -0.5385  0.4279 -0.5760
10488SOL     OW32041   0.697   7.597   5.478 -0.0274  0.1786  0.0879
10488SOL    HW132042   0.679   7.654   5.403  0.4763  0.5206  0.2253
10488SOL    HW232043   0.702   7.509   5.441  0.4222  0.3709 -0.3079
10489SOL     OW32044   3.766   5.652   1.851 -0.0619  0.2211  0.4353
10489SOL    HW132045   3.728   5.703   1.779 -1.7131  0.4072  1.4014
10489SOL    HW232046   3.821   5.586   1.807 -1.2742  0.1228 -1.0154
10490SOL     OW32047   0.651   4.203   7.462  0.5125 -0.3351  0.1914
10490SOL    HW132048   0.673   4.242   7.378  0.3179  1.7716  1.0535
10490SOL    HW232049   0.565   4.162   7.448  0.5235 -0.0715 -0.6553
10491SOL     OW32050   6.515   4.030   1.018  0.2643 -0.3839 -0.2733
10491SOL    HW132051   6.573   4.074   1.080  0.2572 -0.4754 -0.2018
10491SOL    HW232052   6.431   4.074   1.027  0.4062 -0.0383 -0.6053
10492SOL     OW32053   3.679   5.534   2.298  0.4096 -0.2279 -0.4085
10492SOL    HW132054   3.640   5.447   2.293 -1.7707  0.5947  0.9336
10492SOL    HW232055   3.682   5.554   2.391  2.6675  0.4317 -0.5549
10493SOL     OW32056   4.091   7.554   8.661  0.6326 -0.3312  0.3621
10493SOL    HW132057   4.051   7.624   8.610  2.2861  0.8230  0.5739
10493SOL    HW232058   4.178   7.542   8.624  0.6770 -1.7634  0.8278
10494SOL     OW32059   3.324   7.297   1.059 -0.0644  0.0365 -0.1736
10494SOL    HW132060   3.398   7.358   1.065 -1.1231  1.3818 -0.2295
10494SOL    HW232061   3.362   7.216   1.028  1.2531  0.9598 -1.0727
10495SOL     OW32062   1.184   2.833   3.862 -0.1661 -0.0929 -0.1521
10495SOL    HW132063   1.247   2.898   3.830  1.0954 -0.9189  0.5321
10495SOL    HW232064   1.168   2.776   3.788 -1.3086  0.9799 -0.7686
10496SOL     OW32065   5.846   7.536   5.306  0.6367  0.4952 -0.1658
10496SOL    HW132066   5.859   7.519   5.212 -0.9535  0.8587 -0.4763
10496SOL    HW232067   5.931   7.519   5.345  1.1844 -0.2121 -1.6020
10497SOL     OW32068   2.598   0.065   1.113  0.1945 -0.0292 -0.1509
10497SOL    HW132069   2.604   0.160   1.121 -1.6385  0.2483 -1.6685
10497SOL    HW232070   2.619   0.046   1.022 -4.2189 -0.5051 -1.2800
10498SOL     OW32071   9.992   9.732   3.137 -0.3817  0.3725  0.3772
10498SOL    HW132072   9.910   9.684   3.151  0.1143 -0.7739 -0.5276
10498SOL    HW232073  10.026   9.698   3.054  0.4939  1.5856  0.2163
10499SOL     OW32074   5.079   9.723   5.324  0.3588  0.1017  0.2020
10499SOL    HW132075   5.168   9.700   5.350 -0.1162 -1.5121  0.5506
10499SOL    HW232076   5.044   9.771   5.400  0.8360  0.4902  0.1777
10500SOL     OW32077   3.717   8.852   6.848  0.2051 -0.2360 -0.4273
10500SOL    HW132078   3.729   8.801   6.768  0.4328 -0.8759  0.0050
10500SOL    HW232079   3.703   8.941   6.818 -1.0865 -0.6840 -1.2489
10501SOL     OW32080   3.938   5.661   0.055 -0.3183 -0.2029 -0.8371
10501SOL    HW132081   3.976   5.712   0.126 -1.6211  0.5753 -0.6514
10501SOL    HW232082   3.855   5.628   0.091 -0.5009 -0.6667 -1.6491
10502SOL     OW32083   8.280   0.271   7.066  0.6948  0.1101 -0.2745
10502SOL    HW132084   8.207   0.227   7.109 -0.8639  1.5560 -1.3105
10502SOL    HW232085   8.353   0.210   7.075 -1.1743 -2.4441 -1.1201
10503SOL     OW32086   6.890   3.480   5.554  0.3214 -0.3560  0.4120
10503SOL    HW132087   6.900   3.534   5.633 -0.4163  0.7499 -0.2288
10503SOL    HW232088   6.811   3.429   5.571 -0.1466  0.2804  0.1709
10504SOL     OW32089   8.851   8.829   9.758  0.3842  0.0341  0.0421
10504SOL    HW132090   8.775   8.800   9.707  0.2014 -0.3715  0.5376
10504SOL    HW232091   8.869   8.917   9.726  0.2972 -0.2245 -0.7553
10505SOL     OW32092   9.700   0.659   9.857 -0.1813 -0.2060 -0.2158
10505SOL    HW132093   9.778   0.714   9.844  0.5215 -0.9281  0.8507
10505SOL    HW232094   9.662   0.652   9.769  0.8376  0.3218 -0.7248
10506SOL     OW32095   3.869   6.545   4.756  0.5203 -0.2433 -0.3618
10506SOL    HW132096   3.841   6.469   4.704 -1.9903  0.8821 -0.7930
10506SOL    HW232097   3.819   6.618   4.721  1.0232  1.1525  1.6466
10507SOL     OW32098   2.582   6.628   7.025 -0.0154 -0.0513 -0.1652
10507SOL    HW132099   2.522   6.703   7.025  0.0988  0.0879  1.8567
10507SOL    HW232100   2.567   6.586   7.110  0.3077 -2.0279 -1.0361
10508SOL     OW32101   3.418   4.811   2.350  0.3775 -0.4899 -0.0706
10508SOL    HW132102   3.336   4.859   2.362  0.8683  0.7483 -1.3763
10508SOL    HW232103   3.486   4.876   2.367  1.0750 -0.8171 -1.4636
10509SOL     OW32104   8.376   6.408   3.542  0.6380  0.1310 -0.3259
10509SOL    HW132105   8.285   6.432   3.524  0.4123 -0.5314 -0.0701
10509SOL    HW232106   8.379   6.314   3.530  1.3257  0.1656 -0.4547
10510SOL     OW32107   9.391   6.827   1.358 -1.1150 -1.0902 -0.2957
10510SOL    HW132108   9.463   6.833   1.295 -1.7476 -0.6356 -0.9963
10510SOL    HW232109   9.386   6.733   1.379  1.7747 -0.8414  2.3167
10511SOL     OW32110   3.695   5.184   3.110 -0.5344 -0.2829 -0.1993
10511SOL    HW132111   3.615   5.150   3.070 -1.6219 -0.4442  1.9816
10511SOL    HW232112   3.673   5.198   3.202  1.5332  1.0457  0.1877
10512SOL     OW32113   3.700   2.188   1.910 -0.1363  0.7481  0.0013
10512SOL    HW132114   3.606   2.187   1.894 -0.1352  0.3482 -0.0001
10512SOL    HW232115   3.725   2.096   1.910  0.1488  0.8197  0.6388
10513SOL     OW32116   0.743   8.711   4.131  0.3516  0.4217 -0.0667
10513SOL    HW132117   0.785   8.741   4.212  0.9606 -0.8322  0.1144
10513SOL    HW232118   0.650   8.705   4.153  0.2871  1.6118  0.0437
10514SOL     OW32119   0.207   5.252   5.020 -0.1236 -0.4819 -0.1114
10514SOL    HW132120   0.210   5.166   5.061  1.2445 -0.9156 -1.0503
10514SOL    HW232121   0.148   5.241   4.946 -1.4382 -0.0854  0.8455
10515SOL     OW32122   5.583   2.761   9.616 -0.4615  0.2002  0.1008
10515SOL    HW132123   5.618   2.727   9.534 -0.9720 -0.5384  0.1789
10515SOL    HW232124   5.497   2.795   9.593 -0.2681  0.7529  0.1762
10516SOL     OW32125   6.911   4.600   8.493 -0.0026  0.7210  0.1262
10516SOL    HW132126   6.995   4.566   8.463 -0.8293  0.1921 -1.6960
10516SOL    HW232127   6.930   4.691   8.518  1.0244  0.7451 -0.6730
10517SOL     OW32128   5.383   5.586   3.380 -0.5282 -0.2269  0.3332
10517SOL    HW132129   5.440   5.597   3.303 -1.1274 -0.0042 -0.0877
10517SOL    HW232130   5.316   5.653   3.370  0.2982  0.8888  1.9096
10518SOL     OW32131   0.794   3.742   3.891  0.3877 -0.8543 -0.4677
10518SOL    HW132132   0.825   3.651   3.886 -1.2732 -1.5047  0.2990
10518SOL    HW232133   0.712   3.737   3.940 -1.2653  0.6679 -2.8596
10519SOL     OW32134  -0.020   9.352   3.953 -0.0528  0.6262 -0.4096
10519SOL    HW132135   0.057   9.406   3.970  0.0795  0.0611  0.9109
10519SOL    HW232136  -0.030   9.299   4.032  0.7408 -2.4075 -2.1572
10520SOL     OW32137   8.401   1.907   4.630  0.1740  0.6676 -0.5576
10520SOL    HW132138   8.432   1.942   4.713 -2.7217  1.3698  0.3182
10520SOL    HW232139   8.419   1.813   4.635  0.7720  0.8316  0.4952
10521SOL     OW32140   4.744   3.381   7.049  0.3557 -0.1646  0.1370
10521SOL    HW132141   4.737   3.462   6.999 -2.0918  0.1231  0.8175
10521SOL    HW232142   4.728   3.407   7.140  0.5933 -1.2672  0.5105
10522SOL     OW32143   5.762   1.273   2.063 -0.1788  0.5788  0.8593
10522SOL    HW132144   5.678   1.317   2.074  0.1007  1.8903 -1.5566
10522SOL    HW232145   5.740   1.189   2.022 -0.3443  0.7175  0.6642
10523SOL     OW32146   2.484   5.160   1.905  0.0104  0.3447 -0.1975
10523SOL    HW132147   2.554   5.139   1.844  0.3911 -2.3865  1.0376
10523SOL    HW232148   2.403   5.136   1.859  0.1223  0.5244 -0.4854
10524SOL     OW32149   2.599   3.587   8.929 -0.0382 -0.2931 -0.0583
10524SOL    HW132150   2.554   3.665   8.961  0.0306 -0.4723  0.4736
10524SOL    HW232151   2.532   3.538   8.882 -0.6612 -1.0367  1.5408
10525SOL     OW32152   9.455   4.829   4.407 -0.6080  0.4753 -0.0950
10525SOL    HW132153   9.393   4.902   4.415 -3.3160 -1.7050  0.4404
10525SOL    HW232154   9.479   4.808   4.497  1.4698  1.6514 -0.3247
10526SOL     OW32155   8.764   1.583   6.643 -0.1985 -0.1406  0.0406
10526SOL    HW132156   8.766   1.657   6.704  0.3531 -0.5801  0.5732
10526SOL    HW232157   8.675   1.548   6.650 -1.2104  1.8428 -1.9214
10527SOL     OW32158   0.626   3.656   6.300  0.1435  0.0300  0.1574
10527SOL    HW132159   0.551   3.598   6.302 -0.3298  0.4667 -2.1572
10527SOL    HW232160   0.589   3.743   6.283  1.0020  0.6911  1.4883
10528SOL     OW32161   0.166   0.976   8.558  0.0099  0.6951 -0.3901
10528SOL    HW132162   0.099   0.911   8.581 -0.5912  1.7858  1.1207
10528SOL    HW232163   0.131   1.059   8.591  0.4388  1.9516 -2.8572
10529SOL     OW32164   0.666   1.137   4.006 -0.2938  0.1160 -0.0636
10529SOL    HW132165   0.719   1.136   4.086 -0.5015 -2.8651  0.1575
10529SOL    HW232166   0.583   1.098   4.032 -0.5653 -0.3953 -1.6117
10530SOL     OW32167   3.954   0.936   1.863  0.1565 -0.4833 -0.1183
10530SOL    HW132168   4.021   0.964   1.800  0.3043 -0.9720 -0.1766
10530SOL    HW232169   3.932   1.016   1.910  0.2768 -0.1737 -0.5719
10531SOL     OW32170   5.917   4.061   2.445 -0.0234 -0.1251 -0.2384
10531SOL    HW132171   5.857   4.040   2.374 -0.1063 -0.6624 -0.0127
10531SOL    HW232172   5.959   4.143   2.418 -0.4549 -0.0369 -0.6484
10532SOL     OW32173   0.278   9.266   0.544  0.2366  1.0014  0.0376
10532SOL    HW132174   0.211   9.315   0.592  0.1719  0.2423  0.7389
10532SOL    HW232175   0.246   9.176   0.543  1.1574  0.6628  0.2377
10533SOL     OW32176   3.124   1.576   7.084 -0.1219  0.1476 -0.1504
10533SOL    HW132177   3.036   1.544   7.105 -0.4649 -0.0285 -1.7450
10533SOL    HW232178   3.115   1.615   6.997  1.4349 -0.0806 -0.4329
10534SOL     OW32179   2.028   8.355   8.576  0.4345 -0.0634 -0.1802
10534SOL    HW132180   2.075   8.401   8.506 -1.0631  0.4754 -0.8795
10534SOL    HW232181   2.030   8.416   8.650  2.0930 -0.6667  0.3077
10535SOL     OW32182   1.907   5.137   1.988  0.3760 -0.1358  0.2281
10535SOL    HW132183   1.971   5.204   1.963  0.0723  0.1307  0.1602
10535SOL    HW232184   1.943   5.055   1.954  1.0104 -0.0927  0.7563
10536SOL     OW32185   6.921   2.063   3.983  0.4270  0.2032  0.2308
10536SOL    HW132186   6.901   2.151   4.017 -0.3336 -0.7158  2.2757
10536SOL    HW232187   6.850   2.008   4.014  0.0070 -0.8897 -2.4020
10537SOL     OW32188   1.874   7.147   1.226  0.8358 -0.4951  0.5668
10537SOL    HW132189   1.846   7.206   1.297 -0.6738 -0.6992  0.1819
10537SOL    HW232190   1.970   7.148   1.230  1.0516  3.9443 -1.0025
10538SOL     OW32191   2.150   4.735   7.512  0.1862  0.2063  0.3327
10538SOL    HW132192   2.176   4.733   7.604 -0.2176  1.3195  0.4789
10538SOL    HW232193   2.145   4.643   7.487 -0.1371 -0.1263  1.5433
10539SOL     OW32194   0.861   8.328   8.259  0.5489 -0.1001  0.8247
10539SOL    HW132195   0.823   8.254   8.307 -0.9241 -0.1034 -0.2777
10539SOL    HW232196   0.939   8.292   8.217 -1.4325 -1.8453 -1.7405
10540SOL     OW32197   5.906   5.029   4.282  0.0722 -0.1716 -0.0897
10540SOL    HW132198   5.843   5.030   4.210 -1.0238  0.3028  0.8579
10540SOL    HW232199   5.912   4.937   4.307 -0.0833 -0.2469 -0.3251
10541SOL     OW32200   0.988   0.660   4.958 -0.0320 -0.7764  0.0688
10541SOL    HW132201   1.009   0.572   4.988  0.9314 -0.6068 -0.0605
10541SOL    HW232202   1.057   0.715   4.995 -0.5321 -0.1007  0.0186
10542SOL     OW32203   0.122   2.256   4.863  0.1505  0.0957  0.1991
10542SOL    HW132204   0.129   2.175   4.913 -0.8516 -0.3044 -0.2890
10542SOL    HW232205   0.094   2.321   4.928 -1.0178 -0.3904  0.2072
10543SOL     OW32206   2.884   0.080   3.513 -0.6052  0.1834 -0.1533
10543SOL    HW132207   2.824   0.132   3.566 -0.7399  0.3174 -0.4309
10543SOL    HW232208   2.971   0.107   3.540 -0.6661 -0.1385  0.3773
10544SOL     OW32209   8.685   1.532   8.175  0.0101 -0.5237  0.2748
10544SOL    HW132210   8.727   1.604   8.222 -2.3227 -0.3773  2.3432
10544SOL    HW232211   8.611   1.573   8.130  0.2013 -1.2391 -0.7187
10545SOL     OW32212   6.504   1.756   9.641 -0.3862 -0.0183 -0.2097
10545SOL    HW132213   6.554   1.795   9.570 -1.6763  0.6044 -0.8047
10545SOL    HW232214   6.496   1.664   9.617 -1.5181  0.3514 -1.3090
10546SOL     OW32215   4.027   2.783   8.769 -0.1477 -0.8421  0.3635
10546SOL    HW132216   4.110   2.776   8.815 -1.4355  1.1628  3.2537
10546SOL    HW232217   3.980   2.703   8.790 -1.3518  0.6776  4.1888
10547SOL     OW32218   3.411   1.408   0.540  0.1661 -0.0016 -0.0234
10547SOL    HW132219   3.386   1.498   0.517  1.5263  0.5126  0.4527
10547SOL    HW232220   3.334   1.356   0.517 -0.9028  1.3661  0.3212
10548SOL     OW32221   9.969   5.068   4.730 -0.4454 -0.3023  0.4291
10548SOL    HW132222  10.047   5.017   4.708 -0.5269  0.4316 -1.7508
10548SOL    HW232223   9.896   5.009   4.713 -0.4389 -0.8057  1.9544
10549SOL     OW32224   1.326   4.823   8.747  0.0006  0.0325  0.3190
10549SOL    HW132225   1.303   4.825   8.840 -1.8417  0.4518 -0.0920
10549SOL    HW232226   1.403   4.768   8.742  1.1212  1.2884  2.2851
10550SOL     OW32227   1.271   6.796   0.215 -0.4322 -0.3945 -0.5780
10550SOL    HW132228   1.293   6.888   0.231 -0.8272 -0.4241  0.2180
10550SOL    HW232229   1.309   6.776   0.130  1.9639 -0.2486  0.3760
10551SOL     OW32230   9.156   9.556   5.090  0.2527 -0.1262  0.1579
10551SOL    HW132231   9.159   9.594   5.003  1.7878 -0.5662 -0.0129
10551SOL    HW232232   9.067   9.522   5.099 -0.5484  1.7154 -0.4316
10552SOL     OW32233   3.354   2.303   6.295 -0.0601 -0.7425  0.2130
10552SOL    HW132234   3.296   2.268   6.227 -0.0145 -2.5281  1.0382
10552SOL    HW232235   3.303   2.374   6.334 -0.1984  0.1391 -1.4675
10553SOL     OW32236   8.044   6.524   1.996 -0.1861 -0.1238  0.2465
10553SOL    HW132237   8.111   6.458   2.014  0.0042 -0.0079 -0.0323
10553SOL    HW232238   8.086   6.586   1.937 -0.1821  0.5624  0.9537
10554SOL     OW32239   4.895   2.773   3.897  0.2387  0.1540 -0.3475
10554SOL    HW132240   4.952   2.706   3.861  1.9159  0.3912  1.6564
10554SOL    HW232241   4.896   2.843   3.832  0.7701 -0.5895 -1.1544
10555SOL     OW32242   0.296   5.829   5.519  0.2360 -0.5745  0.3415
10555SOL    HW132243   0.337   5.879   5.589 -2.1730  0.4144  1.1304
10555SOL    HW232244   0.349   5.749   5.513  1.4913  0.0597  2.1136
10556SOL     OW32245   7.948   2.859   0.168  0.1132  0.3302  0.2728
10556SOL    HW132246   8.008   2.799   0.124  0.3473  1.6191 -1.2631
10556SOL    HW232247   7.986   2.872   0.255  1.1084 -0.2293 -0.0626
10557SOL     OW32248   3.338   3.858   0.217  0.0703 -0.4717  0.1456
10557SOL    HW132249   3.328   3.858   0.312 -1.2242 -1.0780  0.0378
10557SOL    HW232250   3.375   3.772   0.196  0.5661 -0.2521  0.1211
10558SOL     OW32251   4.168   3.065   0.706  0.6559  0.1212  0.6412
10558SOL    HW132252   4.233   3.033   0.643  0.1622  1.1354 -0.4256
10558SOL    HW232253   4.213   3.062   0.790  2.3187  1.3978 -0.1468
10559SOL     OW32254   2.147   2.047   2.478  0.7898  0.3391  0.7707
10559SOL    HW132255   2.087   2.115   2.448 -0.8818 -1.9231 -1.4323
10559SOL    HW232256   2.115   2.022   2.564  1.2235  2.0209  1.4605
10560SOL     OW32257   4.468   4.614   9.282 -0.0124  0.1988 -0.3985
10560SOL    HW132258   4.550   4.572   9.307  0.4884  1.6011  0.4259
10560SOL    HW232259   4.493   4.675   9.212 -0.6000 -0.3459 -1.0960
10561SOL     OW32260   3.927   5.296   6.098 -0.2948  0.5786  0.2445
10561SOL    HW132261   3.985   5.234   6.053 -0.0890  1.8836 -1.3757
10561SOL    HW232262   3.981   5.375   6.109 -0.7362  0.7038  1.7559
10562SOL     OW32263   7.915   2.864   2.741 -0.2341  0.2839 -0.0347
10562SOL    HW132264   7.911   2.782   2.692  0.7803  0.6182 -0.7142
10562SOL    HW232265   7.832   2.868   2.788  0.6378 -2.3611  2.0077
10563SOL     OW32266   4.241   2.215   8.837  0.2485  0.1443 -0.1921
10563SOL    HW132267   4.269   2.151   8.771  3.2734  1.5170 -0.4076
10563SOL    HW232268   4.309   2.212   8.904 -0.7182  1.5705  0.9082
10564SOL     OW32269   8.960   7.259   0.457  0.0610  0.0968  0.1967
10564SOL    HW132270   9.034   7.315   0.480 -1.8260  1.2192  4.6110
10564SOL    HW232271   8.899   7.317   0.411  0.6893 -0.0925 -0.9082
10565SOL     OW32272   1.426   2.450   2.936  0.2254  0.5735  0.2779
10565SOL    HW132273   1.494   2.415   2.992 -0.8712  1.1237  2.0496
10565SOL    HW232274   1.413   2.540   2.967 -1.1586  0.5447 -0.1370
10566SOL     OW32275   4.675   8.055   8.956  0.6094 -0.1756  0.0604
10566SOL    HW132276   4.605   8.035   9.018  0.7331 -2.2405 -0.3825
10566SOL    HW232277   4.640   8.127   8.903 -1.0352 -0.8808  0.1099
10567SOL     OW32278   1.316   8.540   7.479 -0.1484  0.3256  0.1981
10567SOL    HW132279   1.258   8.576   7.412  0.4273 -0.8877 -1.0027
10567SOL    HW232280   1.290   8.584   7.560 -0.6047  2.1158 -0.8767
10568SOL     OW32281   3.036   1.335   3.178 -0.7211  0.4735  0.5111
10568SOL    HW132282   3.073   1.380   3.102 -0.8563  0.5633  0.4992
10568SOL    HW232283   3.061   1.243   3.166  0.2017  0.6561  0.9195
10569SOL     OW32284   9.105   0.007   8.731 -0.4305 -0.3982 -0.3367
10569SOL    HW132285   9.145   0.075   8.787 -0.0215 -1.1398  0.2917
10569SOL    HW232286   9.041   0.055   8.678 -3.1179 -0.0283  2.8946
10570SOL     OW32287   4.658   8.148   2.065  0.3328  0.5069 -0.3666
10570SOL    HW132288   4.581   8.096   2.085  0.4260  0.4468 -0.1630
10570SOL    HW232289   4.667   8.208   2.139  0.4088  0.5972 -0.4482
10571SOL     OW32290   5.655   0.154   5.664 -0.2534  0.1744  0.0212
10571SOL    HW132291   5.562   0.141   5.681  0.0435 -2.6595 -0.1621
10571SOL    HW232292   5.671   0.111   5.580  1.4480 -0.4923  0.6436
10572SOL     OW32293   1.348   4.427   2.924  0.1130 -0.5280  0.0626
10572SOL    HW132294   1.340   4.471   3.009 -0.3110 -1.0043  0.2751
10572SOL    HW232295   1.432   4.457   2.889 -0.5232  1.0875 -0.1703
10573SOL     OW32296   3.743   9.814   4.310  0.2043  0.0200 -0.0709
10573SOL    HW132297   3.723   9.905   4.331  1.9955  0.2055  1.0895
10573SOL    HW232298   3.815   9.819   4.247 -1.0515 -0.6087 -1.6080
10574SOL     OW32299   6.844   9.362   2.573 -0.4589  0.5146  0.2429
10574SOL    HW132300   6.752   9.381   2.555 -0.9552 -2.5463 -1.0480
10574SOL    HW232301   6.890   9.392   2.495 -0.4078  1.3953  0.5928
10575SOL     OW32302   4.106   7.306   5.819  0.0643  0.3095 -0.4398
10575SOL    HW132303   4.199   7.292   5.838  0.1500  0.6532 -0.5988
10575SOL    HW232304   4.078   7.225   5.776 -0.6660 -1.4278  2.9209
10576SOL     OW32305   3.549   6.560   2.478  0.1307  0.1380  0.1308
10576SOL    HW132306   3.492   6.485   2.494 -1.6536  1.2300 -0.6838
10576SOL    HW232307   3.625   6.546   2.535 -1.7730 -0.5079  2.7005
10577SOL     OW32308   6.790   4.110   5.063  0.2199 -0.4070  0.2220
10577SOL    HW132309   6.791   4.048   4.990 -1.1020 -1.4643  1.0636
10577SOL    HW232310   6.849   4.071   5.128 -1.5768 -1.4870  1.2676
10578SOL     OW32311   3.030   6.433   7.621 -0.1650 -0.3909 -0.3980
10578SOL    HW132312   3.088   6.371   7.666  1.5298  2.2863  1.4317
10578SOL    HW232313   2.983   6.477   7.691  1.5121  2.9638 -1.1772
10579SOL     OW32314   7.557   8.593   0.109  0.5627  0.0413 -0.2022
10579SOL    HW132315   7.626   8.540   0.149  0.2182  0.2314  0.6549
10579SOL    HW232316   7.513   8.635   0.183 -0.3525  0.0710 -0.7575
10580SOL     OW32317   4.272   3.933   0.210 -0.1263 -0.1400 -0.5601
10580SOL    HW132318   4.345   3.963   0.157 -0.0732 -0.2756 -0.5631
10580SOL    HW232319   4.250   3.847   0.175  0.5574 -0.6742  0.2685
10581SOL     OW32320   0.980   4.571   4.234  0.0637  0.3344 -0.1944
10581SOL    HW132321   0.919   4.583   4.307 -0.0789 -0.8801 -0.1014
10581SOL    HW232322   0.987   4.658   4.195 -0.4509  0.8427  0.7963
10582SOL     OW32323   5.729   1.810   7.211  0.0901  0.7754  0.0178
10582SOL    HW132324   5.726   1.887   7.155  2.0725  1.3044  0.5794
10582SOL    HW232325   5.788   1.750   7.165  0.7597  0.7251  0.9282
10583SOL     OW32326   5.734   3.221   8.532  0.1719 -0.0041  0.0926
10583SOL    HW132327   5.753   3.263   8.617 -1.0054  0.6355  0.0577
10583SOL    HW232328   5.641   3.239   8.517  0.3362 -0.2232 -1.2761
10584SOL     OW32329   5.733   6.699   7.171  0.4246 -0.5752 -0.7996
10584SOL    HW132330   5.823   6.726   7.185  0.2899 -0.7917  0.6557
10584SOL    HW232331   5.683   6.781   7.175  0.2550 -0.7229  1.4572
10585SOL     OW32332   3.345   7.943   1.620 -0.6861 -0.0534 -0.5316
10585SOL    HW132333   3.399   7.963   1.696 -0.6016  1.9633 -1.0766
10585SOL    HW232334   3.375   8.004   1.552 -2.3465 -0.1950 -1.4363
10586SOL     OW32335   7.046   2.457   7.501  0.0384  0.4689  0.2521
10586SOL    HW132336   6.960   2.424   7.528  0.4189  0.2055  1.1968
10586SOL    HW232337   7.103   2.381   7.507  0.2241  0.4834 -1.0079
10587SOL     OW32338   1.244   1.799   0.452  0.5718 -0.2340 -0.1078
10587SOL    HW132339   1.249   1.772   0.360 -0.4769 -0.7621 -0.0226
10587SOL    HW232340   1.207   1.887   0.449 -0.4351 -0.6497 -0.1485
10588SOL     OW32341   0.353   5.253   5.334 -0.1678  0.3880  0.4507
10588SOL    HW132342   0.306   5.223   5.412 -1.4071  0.6704 -0.1566
10588SOL    HW232343   0.284   5.271   5.270  0.8551 -2.9018 -1.8809
10589SOL     OW32344   5.021   1.431   2.641 -0.5502  0.1841  0.4576
10589SOL    HW132345   5.077   1.503   2.670 -0.2151  0.0097  0.2532
10589SOL    HW232346   5.026   1.434   2.545 -1.2253  0.4278  0.4241
10590SOL     OW32347   0.670   6.299   7.512  0.1160  0.0181 -0.0056
10590SOL    HW132348   0.707   6.380   7.546 -0.1085 -0.1819  0.7235
10590SOL    HW232349   0.739   6.263   7.457  1.8460 -1.3298  2.8385
10591SOL     OW32350   9.615   1.793   5.640 -0.1630  0.6973 -0.0727
10591SOL    HW132351   9.549   1.824   5.701 -1.8306  1.1347 -1.9785
10591SOL    HW232352   9.685   1.858   5.645 -1.3843  2.1031 -0.3645
10592SOL     OW32353   7.813   7.812   3.433  0.6053  0.5109 -0.1597
10592SOL    HW132354   7.724   7.845   3.424  0.2957 -0.2168  0.1524
10592SOL    HW232355   7.859   7.881   3.482  0.2309  0.9054 -0.3540
10593SOL     OW32356   2.700   2.129   7.902  0.2436 -0.3159 -0.4874
10593SOL    HW132357   2.708   2.129   7.998  1.5429  1.3642 -0.5597
10593SOL    HW232358   2.610   2.100   7.886  0.2257 -1.3138  1.2009
10594SOL     OW32359   0.237   1.100   9.847 -0.0998  0.2215  0.2262
10594SOL    HW132360   0.312   1.073   9.794 -0.4658  0.6326 -0.5238
10594SOL    HW232361   0.244   1.195   9.853 -0.7964  0.3168 -0.2444
10595SOL     OW32362   7.079   5.761   4.755  0.4287 -0.5651  0.2904
10595SOL    HW132363   6.996   5.798   4.784  0.1649 -0.6768 -0.3144
10595SOL    HW232364   7.055   5.685   4.702  0.7834  0.9007 -2.1222
10596SOL     OW32365   3.024   8.127   2.911 -0.2598 -0.3862 -0.6020
10596SOL    HW132366   2.943   8.172   2.889 -0.0395  0.0300 -0.5755
10596SOL    HW232367   3.017   8.108   3.005 -0.2674 -0.2309 -0.5714
10597SOL     OW32368   5.068   9.214   0.762 -0.4706 -0.2165  0.3195
10597SOL    HW132369   4.988   9.162   0.757 -0.1569 -0.6292 -0.9257
10597SOL    HW232370   5.128   9.171   0.700  1.3417 -0.9763  2.4536
10598SOL     OW32371   9.282   8.411   6.816 -0.0056  0.4873  0.1049
10598SOL    HW132372   9.339   8.345   6.856 -0.0244  0.8113  0.6767
10598SOL    HW232373   9.226   8.361   6.756  1.2217  0.2259 -0.8628
10599SOL     OW32374   8.478   4.694   9.883 -0.0627 -0.3054  0.7422
10599SOL    HW132375   8.459   4.615   9.833  1.2399 -0.3427  0.2560
10599SOL    HW232376   8.415   4.759   9.851  1.1192 -0.1574 -1.4263
10600SOL     OW32377   2.846   1.654   0.610  0.4813 -0.0982  0.1963
10600SOL    HW132378   2.793   1.730   0.637 -0.9286 -0.9084 -0.1715
10600SOL    HW232379   2.841   1.594   0.684 -0.5347 -0.8791 -0.4845
10601SOL     OW32380   7.388   3.623   1.221 -0.0712 -0.0730  0.9970
10601SOL    HW132381   7.464   3.662   1.177 -0.5969  0.8962  0.9223
10601SOL    HW232382   7.374   3.540   1.175 -0.0410  0.4876 -0.0524
10602SOL     OW32383   1.334   9.387   0.546  0.0084  0.0006  0.3781
10602SOL    HW132384   1.320   9.334   0.467 -1.7378  0.3999  0.3827
10602SOL    HW232385   1.406   9.343   0.591  0.2645 -0.9086 -0.8561
10603SOL     OW32386   0.154   9.598   5.129  0.1769  0.7786 -0.1404
10603SOL    HW132387   0.194   9.518   5.095  0.8611 -0.1457  2.5731
10603SOL    HW232388   0.060   9.581   5.124  0.2512  0.6062 -1.2988
10604SOL     OW32389   1.265   3.712   0.612  0.2553  0.5024 -0.4876
10604SOL    HW132390   1.295   3.700   0.702  1.4547  0.6494 -0.8491
10604SOL    HW232391   1.342   3.745   0.566 -0.7384  1.8109 -1.2621
10605SOL     OW32392   0.894   0.163   6.382 -0.0856 -0.1660 -0.3033
10605SOL    HW132393   0.902   0.075   6.344  0.7727  0.3632 -1.4390
10605SOL    HW232394   0.977   0.176   6.429  0.0534  0.2447 -0.6475
10606SOL     OW32395   8.815   4.085   1.347  0.5033 -0.1098 -0.3168
10606SOL    HW132396   8.804   4.027   1.272 -1.9256 -0.8025  0.4882
10606SOL    HW232397   8.726   4.104   1.376  1.3423  0.5383  2.0822
10607SOL     OW32398   3.628   1.202   1.893  0.6237 -0.1866  0.1062
10607SOL    HW132399   3.569   1.278   1.888 -1.4614 -1.7546 -0.6521
10607SOL    HW232400   3.704   1.227   1.840  0.7017  1.9057  1.1048
10608SOL     OW32401   9.043   0.492   1.125 -0.3603  0.3037  0.1371
10608SOL    HW132402   8.958   0.452   1.104  0.8387 -1.5325 -1.7369
10608SOL    HW232403   9.051   0.564   1.062 -0.4562  0.3722  0.2027
10609SOL     OW32404   3.130   6.350   4.471 -0.2264  0.5382 -0.4521
10609SOL    HW132405   3.087   6.291   4.410  0.1775  0.6073 -0.8095
10609SOL    HW232406   3.164   6.420   4.416  1.3991 -0.1281 -0.3338
10610SOL     OW32407   8.960   0.887   8.489 -0.6483 -0.0055 -0.4715
10610SOL    HW132408   9.017   0.810   8.497 -0.5460  0.1944  1.1272
10610SOL    HW232409   9.019   0.957   8.461 -0.0820  0.1734  1.0646
10611SOL     OW32410   0.840   1.049   7.014  0.2213  0.2178 -0.3980
10611SOL    HW132411   0.895   0.971   7.010  1.4279  1.0251  0.1303
10611SOL    HW232412   0.875   1.100   7.087  0.2627  1.8591 -1.5243
10612SOL     OW32413   9.084   6.301   2.300  0.3274  0.3072  0.3950
10612SOL    HW132414   9.101   6.369   2.365  0.3103  0.3826  0.3206
10612SOL    HW232415   8.990   6.308   2.282  0.8219  2.3350 -1.9148
10613SOL     OW32416   8.428   1.854   8.483  0.5266 -0.1023 -0.2575
10613SOL    HW132417   8.409   1.809   8.566 -0.0640 -1.4455 -1.0963
10613SOL    HW232418   8.511   1.899   8.499  0.6095 -0.6361  0.9474
10614SOL     OW32419   1.038   8.085   6.222  0.0941  0.6553  0.0116
10614SOL    HW132420   0.953   8.043   6.215  0.8132 -0.8993  0.1583
10614SOL    HW232421   1.070   8.089   6.132  0.1797  0.5451  0.0363
10615SOL     OW32422   3.684   7.984   6.633  0.2521  0.4623 -0.5376
10615SOL    HW132423   3.625   7.961   6.705  0.4023 -0.1778 -0.6061
10615SOL    HW232424   3.702   7.900   6.590 -1.7911  1.0954 -2.8671
10616SOL     OW32425   9.079   3.779   5.472  0.4620 -0.3192  0.0095
10616SOL    HW132426   9.043   3.853   5.423 -0.1383 -1.1227 -0.8031
10616SOL    HW232427   9.166   3.808   5.499  0.1108  0.8000 -0.0034
10617SOL     OW32428   0.933   0.380   9.674 -0.0913  0.7913 -0.1408
10617SOL    HW132429   1.018   0.423   9.687  0.6429 -0.2753 -1.1970
10617SOL    HW232430   0.945   0.291   9.706 -1.0677  0.8387  0.4058
10618SOL     OW32431   9.488   1.046   6.665  1.1201 -0.6036 -0.3607
10618SOL    HW132432   9.530   1.070   6.582 -0.1903  1.2443 -0.5562
10618SOL    HW232433   9.421   1.113   6.678 -0.3850 -2.2737  0.9759
10619SOL     OW32434   5.076   1.630   1.943  0.5548  1.0290 -0.2637
10619SOL    HW132435   5.027   1.696   1.895  1.3791  0.1733 -2.3843
10619SOL    HW232436   5.159   1.671   1.966  0.4759  1.1837 -0.2576
10620SOL     OW32437   7.258   6.781   8.511 -0.3295 -0.0191 -0.0029
10620SOL    HW132438   7.281   6.690   8.531  1.6284  0.0875 -1.4016
10620SOL    HW232439   7.314   6.833   8.569 -0.4249  0.2863 -0.1855
10621SOL     OW32440   5.912   9.403   7.007 -0.0140 -0.1944 -0.3733
10621SOL    HW132441   5.992   9.451   6.985 -0.4763  0.0449 -1.6473
10621SOL    HW232442   5.863   9.462   7.064  1.1745 -0.7769  1.3100
10622SOL     OW32443   1.739   7.698   2.861  0.1431  0.5689 -0.1221
10622SOL    HW132444   1.834   7.683   2.853  0.5234  1.5943  1.9679
10622SOL    HW232445   1.715   7.656   2.943 -1.1416  0.8064 -0.3525
10623SOL     OW32446   1.451   1.299   5.348  0.3146  0.2699 -0.3527
10623SOL    HW132447   1.372   1.253   5.378  0.1752  0.1027 -0.9657
10623SOL    HW232448   1.446   1.384   5.390 -0.2530  0.3008 -0.4735
10624SOL     OW32449   6.231   3.657   9.338 -0.1801  0.9503  0.5798
10624SOL    HW132450   6.220   3.564   9.322  1.7547  0.6664  0.7201
10624SOL    HW232451   6.274   3.690   9.258 -1.4067  1.8723  0.2567
10625SOL     OW32452   2.410   2.401   0.607 -0.2053 -0.3343  0.3292
10625SOL    HW132453   2.398   2.362   0.520 -0.9406 -0.6331  0.5581
10625SOL    HW232454   2.471   2.473   0.593 -0.0165 -0.6239 -0.3698
10626SOL     OW32455   9.459   0.936   4.198 -0.3445 -0.0422 -0.2054
10626SOL    HW132456   9.380   0.978   4.233 -1.0847 -2.4194  1.2280
10626SOL    HW232457   9.427   0.852   4.164  1.5136 -0.9210  0.1280
10627SOL     OW32458   0.165   7.848   4.498  0.4961  0.4990 -0.0824
10627SOL    HW132459   0.198   7.935   4.520 -2.6104  1.2978  2.2187
10627SOL    HW232460   0.113   7.861   4.419  0.8621  0.4995 -0.3247
10628SOL     OW32461   3.562   7.375   9.154 -0.3689  0.1289  0.3960
10628SOL    HW132462   3.598   7.460   9.180  1.8157 -1.2220  2.1149
10628SOL    HW232463   3.561   7.323   9.234  0.3363 -2.1280 -0.9550
10629SOL     OW32464   2.351   8.487   4.904  0.1210  0.4153  0.1328
10629SOL    HW132465   2.439   8.450   4.900 -0.4777 -1.0039 -3.5147
10629SOL    HW232466   2.364   8.577   4.935  2.7709  0.1356  0.0410
10630SOL     OW32467   3.786   5.775   8.309  0.3047  0.2286  0.0628
10630SOL    HW132468   3.851   5.727   8.258 -0.6599  0.5524 -1.5387
10630SOL    HW232469   3.821   5.776   8.398  0.6019 -3.0029  0.0958
10631SOL     OW32470   4.606   9.156   1.489 -0.4700 -0.4638 -0.0966
10631SOL    HW132471   4.674   9.103   1.529 -0.8870 -0.3553  0.7741
10631SOL    HW232472   4.653   9.228   1.447  0.0495 -1.1652 -0.7466
10632SOL     OW32473   6.600   0.546   6.924 -0.0236 -0.3819 -0.6785
10632SOL    HW132474   6.547   0.536   6.845 -0.3910  0.0423 -0.4909
10632SOL    HW232475   6.690   0.546   6.893 -0.1973  0.8049 -1.2194
10633SOL     OW32476   3.864   6.507   9.935  0.1441 -0.4136  0.3155
10633SOL    HW132477   3.836   6.569  10.001  2.3575  2.0952 -0.9294
10633SOL    HW232478   3.807   6.524   9.860  0.7139  0.1038 -0.0066
10634SOL     OW32479   6.569   5.644   5.668  0.7352 -0.0988  0.7580
10634SOL    HW132480   6.547   5.682   5.583  1.5927  0.2772  0.6918
10634SOL    HW232481   6.543   5.552   5.661 -0.7490  0.2941  0.6870
10635SOL     OW32482   7.792   3.393   7.828 -0.6339 -0.2345  0.7955
10635SOL    HW132483   7.703   3.422   7.804 -0.5066 -0.2069  0.3466
10635SOL    HW232484   7.849   3.464   7.800 -0.3741 -0.6723  0.1783
10636SOL     OW32485   0.588   8.292   9.217 -0.4994 -0.0950 -0.7408
10636SOL    HW132486   0.667   8.276   9.267 -1.3650 -0.4373  0.5601
10636SOL    HW232487   0.543   8.362   9.265 -0.5713  0.7490 -1.9703
10637SOL     OW32488   7.204   0.152   8.063 -0.0966 -0.5089  0.0105
10637SOL    HW132489   7.149   0.227   8.084 -1.8034 -1.6339 -0.2132
10637SOL    HW232490   7.293   0.187   8.063 -0.7902  1.4021  0.3373
10638SOL     OW32491   1.039   9.662   6.139  0.9406 -0.1653  0.1098
10638SOL    HW132492   1.045   9.623   6.226  3.1469  0.8213  0.4672
10638SOL    HW232493   1.130   9.679   6.114  0.3041  0.4249 -2.0080
10639SOL     OW32494   0.659   0.811   8.565 -0.0759 -0.3921  0.1529
10639SOL    HW132495   0.709   0.875   8.514 -0.5167 -0.3946 -0.2854
10639SOL    HW232496   0.570   0.819   8.533 -0.0717 -1.4769 -0.1647
10640SOL     OW32497   3.427   2.484   5.816  0.4231 -0.3076  0.4341
10640SOL    HW132498   3.419   2.578   5.806  0.3501 -0.2085  1.3249
10640SOL    HW232499   3.355   2.459   5.873 -0.4785 -1.1457 -1.0095
10641SOL     OW32500   2.692   5.711   0.638  0.0858  0.6568 -0.1255
10641SOL    HW132501   2.630   5.741   0.704  0.1337  1.3681 -0.3940
10641SOL    HW232502   2.778   5.739   0.671  0.2927 -0.4969  0.3429
10642SOL     OW32503   9.336   2.107   7.049 -0.5797  0.5814  0.2681
10642SOL    HW132504   9.281   2.048   6.997  0.0185  0.1759  0.0925
10642SOL    HW232505   9.389   2.048   7.104 -0.7910  0.9864  0.9209
10643SOL     OW32506   5.307   9.085   4.336  0.5423  0.2451  0.5147
10643SOL    HW132507   5.253   9.006   4.334 -1.2495  1.3722  1.3680
10643SOL    HW232508   5.246   9.155   4.362  2.0172  1.9412 -0.3486
10644SOL     OW32509   5.320   9.652   7.958 -0.8786 -0.3347  0.7717
10644SOL    HW132510   5.365   9.568   7.964  2.1387  0.7769 -2.7475
10644SOL    HW232511   5.259   9.641   7.886 -0.7163  0.3834  0.5210
10645SOL     OW32512   9.889   5.435   9.630 -0.6019 -0.1644  0.9599
10645SOL    HW132513   9.942   5.435   9.550  2.6825 -0.3446  2.9832
10645SOL    HW232514   9.811   5.485   9.606  1.3167  1.8521 -1.7185
10646SOL     OW32515   0.299   5.909   4.718 -0.1124 -0.2987  0.2628
10646SOL    HW132516   0.350   5.975   4.673 -0.0956  0.0584  0.8031
10646SOL    HW232517   0.305   5.832   4.662 -1.2460  0.5391 -1.0632
10647SOL     OW32518   3.943   6.291   2.430 -0.6047 -0.0616  0.1088
10647SOL    HW132519   4.016   6.292   2.493  0.0009 -0.0869 -0.5817
10647SOL    HW232520   3.965   6.359   2.367 -0.6642 -0.7657 -0.6832
10648SOL     OW32521   2.319   8.028   2.400  0.1838  0.6527 -0.5153
10648SOL    HW132522   2.336   7.987   2.315 -1.2823  0.5663 -0.8088
10648SOL    HW232523   2.363   7.971   2.464  0.0073 -0.1687 -1.1053
10649SOL     OW32524   9.202   6.278   7.797 -0.0020 -0.5050 -0.4351
10649SOL    HW132525   9.175   6.240   7.880 -0.3595  0.8488  0.1093
10649SOL    HW232526   9.121   6.281   7.745  0.1067 -0.8426 -0.6273
10650SOL     OW32527   8.832   7.387   8.414  0.5949 -0.0935 -0.1003
10650SOL    HW132528   8.773   7.327   8.369  0.8299 -0.0276 -0.5000
10650SOL    HW232529   8.816   7.473   8.374 -0.1274  0.2257  0.8387
10651SOL     OW32530   6.536   5.489   8.013  0.7522 -0.2000  1.0943
10651SOL    HW132531   6.465   5.516   7.954  0.7554  0.8655  1.5571
10651SOL    HW232532   6.494   5.478   8.098  1.0220 -0.2332  1.2227
10652SOL     OW32533   4.664   7.406   7.982  0.2163  0.2905  0.2772
10652SOL    HW132534   4.631   7.404   7.892  0.2616  0.7107  0.2490
10652SOL    HW232535   4.759   7.408   7.973  0.2527 -0.7146  0.3549
10653SOL     OW32536   8.617   2.777   0.167 -0.1891 -0.0772  0.0235
10653SOL    HW132537   8.641   2.686   0.148 -1.1764 -0.3552  0.0429
10653SOL    HW232538   8.679   2.829   0.117  1.5978 -0.7228  1.4643
10654SOL     OW32539   4.286   9.181   1.089 -0.4165 -0.2395 -0.0188
10654SOL    HW132540   4.376   9.154   1.107 -0.1448  0.2867 -0.5509
10654SOL    HW232541   4.293   9.239   1.013 -1.0967  0.5059  0.4719
10655SOL     OW32542   2.461   2.627   9.787  0.0437 -0.4539 -0.4637
10655SOL    HW132543   2.550   2.622   9.822  0.4295  2.4428 -0.7718
10655SOL    HW232544   2.466   2.585   9.701  0.3428 -2.9565  0.7179
10656SOL     OW32545   7.194   7.352   6.888  0.2207  0.4534  0.1006
10656SOL    HW132546   7.101   7.375   6.890  0.2056  0.3265  1.1589
10656SOL    HW232547   7.202   7.292   6.813 -0.3797  1.1178 -0.5161
10657SOL     OW32548   1.209   9.595   2.643  0.7039  0.1338  0.0615
10657SOL    HW132549   1.240   9.622   2.557  0.7178  0.0963  0.0545
10657SOL    HW232550   1.286   9.555   2.684  0.9859  1.1050  0.5004
10658SOL     OW32551   8.824   4.478   0.964 -0.9935 -0.2505 -0.7517
10658SOL    HW132552   8.837   4.418   1.037 -1.1875 -1.1387 -1.4336
10658SOL    HW232553   8.732   4.505   0.972 -0.6849  0.6538  0.0491
10659SOL     OW32554   8.911   8.190   7.526  0.1330 -0.4419  0.2999
10659SOL    HW132555   8.901   8.283   7.543  0.1176 -0.4342  0.2473
10659SOL    HW232556   8.832   8.150   7.561  0.4902 -0.5252  1.0274
10660SOL     OW32557   4.622   7.977   6.670 -0.0114  0.6886 -0.0258
10660SOL    HW132558   4.619   8.058   6.722  2.2444  0.8499 -0.0574
10660SOL    HW232559   4.657   8.005   6.585 -1.1425 -0.0168 -0.7459
10661SOL     OW32560   8.452   9.493   9.956 -0.4588  0.2410  0.1658
10661SOL    HW132561   8.393   9.496  10.031 -0.1949  1.0704  0.3442
10661SOL    HW232562   8.479   9.583   9.942  0.6924 -0.1022  0.0239
10662SOL     OW32563   0.448   7.263   6.004 -1.0875  0.5367 -0.1575
10662SOL    HW132564   0.393   7.186   5.990  2.0915 -2.1016  0.8271
10662SOL    HW232565   0.467   7.295   5.916  0.3867 -2.0726 -0.8919
10663SOL     OW32566   3.135   1.056   3.192  0.1744  0.4080  0.4716
10663SOL    HW132567   3.073   0.983   3.181  0.5483  0.1613 -0.0027
10663SOL    HW232568   3.212   1.030   3.142  1.5462 -0.2872  2.8016
10664SOL     OW32569   0.123   4.167   3.870 -0.1896 -0.0415  0.3428
10664SOL    HW132570   0.066   4.093   3.848 -0.4598  0.0425  0.7492
10664SOL    HW232571   0.180   4.134   3.940 -0.8010  0.3449  1.0412
10665SOL     OW32572   3.616   1.343   6.833  0.1460 -0.1480  0.0594
10665SOL    HW132573   3.560   1.360   6.908  0.3084 -2.4425  0.7651
10665SOL    HW232574   3.680   1.414   6.834  0.0371 -0.0425  1.9899
10666SOL     OW32575   0.889   1.648   3.144  0.1655 -0.2134 -0.2371
10666SOL    HW132576   0.845   1.611   3.068 -0.9832  0.3228  0.1518
10666SOL    HW232577   0.821   1.695   3.191  0.6299 -1.3631  1.6899
10667SOL     OW32578   2.447   8.298   2.387 -0.4975  0.0631 -0.9832
10667SOL    HW132579   2.371   8.241   2.395 -0.2310 -0.1052  0.8267
10667SOL    HW232580   2.494   8.287   2.470  2.1180 -0.6937 -2.4449
10668SOL     OW32581   1.866   1.698   9.225 -0.4457 -0.0821  0.3424
10668SOL    HW132582   1.953   1.675   9.259  0.3730  3.8105  1.2823
10668SOL    HW232583   1.861   1.654   9.140  2.1608 -0.9372  0.5473
10669SOL     OW32584   8.203   3.152   4.492 -0.2447  0.3720 -0.3904
10669SOL    HW132585   8.184   3.222   4.555  1.4597  0.4089  0.1096
10669SOL    HW232586   8.279   3.107   4.527 -0.4390 -0.8471 -1.4521
10670SOL     OW32587   8.976   3.936   0.804  0.1699 -0.0778  0.3915
10670SOL    HW132588   8.926   3.987   0.740  0.6960  1.4341  1.1330
10670SOL    HW232589   8.914   3.914   0.873  0.3371  1.1686  0.9575
10671SOL     OW32590   9.876   4.297   9.366 -0.1354 -0.8089  0.3885
10671SOL    HW132591   9.813   4.332   9.304 -0.4310 -1.0098  0.5731
10671SOL    HW232592   9.905   4.373   9.417 -0.5092 -0.7747  0.5519
10672SOL     OW32593   2.755   8.177   6.926  0.4569 -0.1619 -0.2097
10672SOL    HW132594   2.736   8.214   6.839  1.3120  0.5074 -0.1229
10672SOL    HW232595   2.842   8.210   6.947 -0.2561  0.7255  1.4724
10673SOL     OW32596   7.873   7.734   5.580  0.8629 -1.0696  0.2871
10673SOL    HW132597   7.848   7.643   5.598  2.5221 -1.7400 -0.5716
10673SOL    HW232598   7.838   7.784   5.654 -1.3778 -2.1392  0.0380
10674SOL     OW32599   8.421   5.728   3.334 -0.1066 -0.1547  0.0125
10674SOL    HW132600   8.364   5.766   3.402 -0.5735 -2.4762  1.0301
10674SOL    HW232601   8.501   5.780   3.338 -0.9129  1.0651  0.9303
10675SOL     OW32602   9.076   0.995   3.581  0.6611  0.5110  0.0417
10675SOL    HW132603   9.156   0.948   3.606  0.9964  0.2910 -1.3548
10675SOL    HW232604   9.012   0.927   3.562  0.6975  0.6371 -0.5647
10676SOL     OW32605   0.112   4.080   2.192 -0.6846  0.6484  0.3413
10676SOL    HW132606   0.077   3.994   2.217  0.5491 -0.0007 -0.0453
10676SOL    HW232607   0.134   4.122   2.275 -0.6538  0.2925  0.5168
10677SOL     OW32608   2.330   1.774   4.086  0.0137 -0.3090  0.3259
10677SOL    HW132609   2.333   1.865   4.116 -0.9338  0.4693 -1.7254
10677SOL    HW232610   2.236   1.752   4.088 -0.1173 -0.1699 -1.9905
10678SOL     OW32611   8.057   3.197   5.360 -0.1745 -0.1522 -0.0676
10678SOL    HW132612   8.017   3.135   5.300  0.0986  0.2125 -0.6330
10678SOL    HW232613   7.997   3.202   5.434 -0.8839 -0.0443 -0.6470
10679SOL     OW32614   8.952   7.535   8.602  0.0755 -0.0631  0.1619
10679SOL    HW132615   8.916   7.498   8.522  1.5004  0.8440 -0.9362
10679SOL    HW232616   8.985   7.621   8.577 -2.1189  1.6037  2.3896
10680SOL     OW32617   3.775   0.510   3.983 -0.3030 -0.1114 -0.2000
10680SOL    HW132618   3.709   0.474   4.043  0.5514 -0.5092  0.5316
10680SOL    HW232619   3.770   0.454   3.906 -1.1053  0.1197 -0.3223
10681SOL     OW32620   4.885   6.645   0.848  0.0965 -0.1324  0.1100
10681SOL    HW132621   4.883   6.590   0.770  0.4641  0.0989 -0.0690
10681SOL    HW232622   4.874   6.584   0.921  0.2524 -0.4141 -0.0997
10682SOL     OW32623   9.074   5.227   8.985  0.0214 -0.9210 -0.3325
10682SOL    HW132624   9.035   5.223   9.072 -1.1688  0.9477 -0.7329
10682SOL    HW232625   9.135   5.300   8.989  0.6878 -1.4402 -0.8060
10683SOL     OW32626   8.787   8.576   2.120 -0.2635  0.3740 -0.4185
10683SOL    HW132627   8.704   8.606   2.083  0.2756  1.6466 -0.6526
10683SOL    HW232628   8.806   8.639   2.190  1.8834  1.8768 -2.2061
10684SOL     OW32629   2.345   2.447   3.094  0.4099  0.1101 -0.2854
10684SOL    HW132630   2.370   2.401   3.014  0.0241  0.2171 -0.4694
10684SOL    HW232631   2.267   2.401   3.125  1.1921 -0.6201  0.6345
10685SOL     OW32632   6.397   2.472   5.863 -0.4025  0.0055 -0.4713
10685SOL    HW132633   6.456   2.401   5.839  1.1539  0.8063  0.7440
10685SOL    HW232634   6.456   2.545   5.884 -1.9043  1.3464 -0.7510
10686SOL     OW32635   1.504   3.645   7.945  0.4880 -0.1014 -0.0966
10686SOL    HW132636   1.549   3.688   8.017  4.2218 -1.1038 -1.6109
10686SOL    HW232637   1.496   3.713   7.878  0.6970 -0.1707 -0.1934
10687SOL     OW32638   3.948   0.676   8.408 -0.3243  0.0667 -0.0037
10687SOL    HW132639   4.013   0.746   8.414  0.5160 -0.7936  1.3220
10687SOL    HW232640   3.887   0.693   8.479 -0.2929 -0.3789  0.1305
10688SOL     OW32641   7.541   8.049   0.055  0.1616 -0.5804 -0.4877
10688SOL    HW132642   7.584   8.030   0.138 -0.8300 -0.4920  0.0596
10688SOL    HW232643   7.449   8.030   0.071 -0.3248  1.1818 -1.0218
10689SOL     OW32644   4.472   3.033   5.019  0.4912 -0.6365  0.3484
10689SOL    HW132645   4.558   3.009   4.982  0.6883 -1.1559  1.1217
10689SOL    HW232646   4.492   3.101   5.083  0.3076 -0.6590  0.4289
10690SOL     OW32647   8.339   7.972   8.786  0.1213  0.1856  0.0671
10690SOL    HW132648   8.405   7.952   8.853 -0.9077  0.8580  1.3211
10690SOL    HW232649   8.309   8.060   8.807 -0.7400  0.1431 -0.8700
10691SOL     OW32650   8.252   1.089   0.283 -0.3361  0.4719 -0.8488
10691SOL    HW132651   8.167   1.128   0.260 -0.3100  1.0095 -0.0733
10691SOL    HW232652   8.229   1.012   0.337 -0.3401  0.4768 -0.8436
10692SOL     OW32653   0.459   6.078   7.045  0.3286 -0.6182 -0.5894
10692SOL    HW132654   0.522   6.061   7.115 -0.3953  1.0195  0.5582
10692SOL    HW232655   0.468   6.005   6.985  0.9940 -2.1076  1.2290
10693SOL     OW32656   7.779   0.665   6.441  0.2756 -0.2473  0.4830
10693SOL    HW132657   7.790   0.689   6.533  0.9836  0.4237  0.2285
10693SOL    HW232658   7.721   0.589   6.444 -0.4253  0.2927  1.4253
10694SOL     OW32659   5.216   1.301   3.407  0.1184 -0.1935 -0.0362
10694SOL    HW132660   5.161   1.236   3.364 -1.6126  1.7085 -0.9028
10694SOL    HW232661   5.159   1.339   3.475  0.6732  1.1416 -0.2849
10695SOL     OW32662   6.767   3.464   2.754  0.5136 -0.3065  0.2899
10695SOL    HW132663   6.748   3.525   2.682 -0.3887 -0.5345  0.3232
10695SOL    HW232664   6.736   3.380   2.722 -0.2228 -0.3494  1.0758
10696SOL     OW32665   5.670   9.366   8.770  0.5357 -0.1181  0.2364
10696SOL    HW132666   5.737   9.431   8.749  0.1611 -0.3804 -2.1028
10696SOL    HW232667   5.657   9.374   8.864 -0.5843  4.2473 -0.1115
10697SOL     OW32668   4.419   4.285   1.369  0.0799  0.0246 -0.4755
10697SOL    HW132669   4.468   4.333   1.436  0.4005 -0.5984 -0.2535
10697SOL    HW232670   4.350   4.345   1.341  0.3237  0.5159 -0.0244
10698SOL     OW32671   7.959   7.877   2.476  0.4121 -0.1317 -0.0281
10698SOL    HW132672   7.868   7.897   2.498  0.7420  2.8530 -1.0006
10698SOL    HW232673   8.010   7.946   2.518  1.7396  1.1181 -3.3393
10699SOL     OW32674   4.163   8.706   5.709  0.6544  0.1042  0.7437
10699SOL    HW132675   4.199   8.794   5.716 -0.4088  0.4678  2.0394
10699SOL    HW232676   4.073   8.714   5.741 -0.4723 -0.8627 -1.9000
10700SOL     OW32677   3.912   8.338   5.412  0.9988  0.1833  0.5042
10700SOL    HW132678   3.936   8.247   5.429  1.2070  0.2338  0.4836
10700SOL    HW232679   3.900   8.342   5.317 -0.5180 -0.1839  0.6537
10701SOL     OW32680   3.608   6.520   4.125 -0.9784  0.2969 -1.1485
10701SOL    HW132681   3.557   6.601   4.123 -0.4485  0.6494 -0.9843
10701SOL    HW232682   3.650   6.516   4.039 -1.5095 -0.1462 -1.3908
10702SOL     OW32683   3.144   5.841   1.640  0.1795 -0.6569 -0.4379
10702SOL    HW132684   3.216   5.790   1.676 -0.5739  0.4331  3.0089
10702SOL    HW232685   3.066   5.788   1.658 -0.2064 -0.1986 -0.7491
10703SOL     OW32686   0.137   0.374   4.779  0.0756  0.1540  0.3235
10703SOL    HW132687   0.059   0.363   4.834 -0.4838 -3.1610 -0.9056
10703SOL    HW232688   0.210   0.366   4.841 -0.5607 -1.6565  0.9185
10704SOL     OW32689   8.766   8.923   0.264 -0.2652  0.4394  0.0229
10704SOL    HW132690   8.754   8.934   0.170  1.0694  2.0354 -0.0222
10704SOL    HW232691   8.694   8.868   0.292 -0.6610 -0.0935 -1.9408
10705SOL     OW32692   4.244   9.640   9.171  0.3611  0.0355  0.2531
10705SOL    HW132693   4.189   9.563   9.186 -0.1384  0.0766 -1.2144
10705SOL    HW232694   4.184   9.705   9.135  1.7894 -1.0337 -4.8217
10706SOL     OW32695   8.331   2.111   1.930 -0.5338 -0.1986  0.3992
10706SOL    HW132696   8.352   2.146   1.844 -3.0783 -0.1513 -0.2685
10706SOL    HW232697   8.290   2.184   1.977 -3.4616 -1.4193 -0.0739
10707SOL     OW32698   5.137   6.657   0.261  0.2572  0.2941 -0.1369
10707SOL    HW132699   5.206   6.714   0.296  0.0403 -0.5426  1.7143
10707SOL    HW232700   5.091   6.713   0.198  1.0689  1.6435  0.4122
10708SOL     OW32701   0.845   6.459   8.447 -0.4049  0.0671  0.5367
10708SOL    HW132702   0.798   6.398   8.504 -0.9796  1.0516  1.1368
10708SOL    HW232703   0.917   6.491   8.501 -0.2301  0.0745  0.2976
10709SOL     OW32704   7.935   3.533   2.738  0.2845 -0.4409 -0.2655
10709SOL    HW132705   7.859   3.589   2.722  0.9510  0.2649 -1.0981
10709SOL    HW232706   7.937   3.522   2.833 -0.9325 -0.5930 -0.2372
10710SOL     OW32707   9.643   7.074   6.772  0.5845 -0.5236  0.3761
10710SOL    HW132708   9.650   6.991   6.818 -0.9303 -1.5613 -1.1123
10710SOL    HW232709   9.608   7.135   6.836 -0.1583 -1.5572  0.9743
10711SOL     OW32710   4.117   2.219   2.073  0.3499 -0.1076  0.0978
10711SOL    HW132711   4.153   2.193   1.988 -1.5319 -0.1054 -0.7686
10711SOL    HW232712   4.140   2.311   2.082 -1.2281  0.5203 -1.5021
10712SOL     OW32713   4.852   5.100   8.846  0.1597 -0.1435  0.1171
10712SOL    HW132714   4.849   5.195   8.839  1.8166  0.0943  1.7402
10712SOL    HW232715   4.761   5.074   8.859 -0.2871  1.2470 -0.0249
10713SOL     OW32716   5.905   4.824   9.332 -0.6098  0.2619  0.4338
10713SOL    HW132717   5.955   4.748   9.301  1.9364  1.5299  1.1818
10713SOL    HW232718   5.835   4.834   9.268 -0.7719 -2.4429  0.0828
10714SOL     OW32719   3.076   6.039   0.484 -0.7455 -0.3930 -0.4512
10714SOL    HW132720   2.989   6.067   0.512 -0.0691  0.1796  1.2166
10714SOL    HW232721   3.083   5.948   0.514  0.0691  0.2943  1.6319
10715SOL     OW32722   6.528   7.672   8.315  0.2267 -0.0287 -0.5366
10715SOL    HW132723   6.523   7.675   8.411  0.7109  1.3069 -0.5373
10715SOL    HW232724   6.587   7.744   8.292  1.3372 -1.2758 -1.7642
10716SOL     OW32725   2.139   9.801   6.365 -0.1658  0.5430  0.0187
10716SOL    HW132726   2.222   9.835   6.329  0.5755  0.4461  1.5486
10716SOL    HW232727   2.084   9.788   6.288  1.1897  0.7402 -1.0442
10717SOL     OW32728   5.588   8.809   4.744 -0.3063 -0.1284  0.0028
10717SOL    HW132729   5.562   8.763   4.824 -0.5499  1.1413  0.6794
10717SOL    HW232730   5.658   8.755   4.707 -1.4332 -1.7201  0.0624
10718SOL     OW32731   2.351   4.967   0.933  0.0614  0.4229 -0.3972
10718SOL    HW132732   2.256   4.967   0.923 -0.4953 -2.7174  2.8348
10718SOL    HW232733   2.366   4.999   1.022  1.8613 -0.9340 -0.1508
10719SOL     OW32734   4.456   4.293   5.094 -0.0075 -0.4807 -0.2127
10719SOL    HW132735   4.492   4.359   5.034  0.5752 -1.3422 -0.8315
10719SOL    HW232736   4.421   4.344   5.167  2.0866  0.4257  0.2268
10720SOL     OW32737   7.534   8.605   6.396 -0.2544  0.0020 -0.2420
10720SOL    HW132738   7.610   8.656   6.423  0.6839 -0.4744 -1.8152
10720SOL    HW232739   7.529   8.620   6.301 -0.9655 -1.4963 -0.4556
10721SOL     OW32740   8.877   4.984   3.598  0.3245  0.5288 -0.0864
10721SOL    HW132741   8.872   5.024   3.684  0.2378 -1.9167  1.1382
10721SOL    HW232742   8.953   4.926   3.604 -0.2695 -0.4170 -1.3151
10722SOL     OW32743   3.426   1.163   9.495  0.3786 -0.0486  0.0524
10722SOL    HW132744   3.440   1.069   9.506  0.5111 -0.0299  0.0396
10722SOL    HW232745   3.508   1.195   9.458  0.2702  0.0422 -0.1077
10723SOL     OW32746   3.288   1.129   3.811  0.7104  0.2260  0.1965
10723SOL    HW132747   3.271   1.044   3.852 -0.4456 -1.1135 -2.7149
10723SOL    HW232748   3.254   1.193   3.873  0.0305 -1.5555  1.7635
10724SOL     OW32749   1.084   3.845   9.062 -0.5571 -0.2457 -0.3391
10724SOL    HW132750   1.145   3.811   8.996 -1.9063 -1.0600 -1.1987
10724SOL    HW232751   1.067   3.770   9.120  0.8555  0.5366  1.1946
10725SOL     OW32752   1.637   9.272   0.591 -0.3058  0.3973  0.1486
10725SOL    HW132753   1.637   9.263   0.496 -0.1140  0.2372  0.1613
10725SOL    HW232754   1.654   9.183   0.623 -2.0765  0.1102  0.3734
10726SOL     OW32755   8.035   9.429   0.224 -0.1080 -0.4681  0.4480
10726SOL    HW132756   8.062   9.517   0.196 -0.2730 -0.0712  1.5090
10726SOL    HW232757   8.108   9.372   0.197 -0.6614 -0.2887 -1.6383
10727SOL     OW32758   5.916   3.493   2.555  0.0820 -0.0050  0.5028
10727SOL    HW132759   5.980   3.563   2.541  1.0922 -1.0519 -0.2081
10727SOL    HW232760   5.859   3.497   2.478 -1.1754  1.3352  1.4228
10728SOL     OW32761   9.937   8.005   4.062  0.1668 -0.4246 -0.2417
10728SOL    HW132762   9.997   8.080   4.055 -1.6087  1.1843  0.7048
10728SOL    HW232763   9.968   7.943   3.996  2.2408  0.7550 -0.4615
10729SOL     OW32764   6.424   0.603   5.576  0.3604 -0.2512  0.2613
10729SOL    HW132765   6.437   0.667   5.506  0.0291 -0.7894 -0.3045
10729SOL    HW232766   6.494   0.540   5.564  1.0870  0.3512  1.2312
10730SOL     OW32767   6.231   8.873   7.467 -0.1095 -0.0170 -0.0048
10730SOL    HW132768   6.179   8.814   7.520 -1.1933  1.4583  0.6501
10730SOL    HW232769   6.289   8.917   7.530 -0.8338  1.1531 -0.1219
10731SOL     OW32770   7.075   1.962   2.302  0.1570 -0.6190  0.1253
10731SOL    HW132771   7.135   1.915   2.244  1.3897 -1.2882  1.8488
10731SOL    HW232772   7.003   1.989   2.246  1.2693 -1.2641 -1.6855
10732SOL     OW32773   0.492   4.113   3.429  0.1313 -0.6717  0.3831
10732SOL    HW132774   0.485   4.208   3.417  0.0581 -0.6141  0.8457
10732SOL    HW232775   0.577   4.090   3.392  0.0929 -0.4430  0.1530
10733SOL     OW32776   4.276   3.612   9.238  0.2885 -0.1778 -0.0333
10733SOL    HW132777   4.226   3.563   9.302 -1.2659 -2.5378 -2.7925
10733SOL    HW232778   4.249   3.703   9.251  0.0557 -0.5434  2.5420
10734SOL     OW32779   5.000   8.542   8.240  0.0337 -0.0089  0.0405
10734SOL    HW132780   4.959   8.458   8.260 -0.6481  0.4652  0.7210
10734SOL    HW232781   4.963   8.602   8.305 -0.4415  1.0785 -1.1845
10735SOL     OW32782   8.307   7.232   4.835 -0.5334  0.7399  0.0109
10735SOL    HW132783   8.350   7.150   4.860 -0.7603  0.7464  0.4407
10735SOL    HW232784   8.378   7.289   4.806 -0.3144  0.5742  0.2207
10736SOL     OW32785   3.168   9.235   5.291  0.5478  0.7591 -0.2867
10736SOL    HW132786   3.169   9.168   5.223  2.4727  0.9151 -0.4595
10736SOL    HW232787   3.182   9.186   5.373 -1.3948  0.6158  0.0191
10737SOL     OW32788   8.667   3.968   6.827  0.0971 -0.3912  0.0048
10737SOL    HW132789   8.733   3.899   6.834  0.5167 -0.0699 -0.7151
10737SOL    HW232790   8.645   3.990   6.917  0.7261 -0.7311  0.2435
10738SOL     OW32791   0.529   4.573   2.521  0.0046 -0.5421 -0.1551
10738SOL    HW132792   0.573   4.632   2.460 -0.0544 -1.2739 -0.9315
10738SOL    HW232793   0.600   4.530   2.569  0.1492 -1.3100 -1.0146
10739SOL     OW32794   6.574   3.403   6.567  0.2436 -0.1788  0.4996
10739SOL    HW132795   6.564   3.472   6.633 -0.5366  0.7392 -0.5298
10739SOL    HW232796   6.665   3.410   6.539 -0.0666  1.1309 -0.2836
10740SOL     OW32797   5.558   3.848   7.415 -1.1949 -0.3216  0.3267
10740SOL    HW132798   5.512   3.925   7.449  0.4392  0.3286  1.1648
10740SOL    HW232799   5.615   3.882   7.346  0.1194 -0.6310  1.2357
10741SOL     OW32800   2.647   8.251   5.863  0.3963 -0.1467  0.3003
10741SOL    HW132801   2.634   8.342   5.887 -1.1086 -0.1749 -0.2778
10741SOL    HW232802   2.727   8.251   5.810  0.3092  0.8676  0.1493
10742SOL     OW32803   8.467   1.625   8.035 -0.1688 -1.1058 -0.4521
10742SOL    HW132804   8.446   1.641   8.127  0.3329 -1.2533 -0.3106
10742SOL    HW232805   8.420   1.694   7.987  0.9251  0.0264  0.0446
10743SOL     OW32806   7.180   3.999   5.278 -0.3160 -0.4936 -0.1417
10743SOL    HW132807   7.086   3.989   5.261 -0.2529 -1.2112 -0.0807
10743SOL    HW232808   7.206   3.918   5.321  0.2439 -0.1151  0.2527
10744SOL     OW32809   2.624  10.007   1.836 -0.2560  0.3229 -0.5566
10744SOL    HW132810   2.687   9.945   1.799  0.7910  1.4808 -0.7701
10744SOL    HW232811   2.576   9.956   1.901  0.5559 -0.7174 -0.7430
10745SOL     OW32812   9.303   2.438   9.853 -0.5386  0.7418  0.4030
10745SOL    HW132813   9.376   2.471   9.800 -0.5671 -2.6126 -2.0620
10745SOL    HW232814   9.346   2.391   9.925 -0.2184 -0.4831 -0.5532
10746SOL     OW32815   7.258   7.616   2.048  0.2506  0.2385 -0.0101
10746SOL    HW132816   7.253   7.665   1.966 -0.4176 -0.9084 -0.6911
10746SOL    HW232817   7.178   7.640   2.095 -0.0797 -0.1937 -0.3459
10747SOL     OW32818   2.663   4.287   5.336 -0.4492  0.5789 -0.6060
10747SOL    HW132819   2.665   4.204   5.383  0.2293  0.2125 -1.2522
10747SOL    HW232820   2.756   4.307   5.319 -0.6787  0.5292 -2.0556
10748SOL     OW32821   1.313   7.200   3.411  0.0804  0.6605  0.5481
10748SOL    HW132822   1.287   7.287   3.382  0.3799  0.7661  0.5911
10748SOL    HW232823   1.239   7.144   3.388  0.1196  0.8272  0.0044
10749SOL     OW32824   3.192   1.346   9.228  0.3842 -0.3210  0.3420
10749SOL    HW132825   3.132   1.327   9.155  0.7801  0.8730 -0.3211
10749SOL    HW232826   3.273   1.302   9.204  0.2019 -0.7845  0.5665
10750SOL     OW32827   6.146   1.787   9.541 -0.4529 -0.3438 -0.2304
10750SOL    HW132828   6.178   1.790   9.451  2.9707  1.1626  0.8780
10750SOL    HW232829   6.166   1.699   9.571  0.6451 -0.1222 -0.2717
10751SOL     OW32830   4.694   2.038   4.647 -0.2250  0.7437 -0.6567
10751SOL    HW132831   4.704   1.997   4.733  1.3669 -0.2373 -1.2603
10751SOL    HW232832   4.778   2.082   4.631  0.0929 -0.3355 -2.2862
10752SOL     OW32833   5.919   1.665   3.533  0.5661 -0.1627  0.6838
10752SOL    HW132834   6.008   1.689   3.508 -0.3039  1.8358 -0.7727
10752SOL    HW232835   5.878   1.635   3.452  0.5405 -3.4592  1.7805
10753SOL     OW32836   2.597   6.374   3.504 -0.1315  0.2023  0.1568
10753SOL    HW132837   2.550   6.427   3.568 -0.2434 -1.6755  1.7308
10753SOL    HW232838   2.683   6.358   3.544 -0.1531 -0.8841 -0.1946
10754SOL     OW32839   3.035   2.704   2.441  0.5914 -0.2530  0.3426
10754SOL    HW132840   3.033   2.610   2.459  0.2886  0.0573  2.1182
10754SOL    HW232841   2.948   2.735   2.466 -0.3083  0.1277 -2.8173
10755SOL     OW32842   8.335   8.622   6.837 -0.4597  0.1974  0.6508
10755SOL    HW132843   8.315   8.640   6.745 -0.8159  0.7205  0.8313
10755SOL    HW232844   8.257   8.578   6.870 -0.3116 -0.0349  0.6964
10756SOL     OW32845   4.853   6.176   9.045 -0.3761  0.6043 -0.3611
10756SOL    HW132846   4.933   6.131   9.071 -0.8170 -2.1352 -3.2604
10756SOL    HW232847   4.877   6.224   8.966 -1.1404  1.5632 -0.0396
10757SOL     OW32848   4.490   1.500   1.037  0.8336 -0.7206 -0.0565
10757SOL    HW132849   4.473   1.519   0.945 -0.0524 -1.8881 -0.1582
10757SOL    HW232850   4.585   1.513   1.046  0.5697  2.1293 -0.4180
10758SOL     OW32851   3.640   6.370   1.775  0.3121  0.1829 -0.1085
10758SOL    HW132852   3.635   6.453   1.823  2.7575  0.1861  0.2761
10758SOL    HW232853   3.549   6.340   1.769 -0.2496  0.7329  3.5422
10759SOL     OW32854   5.552   3.108   6.269 -0.3358 -0.4348 -0.1391
10759SOL    HW132855   5.505   3.046   6.213 -0.3156 -3.7988  3.1722
10759SOL    HW232856   5.484   3.157   6.314 -0.4952 -0.8973  0.1289
10760SOL     OW32857   7.211   1.279   1.392  0.4013  0.0716 -0.0105
10760SOL    HW132858   7.266   1.266   1.469  0.0269  1.0277  0.4398
10760SOL    HW232859   7.270   1.268   1.317  0.9725  0.0515  0.4404
10761SOL     OW32860   8.644   9.720   4.747  0.1013 -0.0788 -0.3956
10761SOL    HW132861   8.566   9.667   4.732  0.6952 -0.8936 -0.6311
10761SOL    HW232862   8.691   9.718   4.663  0.4234  0.3312 -0.2293
10762SOL     OW32863   0.226   4.433   6.277  0.3526  0.8420  0.0327
10762SOL    HW132864   0.147   4.471   6.239  0.3409 -0.1639 -0.9985
10762SOL    HW232865   0.192   4.369   6.341  0.3691  1.9414  1.1806
10763SOL     OW32866   2.607   3.101   4.184  0.4269  0.2379 -0.0590
10763SOL    HW132867   2.628   3.072   4.095  1.2658 -1.5572  0.6778
10763SOL    HW232868   2.679   3.068   4.238 -1.0085 -0.3739  1.5721
10764SOL     OW32869   4.468   1.317   6.597  0.2044  0.1210  0.6058
10764SOL    HW132870   4.435   1.289   6.511  0.8284  1.0387  0.0393
10764SOL    HW232871   4.390   1.342   6.646 -0.1554 -0.3485  0.2840
10765SOL     OW32872   6.209   7.489   3.035 -0.2042 -0.1274  0.0317
10765SOL    HW132873   6.144   7.550   3.000 -0.1057 -0.2882 -0.4468
10765SOL    HW232874   6.178   7.469   3.123 -1.1278 -0.6426 -0.3824
10766SOL     OW32875   3.664   2.280   4.980  0.3581  0.2608 -0.3700
10766SOL    HW132876   3.573   2.265   4.954  0.3653 -0.2380 -0.1319
10766SOL    HW232877   3.658   2.303   5.073  0.4230  0.8886 -0.5218
10767SOL     OW32878   6.942   3.645   4.829  0.8212 -0.3883 -0.4179
10767SOL    HW132879   6.921   3.555   4.850  0.6246 -0.1261  0.5613
10767SOL    HW232880   6.962   3.644   4.735 -0.7391 -1.1589 -0.7737
10768SOL     OW32881   1.864   0.538   9.468  0.7950 -0.6633 -0.0125
10768SOL    HW132882   1.943   0.549   9.414  1.1998 -1.0985  0.4761
10768SOL    HW232883   1.890   0.475   9.536 -0.7413 -3.0627 -1.4641
10769SOL     OW32884   5.604   6.749   6.489  0.1232  0.0297  0.1405
10769SOL    HW132885   5.590   6.672   6.435 -0.3448  0.7200 -0.7425
10769SOL    HW232886   5.654   6.809   6.432 -0.1390  0.6573  0.5660
10770SOL     OW32887   9.697   7.108   8.276  0.1541 -0.4160  0.2523
10770SOL    HW132888   9.606   7.101   8.305  0.2984 -0.1485  0.7932
10770SOL    HW232889   9.717   7.202   8.282  0.7535 -0.5823  1.0740
10771SOL     OW32890   0.752   4.565   9.556  0.7033  0.1278 -0.2165
10771SOL    HW132891   0.658   4.567   9.543  0.7434  2.4261 -0.4890
10771SOL    HW232892   0.789   4.610   9.480  1.8460  1.2199  0.9292
10772SOL     OW32893   0.895   3.833   0.732 -0.4999 -1.1880 -0.1474
10772SOL    HW132894   0.878   3.924   0.707  1.1980 -0.5388  0.8874
10772SOL    HW232895   0.887   3.784   0.650 -0.8290 -0.0290 -0.8357
10773SOL     OW32896   3.973   9.952   2.677  0.1658 -0.2760 -0.5249
10773SOL    HW132897   3.939   9.895   2.609  0.4853 -1.0253 -0.0679
10773SOL    HW232898   4.037  10.008   2.632 -0.5501  0.1192 -1.0808
10774SOL     OW32899   7.088   3.408   4.308 -0.3605  0.2599 -0.2394
10774SOL    HW132900   6.998   3.417   4.277 -0.4747  0.3465  0.1203
10774SOL    HW232901   7.124   3.497   4.305 -1.0896  0.6959  2.0727
10775SOL     OW32902   0.923   5.551   4.092  0.5351  0.5041 -0.0144
10775SOL    HW132903   0.891   5.513   4.174 -0.1965 -0.9683 -0.9418
10775SOL    HW232904   1.012   5.517   4.083  0.5398  0.4954  0.0665
10776SOL     OW32905   2.326   7.544   0.356 -0.0165 -0.1634 -0.0700
10776SOL    HW132906   2.257   7.512   0.414  0.9429  0.0297  1.2188
10776SOL    HW232907   2.294   7.629   0.325  0.7739  1.3062  2.7678
10777SOL     OW32908   3.452   2.095   9.505 -0.2264  0.2565 -0.2878
10777SOL    HW132909   3.406   2.069   9.585 -2.0886 -0.4432 -1.5110
10777SOL    HW232910   3.459   2.191   9.511 -0.5603  0.2353  0.5873
10778SOL     OW32911   0.548   0.347   0.116  0.5242  0.4011  0.1951
10778SOL    HW132912   0.604   0.422   0.136  0.3693  0.4932  0.2784
10778SOL    HW232913   0.595   0.301   0.046  0.7077  0.4755  0.2678
10779SOL     OW32914   2.382   5.129   7.232 -0.6606 -0.6037 -0.5320
10779SOL    HW132915   2.460   5.118   7.177  0.2851  0.9963  0.4002
10779SOL    HW232916   2.358   5.039   7.257  2.6952 -1.1029  1.5156
10780SOL     OW32917   3.865   6.294   4.589 -0.9015  0.3409 -0.2835
10780SOL    HW132918   3.780   6.288   4.546  0.6045 -1.0553 -3.3204
10780SOL    HW232919   3.924   6.329   4.522  1.6653 -2.2059  0.4657
10781SOL     OW32920   1.400   1.141   8.261  0.4361 -0.2438 -0.5481
10781SOL    HW132921   1.390   1.212   8.324  0.9301 -1.2992  0.7709
10781SOL    HW232922   1.482   1.160   8.216  0.7413 -0.1442  0.0409
10782SOL     OW32923   2.646   0.932   6.056  0.0001  0.3589 -0.0071
10782SOL    HW132924   2.677   0.947   5.967  1.2948 -0.9321  0.1695
10782SOL    HW232925   2.700   0.990   6.110 -1.2445  1.6326 -0.1033
10783SOL     OW32926   9.885   1.756   8.179 -0.0993  0.1425 -0.2612
10783SOL    HW132927   9.813   1.719   8.230  0.0956 -0.9135 -0.7345
10783SOL    HW232928   9.952   1.688   8.178  0.4546  0.6790 -0.7672
10784SOL     OW32929   9.492   1.483   8.289  0.5262 -0.3115  0.1654
10784SOL    HW132930   9.561   1.548   8.306  1.7156 -1.1119 -1.3848
10784SOL    HW232931   9.533   1.399   8.310 -0.0697 -0.7750 -0.5109
10785SOL     OW32932   5.276   1.480   9.954  0.5754 -0.6388  0.1973
10785SOL    HW132933   5.281   1.467   9.860 -0.6326 -0.9255  0.1609
10785SOL    HW232934   5.367   1.481   9.983  1.0234  0.5742 -1.1166
10786SOL     OW32935   6.155   2.018   9.683 -0.2298 -0.0480  0.3896
10786SOL    HW132936   6.166   1.939   9.630  0.8404 -0.1019  0.6693
10786SOL    HW232937   6.244   2.042   9.709 -0.6395  0.6352  1.2046
10787SOL     OW32938   4.047   2.315   0.791 -0.0571  0.3001 -0.3998
10787SOL    HW132939   4.066   2.222   0.782  1.5208  0.6264 -0.8305
10787SOL    HW232940   4.019   2.326   0.882  0.7091 -0.4539 -0.0567
10788SOL     OW32941   1.639   4.985   9.858  0.0149  0.5231 -0.2125
10788SOL    HW132942   1.641   4.890   9.847 -0.9133  0.4942 -0.1432
10788SOL    HW232943   1.556   5.013   9.821 -2.0237  0.7354  3.9704
10789SOL     OW32944   7.770   1.574   0.524  0.2642 -0.0821 -0.1783
10789SOL    HW132945   7.781   1.629   0.601 -0.3223  0.0239 -0.1720
10789SOL    HW232946   7.786   1.485   0.556  0.7145  0.0277 -0.0853
10790SOL     OW32947   3.879   4.668   1.399 -0.3849 -0.1266  0.7694
10790SOL    HW132948   3.834   4.607   1.457 -0.5302 -1.7305 -0.9278
10790SOL    HW232949   3.971   4.647   1.409 -0.5369 -2.0653 -1.2245
10791SOL     OW32950   3.563   0.734   4.683  0.0718 -0.1872 -0.0745
10791SOL    HW132951   3.523   0.658   4.641 -0.7600 -0.9055  1.9154
10791SOL    HW232952   3.494   0.800   4.684  0.3462  0.1111 -0.5363
10792SOL     OW32953   7.840   9.220   1.985 -0.1808  0.0468 -0.3691
10792SOL    HW132954   7.792   9.175   2.054  0.8051  0.6402  0.7538
10792SOL    HW232955   7.894   9.152   1.945 -1.3655 -0.4689 -1.1476
10793SOL     OW32956   5.369   1.981   4.900 -0.1715 -0.0818  0.1337
10793SOL    HW132957   5.376   2.074   4.922  0.0785  0.0541 -0.4849
10793SOL    HW232958   5.289   1.974   4.849 -1.2355 -0.5474  1.7817
10794SOL     OW32959   0.722   5.273   9.758  0.0950 -0.2449 -0.1829
10794SOL    HW132960   0.786   5.344   9.760 -0.5200  0.3106  0.4456
10794SOL    HW232961   0.761   5.207   9.701  1.4169 -0.1000  0.4999
10795SOL     OW32962   0.757   7.108   4.407  0.4687 -0.0559  0.0104
10795SOL    HW132963   0.831   7.157   4.442  0.5871 -1.0012  1.1589
10795SOL    HW232964   0.705   7.173   4.360  1.5251  0.8055  0.0057
10796SOL     OW32965   4.575   0.923   0.149 -0.1049 -0.1288  0.2029
10796SOL    HW132966   4.564   0.840   0.102  0.7120  0.1464 -0.4924
10796SOL    HW232967   4.507   0.980   0.113 -1.2829 -0.7520  1.3409
10797SOL     OW32968   9.855   2.374   8.755  0.5228  0.5901 -0.1140
10797SOL    HW132969   9.824   2.289   8.726  0.1378  0.2529  1.2427
10797SOL    HW232970   9.939   2.385   8.710  0.4261 -0.3562 -0.5472
10798SOL     OW32971   3.876   1.037   9.648 -0.2459 -0.0507  0.0220
10798SOL    HW132972   3.792   1.070   9.680 -0.0293  0.3807  0.1604
10798SOL    HW232973   3.942   1.088   9.695  0.0828  0.6291 -1.1164
10799SOL     OW32974   6.967   5.704   3.267 -0.1707  0.3013  0.0452
10799SOL    HW132975   6.986   5.624   3.316  0.2416  0.6572  0.4771
10799SOL    HW232976   7.045   5.718   3.213 -1.3015 -1.0365 -2.0599
10800SOL     OW32977   2.704   2.646   5.867 -0.6147  0.3721 -0.3161
10800SOL    HW132978   2.769   2.593   5.914 -1.1136  1.9281  2.3256
10800SOL    HW232979   2.637   2.584   5.839  0.2485 -0.7717  0.0858
10801SOL     OW32980   4.236   2.446   9.067 -0.0765 -0.5120 -0.2346
10801SOL    HW132981   4.313   2.401   9.033 -0.7388 -0.5063 -1.8256
10801SOL    HW232982   4.172   2.377   9.082 -1.2457 -0.1864 -3.0875
10802SOL     OW32983   3.211   2.883   4.979 -0.3254  0.0234  0.1255
10802SOL    HW132984   3.302   2.872   4.950 -0.7557  0.3265 -1.4608
10802SOL    HW232985   3.175   2.794   4.979 -0.5786  0.0956 -1.3015
10803SOL     OW32986   8.764   9.193   7.578 -0.6740 -0.0840 -0.2876
10803SOL    HW132987   8.811   9.195   7.494 -0.0823  0.8879  0.0608
10803SOL    HW232988   8.721   9.107   7.578  1.5407 -1.2818 -0.3679
10804SOL     OW32989   1.670   2.068   5.538 -0.5646  0.0578 -0.4348
10804SOL    HW132990   1.764   2.048   5.528 -0.8318 -0.4200 -2.5340
10804SOL    HW232991   1.649   2.041   5.627  1.1469 -0.5319 -0.1689
10805SOL     OW32992   7.016   7.359   8.431  0.0036 -0.0263 -0.1668
10805SOL    HW132993   7.090   7.337   8.487  0.0023 -1.1730 -0.5950
10805SOL    HW232994   6.962   7.417   8.485  0.7297  0.0702  0.4826
10806SOL     OW32995   3.474   2.484   1.101  0.1653 -0.0401  0.1159
10806SOL    HW132996   3.528   2.413   1.135 -0.1637 -0.8393 -0.9891
10806SOL    HW232997   3.459   2.461   1.009 -0.6489  1.0305 -0.0338
10807SOL     OW32998   5.571   0.369   3.891  0.1563 -0.0391 -0.7207
10807SOL    HW132999   5.663   0.340   3.892  0.2999  0.2345  2.0713
10807SOL    HW233000   5.529   0.316   3.958 -1.6575  0.1600 -1.6531
10808SOL     OW33001   9.153   7.556   2.212  0.0214  0.2353  0.5815
10808SOL    HW133002   9.176   7.643   2.180  1.1924 -0.3897 -0.3897
10808SOL    HW233003   9.234   7.505   2.202 -0.7754 -1.0921  0.6579
10809SOL     OW33004   5.436   3.300   8.177  0.0121  0.4200  0.5374
10809SOL    HW133005   5.359   3.354   8.161  1.0317  1.5125 -1.0632
10809SOL    HW233006   5.480   3.342   8.251 -1.4309 -0.8487  2.1831
10810SOL     OW33007   5.532   8.713   6.103  0.1518 -0.3350 -0.2163
10810SOL    HW133008   5.470   8.717   6.176 -1.2414  1.6431 -1.4231
10810SOL    HW233009   5.611   8.757   6.136 -0.2292 -0.0303  0.2952
10811SOL     OW33010   6.279   6.683   3.146 -0.0562 -0.1222 -0.4137
10811SOL    HW133011   6.202   6.699   3.092  0.4360  2.9674 -0.3375
10811SOL    HW233012   6.352   6.680   3.084  0.4307  2.8383 -0.1364
10812SOL     OW33013   7.409   6.195   1.731  0.3236 -0.6666  0.5137
10812SOL    HW133014   7.416   6.213   1.824 -0.1473 -2.0995  0.8573
10812SOL    HW233015   7.494   6.158   1.707  0.5092 -0.1272  0.3231
10813SOL     OW33016   5.779   0.238   7.552  0.3028 -0.3642  0.0358
10813SOL    HW133017   5.813   0.206   7.468 -2.6091  1.2054 -1.9340
10813SOL    HW233018   5.853   0.284   7.592  2.1228 -2.1897 -1.0256
10814SOL     OW33019   6.692   8.679   5.708  0.1526 -0.5971  0.4635
10814SOL    HW133020   6.617   8.699   5.764  1.8125  0.9254  2.2662
10814SOL    HW233021   6.752   8.629   5.764  0.6801 -1.4609 -0.8199
10815SOL     OW33022   4.076   4.240   8.770  0.1818 -0.4574  0.2888
10815SOL    HW133023   3.984   4.223   8.793  0.3959 -0.6879  1.0175
10815SOL    HW233024   4.104   4.304   8.836 -0.3910  2.2189 -1.9000
10816SOL     OW33025   6.087   3.723   6.050  0.2760  0.2207  0.1667
10816SOL    HW133026   6.043   3.639   6.038 -0.2722  0.4666  0.4079
10816SOL    HW233027   6.061   3.751   6.138 -1.1505  1.5659 -0.6346
10817SOL     OW33028   8.924   1.398   6.501 -0.2835 -0.1695 -0.2310
10817SOL    HW133029   8.864   1.324   6.505 -1.0232  0.3977 -0.5492
10817SOL    HW233030   8.884   1.464   6.558  1.1331 -0.5332  1.2740
10818SOL     OW33031   8.756   2.870   0.893 -0.2602  0.6625 -0.2272
10818SOL    HW133032   8.772   2.926   0.817  0.6591  1.7235  0.7165
10818SOL    HW233033   8.690   2.807   0.863 -0.0353  1.1597 -1.8398
10819SOL     OW33034   4.275   1.182   4.310 -0.1879  0.2792 -0.1918
10819SOL    HW133035   4.315   1.109   4.356  1.3110  0.7486 -0.7019
10819SOL    HW233036   4.270   1.154   4.219 -0.6056  0.4090 -0.2128
10820SOL     OW33037   2.883   4.832   9.749 -0.3330 -0.3595  0.3037
10820SOL    HW133038   2.864   4.812   9.840 -0.4068  1.1568  0.6503
10820SOL    HW233039   2.849   4.757   9.700 -1.7887 -0.4558  1.3935
10821SOL     OW33040   8.444   4.556   8.444  0.4822  0.8103 -0.4500
10821SOL    HW133041   8.387   4.495   8.491  0.5156  0.8753 -0.3244
10821SOL    HW233042   8.471   4.509   8.366  1.1246  0.3836  0.0234
10822SOL     OW33043   2.116   5.640   1.563 -0.0703 -0.5593  0.1838
10822SOL    HW133044   2.031   5.621   1.603  0.5239 -0.6861  1.4106
10822SOL    HW233045   2.136   5.729   1.589 -0.7858  0.2771 -1.8916
10823SOL     OW33046   5.081   3.243   0.279  0.0667 -0.6195  0.4785
10823SOL    HW133047   5.163   3.217   0.237  1.9768  2.3133  1.9935
10823SOL    HW233048   5.086   3.205   0.366  0.7727  0.9987  1.1879
10824SOL     OW33049   3.933   8.101   9.709  0.1267  0.1232  0.6954
10824SOL    HW133050   3.960   8.098   9.801  1.4363  1.6483  0.3965
10824SOL    HW233051   4.007   8.063   9.661 -0.3203 -0.1541  0.2111
10825SOL     OW33052   2.751   0.881   0.683 -0.2834  0.2808  0.4173
10825SOL    HW133053   2.741   0.968   0.721 -0.9732 -0.2142  1.4350
10825SOL    HW233054   2.805   0.894   0.606 -0.4236  1.6155  0.5225
10826SOL     OW33055   1.178   6.377   8.856  0.3158  0.3446  0.0758
10826SOL    HW133056   1.173   6.365   8.951  0.6153  1.7392  0.2902
10826SOL    HW233057   1.107   6.438   8.836 -0.3021 -0.6136 -0.7403
10827SOL     OW33058   2.383   9.178   9.557 -0.2277 -0.2866 -0.1011
10827SOL    HW133059   2.346   9.230   9.485 -1.9163 -0.7311  0.4134
10827SOL    HW233060   2.431   9.242   9.610  1.2813  0.0067 -1.7325
10828SOL     OW33061   3.279   4.512   8.086  0.3496 -0.4402 -0.2229
10828SOL    HW133062   3.276   4.602   8.054 -0.8277 -1.0009 -1.8437
10828SOL    HW233063   3.276   4.520   8.182 -1.2529  1.2196 -0.3640
10829SOL     OW33064   1.115   5.646   6.418 -0.2044 -0.3215  0.1764
10829SOL    HW133065   1.136   5.739   6.427  1.3532 -0.5715 -0.6335
10829SOL    HW233066   1.134   5.609   6.504  0.4887 -0.1178  0.1179
10830SOL     OW33067   0.529   4.324   3.971  0.0315  0.1653  0.2080
10830SOL    HW133068   0.528   4.359   3.883 -0.9552  1.0811  0.5618
10830SOL    HW233069   0.496   4.234   3.962  0.6367  0.0077 -0.4412
10831SOL     OW33070   8.317   3.060   7.568 -0.0918 -0.9210 -0.1383
10831SOL    HW133071   8.337   3.131   7.506  0.5133 -1.6069 -0.7407
10831SOL    HW233072   8.389   3.061   7.630 -0.2582 -0.7890  0.0520
10832SOL     OW33073   8.015   3.738   3.469 -0.4334 -0.3090  0.8125
10832SOL    HW133074   7.985   3.827   3.450  1.6374  0.0061 -1.5878
10832SOL    HW233075   7.939   3.683   3.450 -1.3902  0.8309  1.1771
10833SOL     OW33076   7.492   7.220   8.281  0.0136  0.1126 -0.1411
10833SOL    HW133077   7.494   7.213   8.377 -1.8560  0.8498  0.0107
10833SOL    HW233078   7.496   7.130   8.250 -0.6831 -0.2204  0.7014
10834SOL     OW33079   7.717   6.411   0.801  0.5936 -0.1239  0.6620
10834SOL    HW133080   7.635   6.367   0.780 -0.5907  2.0896  0.2898
10834SOL    HW233081   7.697   6.504   0.793  3.1796  0.5091  0.4691
10835SOL     OW33082   0.858   0.507   4.571  0.6125  0.6638 -0.0680
10835SOL    HW133083   0.856   0.499   4.476  1.5343 -1.2828  0.0328
10835SOL    HW233084   0.926   0.573   4.588  0.0213  1.4762 -0.7366
10836SOL     OW33085   4.994   9.474   5.236  0.3068 -0.5043  0.0072
10836SOL    HW133086   4.902   9.461   5.260 -0.2603  0.8356 -1.2417
10836SOL    HW233087   5.013   9.563   5.266  1.6248 -1.1938  1.3757
10837SOL     OW33088   5.814   1.415   6.840  0.1499 -0.3689  0.0575
10837SOL    HW133089   5.747   1.347   6.831 -0.2712  0.0072  0.3037
10837SOL    HW233090   5.777   1.491   6.797  0.1183  0.0482  0.7968
10838SOL     OW33091   1.324   6.618   9.038  0.9226  0.3941  0.3759
10838SOL    HW133092   1.367   6.533   9.024 -1.3287 -1.0813  1.7264
10838SOL    HW233093   1.297   6.646   8.951 -3.2848 -3.2060  0.1890
10839SOL     OW33094   4.317   8.338   0.181  0.5592 -0.1162  0.4440
10839SOL    HW133095   4.285   8.301   0.263 -1.7769  2.6459  0.9464
10839SOL    HW233096   4.333   8.431   0.200 -1.1905  0.9326 -2.3811
10840SOL     OW33097   4.991   9.004   3.339 -0.5171  0.1643 -0.3969
10840SOL    HW133098   4.976   9.070   3.407 -2.0552 -0.3517 -0.1896
10840SOL    HW233099   4.972   8.921   3.382 -0.1231 -0.2944 -1.0884
10841SOL     OW33100   1.906   0.553   9.093  0.0690  0.7651  0.2197
10841SOL    HW133101   1.952   0.554   9.009  0.5342  2.1590  0.4587
10841SOL    HW233102   1.889   0.645   9.112 -1.2389  0.3837  1.0139
10842SOL     OW33103   0.233   4.200   5.987  0.0435  0.1721 -0.1893
10842SOL    HW133104   0.289   4.150   5.927 -1.7977 -0.9002 -1.0775
10842SOL    HW233105   0.236   4.289   5.953 -0.1566 -0.2214 -1.2847
10843SOL     OW33106   8.951   0.403   2.332  0.0693  0.3464  0.0897
10843SOL    HW133107   8.880   0.350   2.295  0.1522 -0.6485  1.2898
10843SOL    HW233108   8.978   0.461   2.261 -1.5168  0.3057 -0.5846
10844SOL     OW33109   9.885   8.602   2.699 -0.3296  0.0724  0.2551
10844SOL    HW133110   9.817   8.668   2.686 -2.1347 -1.5878  0.7400
10844SOL    HW233111   9.931   8.630   2.779 -2.7143 -0.4899  1.9391
10845SOL     OW33112   1.144   9.720   7.152 -0.0974 -0.0975  0.3396
10845SOL    HW133113   1.116   9.644   7.101 -0.2833 -0.2255  0.6302
10845SOL    HW233114   1.131   9.795   7.093  0.5086 -0.3332 -0.1079
10846SOL     OW33115   0.718   8.249   4.740  0.7355  0.0394  0.4926
10846SOL    HW133116   0.674   8.222   4.821 -0.0076 -0.7673 -0.1640
10846SOL    HW233117   0.788   8.185   4.728  0.6607 -0.0140  0.3420
10847SOL     OW33118   5.426   1.008   0.766  0.2460 -0.7500 -0.4990
10847SOL    HW133119   5.416   1.103   0.761 -0.1544 -0.7990 -0.7319
10847SOL    HW233120   5.362   0.974   0.703 -1.3668 -1.2630  1.2905
10848SOL     OW33121   5.823   9.923   8.541 -0.8207  0.0651  0.0216
10848SOL    HW133122   5.848   9.838   8.505 -0.6336 -0.0570  0.4286
10848SOL    HW233123   5.730   9.930   8.522 -0.6101  0.2627 -0.9939
10849SOL     OW33124   6.867   3.099   7.881  0.2222  0.1342 -0.4722
10849SOL    HW133125   6.893   3.180   7.924  0.4688  0.9638 -2.0943
10849SOL    HW233126   6.804   3.059   7.941 -0.3318  1.8104  0.1246
10850SOL     OW33127   0.963   4.940   9.295 -0.0239 -0.0779  0.1262
10850SOL    HW133128   1.054   4.963   9.312 -0.2920  0.1400  1.3462
10850SOL    HW233129   0.965   4.845   9.279  0.6940  0.2541 -2.1341
10851SOL     OW33130   6.444   6.023   8.926 -0.5843  0.4954  0.4004
10851SOL    HW133131   6.381   5.961   8.890 -0.9002  1.8106 -1.4956
10851SOL    HW233132   6.528   5.996   8.889 -0.2001 -0.4903  1.9058
10852SOL     OW33133   3.354   6.762   0.896 -0.0227  0.6130 -0.3020
10852SOL    HW133134   3.336   6.676   0.935 -0.0070  0.7201 -0.0528
10852SOL    HW233135   3.449   6.762   0.881  0.0612  0.7818  0.1861
10853SOL     OW33136   7.990   5.901   2.958 -0.4450  0.2288  0.7180
10853SOL    HW133137   7.901   5.881   2.928 -0.7710  1.1453  1.0378
10853SOL    HW233138   8.007   5.989   2.925  0.6071 -0.1834  0.0991
10854SOL     OW33139   2.069   2.679   8.040  0.2336 -0.1644  0.7428
10854SOL    HW133140   1.987   2.692   8.087 -1.1074  3.0900 -2.0766
10854SOL    HW233141   2.044   2.633   7.959  1.3937 -0.1388  0.3438
10855SOL     OW33142   5.588   7.003   5.748  0.1858  0.5543 -0.2287
10855SOL    HW133143   5.595   7.098   5.758 -1.2539  0.6788 -0.2493
10855SOL    HW233144   5.559   6.990   5.658 -1.6805  0.2419  0.3660
10856SOL     OW33145   7.915   8.375   4.429 -0.3531  0.2038 -0.1351
10856SOL    HW133146   7.925   8.280   4.424 -1.6801  0.0558 -0.4169
10856SOL    HW233147   7.910   8.403   4.337 -1.2885  0.3602 -0.0539
10857SOL     OW33148   6.824   2.589   7.900  0.1653 -0.0602  0.9551
10857SOL    HW133149   6.802   2.522   7.835  0.3600  0.1266  0.6970
10857SOL    HW233150   6.820   2.672   7.852  0.0640  0.1028  1.2410
10858SOL     OW33151   7.838   1.446   8.777 -0.2406 -0.0428  0.3043
10858SOL    HW133152   7.930   1.423   8.772 -0.3418 -0.8647  1.8027
10858SOL    HW233153   7.832   1.528   8.727  0.9702 -0.7820 -1.1647
10859SOL     OW33154   0.803  -0.012   8.543 -0.2103  0.4537 -0.6319
10859SOL    HW133155   0.709   0.006   8.538 -0.6657 -0.6489  2.2234
10859SOL    HW233156   0.838   0.057   8.599  0.0028 -1.0204  1.1540
10860SOL     OW33157   6.862   2.828   9.654  0.1809 -0.2902  0.0021
10860SOL    HW133158   6.774   2.804   9.626  0.2689  0.4225 -0.9522
10860SOL    HW233159   6.885   2.903   9.599  1.3913 -0.4685  0.2308
10861SOL     OW33160   7.167   1.177   6.762  0.4061  0.2944  0.1770
10861SOL    HW133161   7.154   1.158   6.855  1.5382  1.0881  0.5230
10861SOL    HW233162   7.247   1.230   6.760 -1.3698  3.1915 -0.8842
10862SOL     OW33163   6.621   2.273   5.194 -0.9392  0.9986 -0.0755
10862SOL    HW133164   6.531   2.296   5.170 -0.8724  0.2151 -1.1348
10862SOL    HW233165   6.629   2.180   5.174  0.0081  0.9810  0.3128
10863SOL     OW33166   2.534   9.223   6.629  0.1284 -0.0918 -0.4139
10863SOL    HW133167   2.537   9.238   6.723  0.1332  0.2944 -0.4737
10863SOL    HW233168   2.606   9.162   6.612  1.0863  0.9886 -0.3658
10864SOL     OW33169   7.885   3.051   6.727  0.4496  0.6184 -0.6361
10864SOL    HW133170   7.915   2.964   6.700  0.5997  0.5664 -0.3133
10864SOL    HW233171   7.955   3.082   6.786 -0.0919  0.5298  0.0679
10865SOL     OW33172   1.673   5.209   3.150 -0.1696 -0.1550 -0.1302
10865SOL    HW133173   1.716   5.143   3.204 -1.3535 -0.4461  0.4983
10865SOL    HW233174   1.745   5.260   3.113  0.7268 -1.0217  0.3517
10866SOL     OW33175   7.681   3.922   3.692 -0.7860 -0.0699 -0.1484
10866SOL    HW133176   7.757   3.933   3.634 -0.7477  1.2565  0.1232
10866SOL    HW233177   7.710   3.857   3.757 -0.2425 -0.3075 -0.6165
10867SOL     OW33178   7.055   8.699   2.995 -0.9634  0.7140 -0.5624
10867SOL    HW133179   7.029   8.791   2.996 -0.7751  0.7959  1.7464
10867SOL    HW233180   6.972   8.651   2.988 -0.9994  0.9828 -3.0691
10868SOL     OW33181   1.089   3.520   5.844 -1.1101  0.5115 -0.8881
10868SOL    HW133182   1.157   3.573   5.803 -0.0956  1.0093  1.3110
10868SOL    HW233183   1.054   3.467   5.772  0.8357  1.0031 -2.2943
10869SOL     OW33184   8.106   4.809   7.334  0.2911 -0.3529  0.2539
10869SOL    HW133185   8.109   4.841   7.424 -0.1718  0.5380 -0.0358
10869SOL    HW233186   8.047   4.869   7.289  0.6676 -0.6748 -0.6947
10870SOL     OW33187   6.192   9.161   7.454 -0.1361  0.5824  0.0780
10870SOL    HW133188   6.136   9.179   7.530 -1.5425 -0.5537 -0.6283
10870SOL    HW233189   6.186   9.066   7.442  1.1775  0.5653 -0.6350
10871SOL     OW33190   6.954   2.205   9.142 -0.2092 -0.0364 -0.0553
10871SOL    HW133191   6.952   2.299   9.157  0.6145  0.0145 -0.2238
10871SOL    HW233192   7.029   2.173   9.193  1.3971 -0.1393 -2.3296
10872SOL     OW33193   4.242   1.907   9.582  0.9631  0.3116 -0.4831
10872SOL    HW133194   4.169   1.940   9.530  0.9189  0.0109 -0.6131
10872SOL    HW233195   4.253   1.816   9.553  0.3471 -0.1577  0.6816
10873SOL     OW33196   3.577   3.932   3.587 -0.0094  0.2187  0.2366
10873SOL    HW133197   3.575   3.967   3.676  0.5054 -0.7398  0.6412
10873SOL    HW233198   3.661   3.962   3.551 -1.1949  2.6060 -0.8118
10874SOL     OW33199   1.376   2.127   7.645  0.4780 -0.3706  0.0028
10874SOL    HW133200   1.382   2.159   7.555  0.7361  0.6215  0.3520
10874SOL    HW233201   1.287   2.092   7.652  0.4045 -0.3159 -0.5916
10875SOL     OW33202   9.007   1.042   3.225  0.0871 -0.1493 -0.4559
10875SOL    HW133203   8.964   1.121   3.258  0.5790  1.3104 -3.0240
10875SOL    HW233204   8.937   0.978   3.215 -0.2516 -0.2822  2.1011
10876SOL     OW33205   3.115   5.986   7.896 -0.0785 -0.0730  0.4879
10876SOL    HW133206   3.031   6.021   7.863  0.1804 -0.5194 -0.6981
10876SOL    HW233207   3.180   6.023   7.837  0.4368 -0.6922  0.6642
10877SOL     OW33208   9.274   0.194   5.064 -0.3639  0.1075 -0.2243
10877SOL    HW133209   9.330   0.246   5.120  0.7342 -1.0371 -0.2075
10877SOL    HW233210   9.206   0.161   5.122 -0.2931  0.4211  0.0403
10878SOL     OW33211   3.574   5.270   2.304  0.3207 -0.2885 -0.3706
10878SOL    HW133212   3.498   5.314   2.342 -1.0260 -1.9772 -0.9589
10878SOL    HW233213   3.570   5.181   2.339  2.2134 -0.3399 -0.2129
10879SOL     OW33214   0.872   8.366   1.806  0.4981 -0.2647 -0.2410
10879SOL    HW133215   0.922   8.447   1.797  1.0705 -0.6115 -0.1852
10879SOL    HW233216   0.793   8.381   1.754 -0.2333  0.9940  1.1673
10880SOL     OW33217   3.164   1.374   8.131  0.3173  0.0433  0.2209
10880SOL    HW133218   3.260   1.374   8.136  0.2868 -1.3776  1.6562
10880SOL    HW233219   3.140   1.282   8.141 -1.2633  0.6016  2.2184
10881SOL     OW33220   6.138   1.124   8.248 -0.5985 -0.3021  0.1381
10881SOL    HW133221   6.175   1.050   8.199 -0.8250 -0.6746  0.5256
10881SOL    HW233222   6.121   1.190   8.181  0.9759 -0.0315 -0.0185
10882SOL     OW33223   1.277   1.403   9.906 -0.2149 -0.0067 -0.2367
10882SOL    HW133224   1.270   1.476   9.968 -2.6402  0.2105 -0.6610
10882SOL    HW233225   1.187   1.391   9.874  0.3013 -2.5300 -0.9247
10883SOL     OW33226   2.940   1.122   1.690  0.1284  0.3027  0.6696
10883SOL    HW133227   2.863   1.178   1.678  0.9231  1.1565 -0.7345
10883SOL    HW233228   2.980   1.118   1.604 -0.0071 -2.6804  0.6558
10884SOL     OW33229   8.126   4.234   5.208  0.1053 -0.1296 -0.3507
10884SOL    HW133230   8.171   4.257   5.289 -0.3391 -0.1664 -0.0944
10884SOL    HW233231   8.049   4.290   5.206  0.7134  0.7241 -1.3286
10885SOL     OW33232   3.370   2.672   0.740  0.2927 -0.0669 -0.2356
10885SOL    HW133233   3.382   2.676   0.645  1.3990 -1.3158 -0.1904
10885SOL    HW233234   3.282   2.708   0.755  0.8859  2.0863 -1.4955
10886SOL     OW33235   9.819   1.545   3.811  0.7598  0.0744 -0.1162
10886SOL    HW133236   9.914   1.538   3.809  0.7965  0.3668  0.4611
10886SOL    HW233237   9.789   1.455   3.821  0.9497 -0.0873 -0.9281
10887SOL     OW33238   0.609   0.079   6.344  0.1501 -0.1187 -0.2370
10887SOL    HW133239   0.640   0.133   6.271 -0.8319  1.2644  0.3278
10887SOL    HW233240   0.602  -0.009   6.307  0.2026  0.4410 -1.6544
10888SOL     OW33241   4.463   3.303   8.913  0.1824 -0.0843 -0.0881
10888SOL    HW133242   4.532   3.328   8.974 -1.0301  0.7282  1.0007
10888SOL    HW233243   4.386   3.286   8.968 -0.7781  0.0627 -1.3285
10889SOL     OW33244   9.299   4.083   3.064  0.0160 -0.6887 -0.9438
10889SOL    HW133245   9.225   4.060   3.009  0.0007  2.2093 -2.3202
10889SOL    HW233246   9.376   4.059   3.012  0.1051 -2.5448 -0.0355
10890SOL     OW33247   1.821   8.343   6.141  0.4418  0.5869  0.2707
10890SOL    HW133248   1.847   8.435   6.152  1.8888  0.2661 -0.3286
10890SOL    HW233249   1.857   8.318   6.056 -1.2972 -0.0979 -0.2946
10891SOL     OW33250   0.485   5.690   8.506 -0.4034  0.1448  0.5276
10891SOL    HW133251   0.523   5.675   8.592 -0.9502  0.7089  0.8759
10891SOL    HW233252   0.552   5.738   8.458  0.7071 -1.9022 -0.0539
10892SOL     OW33253   1.920   5.891   2.511  0.3609  0.6149  0.0021
10892SOL    HW133254   1.962   5.855   2.589 -0.9469 -0.1775  0.3621
10892SOL    HW233255   1.943   5.828   2.442  1.2112  1.1235 -0.1996
10893SOL     OW33256   2.085   4.614   1.454 -0.4272  0.7721 -0.7095
10893SOL    HW133257   2.065   4.541   1.395 -1.9913  0.5150  0.0735
10893SOL    HW233258   2.003   4.665   1.457 -0.0850  1.2901  0.5003
10894SOL     OW33259   3.390   5.354   6.071  0.0267  0.6250 -0.3617
10894SOL    HW133260   3.388   5.262   6.043 -0.3230  0.6913 -0.5573
10894SOL    HW233261   3.413   5.403   5.992 -0.9719  0.8121 -0.5473
10895SOL     OW33262   1.751   9.801   7.038  0.1339 -0.0893 -0.1653
10895SOL    HW133263   1.775   9.890   7.066 -0.0043  0.6145 -2.1581
10895SOL    HW233264   1.733   9.755   7.120  0.8250  1.5271  0.9603
10896SOL     OW33265   0.760   2.170   8.423  0.5236 -0.5865  0.0005
10896SOL    HW133266   0.829   2.166   8.356  2.3306  2.6132  1.4450
10896SOL    HW233267   0.713   2.251   8.404 -0.1244 -0.5806  1.4947
10897SOL     OW33268   5.488   5.562   0.601 -0.2227  0.1042  0.1452
10897SOL    HW133269   5.398   5.547   0.630 -0.2695  2.3488  1.3743
10897SOL    HW233270   5.489   5.653   0.573  1.2807 -0.3685 -1.5472
10898SOL     OW33271   7.575   3.683   1.042  0.4638  0.0483 -0.3905
10898SOL    HW133272   7.556   3.697   0.949  1.2425 -0.6772 -0.6629
10898SOL    HW233273   7.631   3.606   1.045  2.5238  1.4816  0.4715
10899SOL     OW33274   7.985   0.332   2.452 -0.2341 -0.2308 -0.2380
10899SOL    HW133275   7.939   0.257   2.491  0.5730 -0.3883  0.4450
10899SOL    HW233276   8.072   0.298   2.431  0.2697  0.6209  0.4437
10900SOL     OW33277   4.930   3.430   1.215 -0.6949 -0.0387  0.1360
10900SOL    HW133278   4.986   3.408   1.140  1.0280 -0.8377  1.5810
10900SOL    HW233279   4.953   3.520   1.238  2.2085 -1.1977  2.4122
10901SOL     OW33280   3.843   4.710   9.024  0.0884  0.0140  0.2097
10901SOL    HW133281   3.780   4.782   9.020 -0.1848 -0.2047  0.4974
10901SOL    HW233282   3.918   4.746   9.072  0.6195  0.5896 -1.0081
10902SOL     OW33283   0.906   8.994   7.686  0.1294  0.4954 -0.3291
10902SOL    HW133284   0.863   9.049   7.620 -1.3336 -0.2021 -0.0098
10902SOL    HW233285   0.911   9.049   7.764  2.4588  1.5508 -1.1359
10903SOL     OW33286   7.131   9.472   4.280  0.5718  0.1613 -0.7671
10903SOL    HW133287   7.101   9.493   4.191 -1.8384 -0.3911 -0.1561
10903SOL    HW233288   7.050   9.459   4.330  1.8630 -1.7608  0.9799
10904SOL     OW33289   3.834   3.066   3.649  0.7593 -0.3558  0.2032
10904SOL    HW133290   3.856   3.129   3.581 -3.4406  1.1714 -0.0360
10904SOL    HW233291   3.834   2.981   3.605  0.5941  0.2860 -1.0548
10905SOL     OW33292   3.367   6.840   8.494 -0.5805  0.2372  0.5787
10905SOL    HW133293   3.366   6.930   8.526 -0.4010  0.1413  0.8621
10905SOL    HW233294   3.455   6.808   8.516  0.6078  1.0365 -2.4442
10906SOL     OW33295   4.020   8.215   0.004  0.0721 -0.1095 -0.6363
10906SOL    HW133296   4.061   8.143   0.052 -0.4594  1.6337  2.7739
10906SOL    HW233297   4.094   8.265  -0.031  0.5953 -0.2901  0.1821
10907SOL     OW33298   5.424   7.766   8.074 -0.4522 -0.1503  0.1159
10907SOL    HW133299   5.399   7.841   8.127  0.8249 -0.8678  1.8140
10907SOL    HW233300   5.430   7.693   8.136 -1.0420 -1.5386 -1.3750
10908SOL     OW33301   2.145   1.118   0.266 -0.4221 -0.5094 -0.2409
10908SOL    HW133302   2.108   1.194   0.222  0.2750 -1.5463 -2.7615
10908SOL    HW233303   2.234   1.111   0.233  0.5071 -0.8333  2.1167
10909SOL     OW33304   8.989   7.554   4.096 -0.4483 -0.5785 -1.4316
10909SOL    HW133305   9.051   7.593   4.158 -2.9830 -0.1013  0.9771
10909SOL    HW233306   9.022   7.465   4.083 -0.6672 -1.3166  2.0485
10910SOL     OW33307   0.808   8.367   5.366 -0.0710 -0.1764  0.4964
10910SOL    HW133308   0.833   8.382   5.457  1.5338  0.2975  0.0079
10910SOL    HW233309   0.850   8.284   5.343 -2.3226 -1.4901  0.8103
10911SOL     OW33310   2.274   1.918   5.311 -0.5315  0.2309  0.3824
10911SOL    HW133311   2.341   1.849   5.314 -0.2653  0.3771 -1.3201
10911SOL    HW233312   2.191   1.870   5.314 -0.3459 -0.1191  0.1063
10912SOL     OW33313   3.772   9.592   6.680  0.3517 -0.0912 -0.4061
10912SOL    HW133314   3.703   9.658   6.685 -0.5130 -1.0561  1.1549
10912SOL    HW233315   3.854   9.642   6.687 -0.3103  0.7444  2.8551
10913SOL     OW33316   3.543   5.071   7.865  0.1121 -0.4053 -0.0665
10913SOL    HW133317   3.608   5.060   7.795  2.3196 -0.7592  1.9506
10913SOL    HW233318   3.518   5.163   7.860  0.9475 -0.2000 -0.6949
10914SOL     OW33319   4.852   6.693   5.588  0.3714 -0.6740  0.7973
10914SOL    HW133320   4.927   6.665   5.535  1.2762  2.7608  0.0303
10914SOL    HW233321   4.776   6.658   5.541  1.2438  0.8285 -1.9944
10915SOL     OW33322   7.975   3.135   0.085 -0.1804  0.3732 -0.0647
10915SOL    HW133323   7.925   3.060   0.116 -0.3095  0.1330 -0.8168
10915SOL    HW233324   7.912   3.206   0.079 -0.3868  0.1397 -0.7648
10916SOL     OW33325   7.134   7.313   8.148  0.0882 -0.2639 -0.1779
10916SOL    HW133326   7.147   7.223   8.118  0.0746 -0.2833 -0.1252
10916SOL    HW233327   7.092   7.304   8.233 -0.6063 -0.1972 -0.5050
10917SOL     OW33328   4.890   8.637   6.722  0.0878  0.6435 -0.0848
10917SOL    HW133329   4.860   8.695   6.652  2.0620 -0.0636 -1.6162
10917SOL    HW233330   4.894   8.551   6.681 -2.0611 -0.5199  1.9380
10918SOL     OW33331   7.803   0.074   2.546  0.2125 -0.3294  0.2241
10918SOL    HW133332   7.866   0.001   2.548 -0.9528 -1.3497  0.9677
10918SOL    HW233333   7.732   0.042   2.491  2.0781  2.3975 -4.3838
10919SOL     OW33334   3.902   6.478   7.862 -0.1554  0.2516  0.4631
10919SOL    HW133335   3.818   6.448   7.828 -0.2117 -0.9670  1.6032
10919SOL    HW233336   3.965   6.452   7.795 -0.4910 -0.4087  0.3936
10920SOL     OW33337   9.961   9.889   2.172  0.8270 -0.2891  0.2813
10920SOL    HW133338   9.893   9.951   2.197  0.8327 -0.4623  0.7347
10920SOL    HW233339   9.915   9.805   2.165  0.8670 -0.2831 -0.0743
10921SOL     OW33340   4.415   5.523   4.541 -0.5127  0.1744  0.3717
10921SOL    HW133341   4.351   5.473   4.490 -0.5073 -0.0847  0.6162
10921SOL    HW233342   4.362   5.567   4.608 -0.7393  1.8008 -0.8205
10922SOL     OW33343   2.863   7.536   5.320 -0.9646  0.1536  0.3159
10922SOL    HW133344   2.854   7.486   5.240 -1.2677  0.7761 -0.0483
10922SOL    HW233345   2.884   7.471   5.387 -1.9299 -0.5383 -0.0242
10923SOL     OW33346   8.760   2.081   9.796 -0.3229  0.2024  0.1955
10923SOL    HW133347   8.807   2.108   9.717 -1.9520  2.8694  0.0297
10923SOL    HW233348   8.668   2.080   9.771 -0.7838 -0.0845  1.7622
10924SOL     OW33349   1.975   1.246   8.508 -0.3872 -0.8704 -0.0765
10924SOL    HW133350   1.944   1.259   8.418  1.8536 -0.9142 -0.9155
10924SOL    HW233351   1.942   1.323   8.556  0.2747  0.3451 -1.4944
10925SOL     OW33352   9.702   7.948   3.404 -0.5979 -0.3673  0.3990
10925SOL    HW133353   9.645   7.906   3.469  0.2012 -0.5313  1.0032
10925SOL    HW233354   9.789   7.943   3.442 -0.5375  2.3899  0.7650
10926SOL     OW33355   2.882   7.668   8.085 -0.2461 -0.3391 -0.3804
10926SOL    HW133356   2.811   7.604   8.077  0.4115 -1.1497  0.0388
10926SOL    HW233357   2.898   7.674   8.179 -0.5009  0.6916 -0.3880
10927SOL     OW33358   6.211   1.892   2.755  0.4429  0.4941 -0.6602
10927SOL    HW133359   6.299   1.929   2.752  1.3045 -1.4661 -1.7924
10927SOL    HW233360   6.162   1.951   2.812  3.1711  0.2227  2.2579
10928SOL     OW33361   3.669   7.470   2.964 -0.3888  0.0696  0.6081
10928SOL    HW133362   3.607   7.489   3.034 -1.8559 -0.4551 -0.5040
10928SOL    HW233363   3.625   7.500   2.884 -0.6401 -3.2145 -0.6145
10929SOL     OW33364   2.699   0.264   3.294 -0.5786 -0.1694 -0.0909
10929SOL    HW133365   2.787   0.273   3.330 -0.7463  1.2504  0.0546
10929SOL    HW233366   2.709   0.208   3.218  0.5230  0.2789 -0.2982
10930SOL     OW33367   5.853   3.532   1.504  0.2619  0.0542 -0.2262
10930SOL    HW133368   5.768   3.522   1.547  0.9696  0.1276  1.2681
10930SOL    HW233369   5.872   3.445   1.469  1.0945 -1.0036  2.5117
10931SOL     OW33370   8.577   2.750   8.300  0.0349  0.2122  0.4629
10931SOL    HW133371   8.559   2.688   8.371  0.1656 -0.1351  0.1974
10931SOL    HW233372   8.585   2.835   8.343  1.4022 -0.1783  1.0401
10932SOL     OW33373   6.211   0.212   1.572 -0.5271 -0.6499  0.1294
10932SOL    HW133374   6.302   0.185   1.584  0.1739  1.4052 -0.1484
10932SOL    HW233375   6.194   0.198   1.479 -0.4741 -0.9365  0.1610
10933SOL     OW33376   1.896   2.823   5.122  0.4641  0.3543  0.2918
10933SOL    HW133377   1.924   2.794   5.209 -2.6747 -1.3179  0.9204
10933SOL    HW233378   1.906   2.746   5.066 -2.6246 -0.4232  0.6060
10934SOL     OW33379   3.907   3.752   0.886 -0.0856 -0.0223 -0.1191
10934SOL    HW133380   3.922   3.686   0.818  1.5091  0.1338  0.0482
10934SOL    HW233381   3.873   3.702   0.960  0.4963 -0.5576 -0.2090
10935SOL     OW33382   7.146   1.571   5.656  0.2320 -0.5502 -0.2005
10935SOL    HW133383   7.104   1.485   5.662 -0.8081 -0.2955 -2.7438
10935SOL    HW233384   7.079   1.627   5.618  0.3049  1.8826  2.8631
10936SOL     OW33385   7.263   7.662   6.834  0.4615  0.0016 -0.0959
10936SOL    HW133386   7.219   7.584   6.866 -0.3228 -0.5742 -2.3973
10936SOL    HW233387   7.283   7.643   6.742  1.4954  1.9718 -0.3412
10937SOL     OW33388   6.523   2.708   8.990  0.2502 -0.3700  0.6790
10937SOL    HW133389   6.550   2.651   9.062 -0.9434 -1.8492  0.0052
10937SOL    HW233390   6.534   2.655   8.912 -0.4893  0.4772 -0.0227
10938SOL     OW33391   9.014   1.377   0.364  0.0385  0.2408  0.5786
10938SOL    HW133392   9.037   1.420   0.281  0.1146  1.6753  1.3201
10938SOL    HW233393   8.919   1.377   0.365 -0.1915 -3.6776 -1.4432
10939SOL     OW33394   9.816   2.716   2.766 -0.3470 -0.2854  0.0609
10939SOL    HW133395   9.838   2.651   2.833 -0.0026  0.2282  0.4661
10939SOL    HW233396   9.744   2.678   2.717  0.1269 -1.1489  0.0194
10940SOL     OW33397   2.479   4.629   3.799  0.1334  0.2401  0.0660
10940SOL    HW133398   2.536   4.631   3.722  2.2690  1.5542  1.5495
10940SOL    HW233399   2.492   4.715   3.839  0.3606 -0.9609  2.7380
10941SOL     OW33400   4.674   1.952   1.614 -0.1258  0.3188  0.0445
10941SOL    HW133401   4.739   1.885   1.633 -0.3315 -0.2371 -1.0889
10941SOL    HW233402   4.673   2.009   1.691  0.0899 -0.9493  1.0049
10942SOL     OW33403   2.610   6.791   1.814 -0.6610 -0.0041  0.1438
10942SOL    HW133404   2.608   6.708   1.767  1.4843 -0.4026  0.6653
10942SOL    HW233405   2.539   6.842   1.775 -2.0210 -2.0460 -0.1940
10943SOL     OW33406   7.891   6.664   3.340 -0.6747  0.0695  0.0655
10943SOL    HW133407   7.813   6.627   3.300 -2.0056  1.7955  0.9098
10943SOL    HW233408   7.885   6.640   3.432  0.6109 -1.0313 -0.1001
10944SOL     OW33409   7.757   5.986   4.327  0.0607  0.1270  0.1403
10944SOL    HW133410   7.804   5.984   4.410 -0.3700 -0.3387  0.3773
10944SOL    HW233411   7.665   5.971   4.350  0.1704 -2.2137 -0.5755
10945SOL     OW33412   1.182   2.493   5.478 -0.0670 -0.1590 -0.4065
10945SOL    HW133413   1.224   2.479   5.393 -1.0000 -1.0142 -0.7382
10945SOL    HW233414   1.158   2.586   5.478 -3.0514 -0.7887 -2.5218
10946SOL     OW33415   2.583   0.164   9.722  0.5851 -0.0981 -0.0236
10946SOL    HW133416   2.645   0.202   9.660 -0.1484 -2.1702 -2.2000
10946SOL    HW233417   2.499   0.167   9.676 -0.2947 -0.3366  1.5044
10947SOL     OW33418   9.739   5.608   0.138  0.5700 -0.0986 -0.9491
10947SOL    HW133419   9.713   5.694   0.105  0.4576 -0.2423 -1.2391
10947SOL    HW233420   9.824   5.622   0.179  0.5358  0.1574 -0.9691
10948SOL     OW33421   7.132   3.035   7.416  0.1689 -0.3446  0.0692
10948SOL    HW133422   7.216   3.074   7.390 -0.1085  0.4059  0.2760
10948SOL    HW233423   7.157   2.969   7.481  0.6890 -0.8752 -0.6612
10949SOL     OW33424   4.709   5.871   2.628  0.1766 -0.0201 -0.1815
10949SOL    HW133425   4.783   5.904   2.678 -0.3547 -0.7029  1.0896
10949SOL    HW233426   4.647   5.840   2.694 -0.6281 -0.7737 -1.2603
10950SOL     OW33427   1.687   2.553   1.772 -0.2098 -0.2668 -0.9045
10950SOL    HW133428   1.631   2.535   1.848  0.3224  1.8366  0.0468
10950SOL    HW233429   1.720   2.641   1.786  0.3672 -0.0139 -3.3346
10951SOL     OW33430   3.760   6.287   0.151  0.4977  0.1989  0.8644
10951SOL    HW133431   3.748   6.377   0.120  0.1127 -0.0131  0.3892
10951SOL    HW233432   3.815   6.296   0.229  0.0308  0.8916  1.1280
10952SOL     OW33433   4.099   9.079   5.426  0.0505 -0.1077 -0.4086
10952SOL    HW133434   4.024   9.129   5.395  2.5461  2.0475 -3.8231
10952SOL    HW233435   4.105   9.005   5.366  0.3172 -0.6001  0.2149
10953SOL     OW33436   0.127   2.850   2.362  0.3856  0.5763 -0.0025
10953SOL    HW133437   0.182   2.779   2.330 -0.5935  0.1601 -0.7775
10953SOL    HW233438   0.167   2.875   2.446 -0.1153 -1.9023  1.0585
10954SOL     OW33439   7.829   9.140   7.360 -0.3300  0.7328  0.0501
10954SOL    HW133440   7.773   9.068   7.333 -0.4949  0.7571  0.3195
10954SOL    HW233441   7.914   9.121   7.321 -0.2088  0.0793  0.6107
10955SOL     OW33442   7.426   1.991   7.577  0.1188  0.3804  0.3952
10955SOL    HW133443   7.351   1.935   7.598  1.1454 -1.5444 -0.8652
10955SOL    HW233444   7.427   1.995   7.482  1.7926  0.1244  0.3808
10956SOL     OW33445   1.704   7.646   8.028  0.2292  0.2914  0.2547
10956SOL    HW133446   1.762   7.719   8.051  1.6278 -1.3936  2.5047
10956SOL    HW233447   1.616   7.681   8.041  0.8683  1.5851  1.3808
10957SOL     OW33448   1.580   7.893   7.144 -0.2454  0.2877  0.0508
10957SOL    HW133449   1.644   7.832   7.107 -1.7110 -0.3788 -1.5857
10957SOL    HW233450   1.562   7.955   7.073  0.3769  1.9652  1.3149
10958SOL     OW33451   0.143   2.042   3.009  0.5618  0.2631 -0.5410
10958SOL    HW133452   0.092   2.082   2.939  0.7508 -0.7519 -1.2762
10958SOL    HW233453   0.097   2.067   3.089 -0.5326  0.1876 -1.1285
10959SOL     OW33454   5.152   0.492   9.369 -0.5813 -0.0666  0.0057
10959SOL    HW133455   5.074   0.519   9.322  0.8341 -0.1187 -2.5482
10959SOL    HW233456   5.122   0.423   9.429 -2.6401  0.7199 -0.0560
10960SOL     OW33457   9.953   7.048   9.360  0.2578 -0.2686 -0.1426
10960SOL    HW133458  10.022   6.981   9.350  0.3015 -0.2400 -0.0331
10960SOL    HW233459   9.907   7.023   9.441 -0.5807 -0.9385 -0.8063
10961SOL     OW33460   4.474   1.668   0.058 -0.1446  0.1484 -0.2259
10961SOL    HW133461   4.548   1.625   0.102  0.8250  0.9560 -1.0275
10961SOL    HW233462   4.402   1.661   0.121  1.0057  0.6481  1.2197
10962SOL     OW33463   8.280   6.174   5.991  0.2035 -0.2053 -0.5740
10962SOL    HW133464   8.220   6.226   6.045  0.5668 -0.2660 -0.1037
10962SOL    HW233465   8.363   6.177   6.039  0.3739 -0.7535 -0.8327
10963SOL     OW33466   4.410   2.460   9.901 -0.6044 -0.4090 -0.5969
10963SOL    HW133467   4.424   2.386   9.843  1.1524  0.1726 -0.9670
10963SOL    HW233468   4.332   2.436   9.952 -0.6999 -2.0165 -1.4309
10964SOL     OW33469   2.534   5.520   7.895 -0.4040  0.3782  0.0958
10964SOL    HW133470   2.534   5.526   7.799 -0.6507 -1.3543 -0.0465
10964SOL    HW233471   2.441   5.507   7.917 -0.1664 -0.9112  0.4119
10965SOL     OW33472   5.077   3.448   2.006  0.2486 -0.7790  0.0437
10965SOL    HW133473   5.109   3.426   2.093 -0.8146 -1.6033  0.2512
10965SOL    HW233474   5.154   3.480   1.959  1.8156 -4.2076 -0.0137
10966SOL     OW33475   9.763   2.013   5.667 -0.2143  0.0722 -0.1971
10966SOL    HW133476   9.724   2.084   5.718  2.1568  0.7629  0.7630
10966SOL    HW233477   9.850   2.001   5.704  0.0736 -2.2442 -1.4278
10967SOL     OW33478   0.909   8.574   2.195  0.5766 -0.2935  0.2132
10967SOL    HW133479   0.837   8.513   2.213 -0.6478  1.1667  0.4567
10967SOL    HW233480   0.901   8.593   2.102  0.2492  0.3518  0.3704
10968SOL     OW33481   7.477   7.340   0.959 -0.2080  0.4910 -0.7840
10968SOL    HW133482   7.484   7.274   0.891 -0.9408  0.5090 -0.8900
10968SOL    HW233483   7.490   7.293   1.041 -1.1212  0.1286 -0.8331
10969SOL     OW33484   7.248   6.194   1.412 -0.6575 -0.3864  0.0278
10969SOL    HW133485   7.168   6.236   1.443 -2.1975 -0.8861 -2.9114
10969SOL    HW233486   7.316   6.261   1.424 -1.6914  0.4383  1.6027
10970SOL     OW33487   5.617   4.501   4.468  0.1764  0.2564 -0.2187
10970SOL    HW133488   5.542   4.442   4.462  0.2395  0.3069 -2.1936
10970SOL    HW233489   5.586   4.583   4.430  1.0000  0.5238 -0.3342
10971SOL     OW33490   0.563   7.524   1.574  0.6303 -0.0028 -0.7038
10971SOL    HW133491   0.606   7.609   1.578  1.0658 -0.0961 -2.4679
10971SOL    HW233492   0.552   7.507   1.480 -1.1028 -1.0687 -0.3570
10972SOL     OW33493   6.116   2.624   2.677  0.0376 -0.3470  0.3385
10972SOL    HW133494   6.092   2.569   2.602 -1.4097 -0.4442  0.8559
10972SOL    HW233495   6.049   2.691   2.681 -0.5655 -1.0042  2.2186
10973SOL     OW33496   9.776   8.203   7.665  0.1979 -0.2350  0.2818
10973SOL    HW133497   9.844   8.135   7.673  0.2697 -0.0135  1.8537
10973SOL    HW233498   9.742   8.214   7.754 -1.3490  0.2475 -0.3363
10974SOL     OW33499   0.145   0.479   6.424 -0.2583  0.2442 -0.1227
10974SOL    HW133500   0.173   0.460   6.513 -1.1862 -1.4070 -0.1622
10974SOL    HW233501   0.226   0.476   6.372 -0.1131 -2.1251  0.1445
10975SOL     OW33502   6.241   7.991   6.400 -0.0237 -0.1819  0.5755
10975SOL    HW133503   6.222   7.915   6.345  0.6999 -0.4299  0.6582
10975SOL    HW233504   6.156   8.018   6.434 -0.3824 -0.4804 -0.0740
10976SOL     OW33505   6.194   3.168   1.818 -0.2150 -0.6204 -0.9618
10976SOL    HW133506   6.132   3.101   1.847 -0.9577 -0.0293 -1.1558
10976SOL    HW233507   6.263   3.166   1.883 -0.2079 -1.5961 -0.9780
10977SOL     OW33508   5.907   6.996   9.374  0.2838 -0.2075  0.2376
10977SOL    HW133509   5.857   7.077   9.380 -1.0376 -1.0323  0.7270
10977SOL    HW233510   5.853   6.931   9.419  0.9417 -1.5268 -0.8065
10978SOL     OW33511   8.933   9.949   9.218 -0.0822 -0.2177  0.4744
10978SOL    HW133512   9.006   9.909   9.265  0.0335 -0.2586  0.2605
10978SOL    HW233513   8.948  10.043   9.225  0.2443 -0.2331  0.0378
10979SOL     OW33514   2.161   8.437   6.679  0.4798  0.1897 -0.5039
10979SOL    HW133515   2.115   8.457   6.597  2.2254 -0.3791 -1.6701
10979SOL    HW233516   2.162   8.520   6.727 -0.7471  0.4780 -0.9397
10980SOL     OW33517   3.129   2.956   9.778 -0.8013 -0.0726 -0.1372
10980SOL    HW133518   3.080   3.037   9.772 -0.1111  0.2952 -1.0543
10980SOL    HW233519   3.202   2.967   9.716 -0.3224 -1.1182  0.2139
10981SOL     OW33520   2.946   7.225   9.466 -0.1359  0.8119 -0.1560
10981SOL    HW133521   2.912   7.287   9.530 -0.4171  1.4474 -0.9025
10981SOL    HW233522   3.040   7.240   9.466 -0.2279  1.4290 -0.5153
10982SOL     OW33523   4.936   8.992   0.882  0.2858 -0.5271 -0.5339
10982SOL    HW133524   5.006   8.999   0.948  1.6965  0.1971 -2.0276
10982SOL    HW233525   4.902   8.903   0.893  1.7734 -1.0716 -0.0592
10983SOL     OW33526   7.669   6.270   7.342  0.2359 -0.2536 -0.0408
10983SOL    HW133527   7.653   6.354   7.299  0.6486 -1.1623 -2.0913
10983SOL    HW233528   7.764   6.262   7.344  0.2008 -1.1854 -1.0116
10984SOL     OW33529   8.081   8.336   3.349 -0.1913  0.7424  0.0249
10984SOL    HW133530   8.163   8.374   3.316  1.2392 -0.8516  1.4881
10984SOL    HW233531   8.057   8.270   3.284  0.2646  0.5315  0.0621
10985SOL     OW33532   0.582   6.829   9.020  0.2421  0.1725 -0.8148
10985SOL    HW133533   0.586   6.861   8.930  0.7862 -0.0533 -0.8744
10985SOL    HW233534   0.674   6.818   9.046  0.0774 -0.7144 -0.5737
10986SOL     OW33535   0.229   3.144   8.910  0.2623  0.3167 -0.6992
10986SOL    HW133536   0.286   3.192   8.970 -1.2048 -0.0516  1.1019
10986SOL    HW233537   0.271   3.059   8.899  1.5539  1.0672 -1.8457
10987SOL     OW33538   3.034   2.791   6.501 -0.3463  0.2386 -0.4211
10987SOL    HW133539   2.942   2.804   6.478 -0.2563  1.7804 -0.0090
10987SOL    HW233540   3.082   2.819   6.424 -0.1133  3.6613  0.8171
10988SOL     OW33541   3.413   4.612   5.732 -0.2478 -0.5346 -0.7740
10988SOL    HW133542   3.452   4.694   5.762 -2.5715  0.6006 -0.6365
10988SOL    HW233543   3.429   4.551   5.804  0.1238  0.2372 -0.1775
10989SOL     OW33544   8.490   8.127   9.830  0.4910  0.4263  0.9697
10989SOL    HW133545   8.583   8.148   9.844  0.6986  1.3460 -1.2932
10989SOL    HW233546   8.462   8.188   9.762 -1.7949  0.1356  1.5868
10990SOL     OW33547   9.776   9.057   1.400 -0.1666 -0.1834 -0.1514
10990SOL    HW133548   9.701   9.073   1.343  0.5164 -0.4374 -1.1385
10990SOL    HW233549   9.845   9.116   1.367  0.6025 -1.1601 -0.3414
10991SOL     OW33550   2.718   1.055   0.220 -0.4776 -0.0454  0.3085
10991SOL    HW133551   2.631   1.095   0.216 -1.3172 -1.8205  0.0549
10991SOL    HW233552   2.712   0.992   0.291  0.8604  0.3196  0.7749
10992SOL     OW33553   4.398   7.730   0.223 -0.0714 -0.2617  0.1790
10992SOL    HW133554   4.406   7.637   0.199  0.6963 -0.2802  0.4715
10992SOL    HW233555   4.435   7.777   0.148  0.0500 -0.2163  0.2672
10993SOL     OW33556   2.971   0.774   3.175  0.5077  0.4851  1.0329
10993SOL    HW133557   2.908   0.722   3.226  1.0420 -1.3935 -0.1186
10993SOL    HW233558   2.918   0.815   3.107  0.4148 -0.6250  0.4142
10994SOL     OW33559   1.373   4.177   6.531  0.0943 -0.4410 -0.6758
10994SOL    HW133560   1.385   4.214   6.618  0.3326 -0.1608 -0.8231
10994SOL    HW233561   1.345   4.087   6.546 -1.5385  0.0992 -0.2966
10995SOL     OW33562   5.977   6.868   7.176  0.5109 -0.5506  0.3735
10995SOL    HW133563   6.012   6.945   7.221 -0.3769 -0.2596  0.5873
10995SOL    HW233564   6.043   6.800   7.190 -0.0739 -0.7142  2.8458
10996SOL     OW33565   1.139   7.533   7.997 -0.3716 -0.2902 -0.5470
10996SOL    HW133566   1.220   7.540   7.947 -1.3465  1.9664 -1.9672
10996SOL    HW233567   1.164   7.556   8.087  0.6138  0.1858 -0.9345
10997SOL     OW33568   8.343   3.863   4.361 -0.0198  0.6088 -0.5780
10997SOL    HW133569   8.423   3.852   4.310  0.7513 -0.1830  0.7345
10997SOL    HW233570   8.373   3.886   4.449 -1.3354  3.2015 -0.7018
10998SOL     OW33571   4.778   9.639   8.500  0.1659  0.3830  0.0054
10998SOL    HW133572   4.806   9.594   8.579  0.8455  1.0924  0.1873
10998SOL    HW233573   4.808   9.584   8.428  1.6048  0.8533  0.2064
10999SOL     OW33574   3.686   2.057   3.801  0.2119  0.1003  0.9110
10999SOL    HW133575   3.781   2.053   3.787  0.1881 -0.7315  0.9192
10999SOL    HW233576   3.649   1.998   3.734 -0.2309 -0.2456  1.4465
11000SOL     OW33577   3.037   7.812   1.171 -0.2003 -0.2744  0.4013
11000SOL    HW133578   3.070   7.723   1.183 -0.3934 -0.6554 -1.5557
11000SOL    HW233579   3.031   7.823   1.076 -2.1359  1.0923  0.6130
11001SOL     OW33580   3.237   0.465   3.451  0.2720 -0.0988  0.8732
11001SOL    HW133581   3.153   0.427   3.476 -0.3439  0.4677 -0.2408
11001SOL    HW233582   3.265   0.414   3.375  0.4822  0.2998  0.6794
11002SOL     OW33583   0.850   9.482   5.942  0.2566 -0.8240  0.1055
11002SOL    HW133584   0.925   9.516   5.893 -0.9573  2.1362  0.1104
11002SOL    HW233585   0.810   9.418   5.884  1.1549 -0.3404 -1.0852
11003SOL     OW33586   2.898   6.319   2.546  0.3586  0.4603  0.5692
11003SOL    HW133587   2.984   6.361   2.543  1.1265 -1.0380  0.4686
11003SOL    HW233588   2.904   6.258   2.620 -0.5134  0.1512  0.3953
11004SOL     OW33589   2.395   4.482   0.860  0.5380  0.6826 -0.4963
11004SOL    HW133590   2.352   4.505   0.777 -0.0136  0.3722 -0.2981
11004SOL    HW233591   2.442   4.562   0.885  1.8493  0.3707 -1.8037
11005SOL     OW33592   2.167   3.902   7.175  0.0977 -0.2559  0.0784
11005SOL    HW133593   2.113   3.822   7.181 -1.0519  0.5458  1.0092
11005SOL    HW233594   2.129   3.950   7.102  0.7229 -0.4980 -0.4136
11006SOL     OW33595   7.480   2.479   5.004 -0.2734  0.6251  0.5353
11006SOL    HW133596   7.397   2.448   5.041 -0.2149 -0.5359 -0.2631
11006SOL    HW233597   7.462   2.570   4.979 -2.4042 -0.4926 -2.6181
11007SOL     OW33598   1.621   3.433   9.181  0.6017  0.3568  0.5577
11007SOL    HW133599   1.685   3.461   9.247  0.5319  0.3157  0.6429
11007SOL    HW233600   1.566   3.510   9.166  1.5499  0.8487 -0.5688
11008SOL     OW33601   6.473   4.171   9.548  0.2111  0.1864  0.4411
11008SOL    HW133602   6.408   4.142   9.612 -0.5288  0.9320  0.0518
11008SOL    HW233603   6.503   4.255   9.583 -2.6541  2.3570 -1.7519
11009SOL     OW33604   5.210   1.653   0.362 -0.0676 -0.0173  0.1102
11009SOL    HW133605   5.291   1.603   0.357 -0.4010 -0.5752  0.2308
11009SOL    HW233606   5.206   1.700   0.278  0.1774 -0.2971 -0.0604
11010SOL     OW33607   7.995   6.618   4.356  0.2646  0.2613 -0.2477
11010SOL    HW133608   8.079   6.574   4.372  0.5147  0.1251 -1.8135
11010SOL    HW233609   7.985   6.617   4.261 -0.8096  1.5995 -0.1757
11011SOL     OW33610   4.927   1.715   5.712 -0.6191  0.6269 -0.5013
11011SOL    HW133611   4.835   1.726   5.736 -1.3070  1.7105 -3.2329
11011SOL    HW233612   4.974   1.778   5.766 -1.2329 -0.8802  1.9152
11012SOL     OW33613   5.862   1.132   4.348  0.5557  0.0426  0.0951
11012SOL    HW133614   5.849   1.040   4.370  1.2610  0.1563  1.0456
11012SOL    HW233615   5.927   1.163   4.411  0.5386  1.1203 -0.3938
11013SOL     OW33616   1.224   6.817   7.720  0.4225 -1.1527  0.1527
11013SOL    HW133617   1.319   6.823   7.728  0.4944  1.4510 -1.6404
11013SOL    HW233618   1.206   6.832   7.627 -1.7896 -0.9200  0.5579
11014SOL     OW33619   9.436   0.456   2.805  0.5151 -0.5435 -0.4646
11014SOL    HW133620   9.526   0.457   2.772  0.6305  2.3020 -0.2863
11014SOL    HW233621   9.382   0.458   2.726  0.4550 -3.7724 -0.6376
11015SOL     OW33622   3.703   4.249   1.866 -0.2537  0.5489  0.0027
11015SOL    HW133623   3.637   4.314   1.846 -0.3245  0.5755  0.3220
11015SOL    HW233624   3.786   4.297   1.863 -0.4337  1.0342  1.8723
11016SOL     OW33625   3.661   7.181   2.435 -0.1161  0.2017  0.0066
11016SOL    HW133626   3.587   7.122   2.421  0.7425 -0.6788 -0.9459
11016SOL    HW233627   3.738   7.124   2.439  0.8403  1.2693 -1.6806
11017SOL     OW33628   8.049   5.939   5.618  0.0408 -0.0191 -0.0967
11017SOL    HW133629   8.123   5.965   5.673 -0.2657 -0.1495  0.3842
11017SOL    HW233630   8.046   5.844   5.625  0.7040 -0.1496 -1.2639
11018SOL     OW33631   0.622   2.014   3.405 -0.2982  0.3683  0.0742
11018SOL    HW133632   0.635   2.105   3.380  1.5734  1.0881  3.0984
11018SOL    HW233633   0.528   2.007   3.423 -0.8485  1.0376 -2.1965
11019SOL     OW33634   5.136   7.054   3.384  0.4636 -0.0742 -0.1418
11019SOL    HW133635   5.156   6.964   3.357 -0.6832  0.0965 -1.7014
11019SOL    HW233636   5.068   7.044   3.451 -0.5773 -0.3718 -1.2008
11020SOL     OW33637   8.340   5.449   2.233 -0.8106 -0.1030  0.4954
11020SOL    HW133638   8.320   5.356   2.231 -0.2086 -0.2616  1.5013
11020SOL    HW233639   8.295   5.482   2.311 -0.0934  0.2253  0.7721
11021SOL     OW33640   7.960   6.923   1.991  0.2334 -0.1502 -0.1745
11021SOL    HW133641   7.935   6.917   1.899 -1.2140 -0.4727  0.2247
11021SOL    HW233642   8.045   6.969   1.989 -0.0588  0.3928 -1.6111
11022SOL     OW33643   8.665   0.095   5.457  0.0786 -0.4041 -0.4674
11022SOL    HW133644   8.643   0.095   5.364 -0.3647  0.3543 -0.3715
11022SOL    HW233645   8.636   0.181   5.489  1.7420  0.0358  0.0034
11023SOL     OW33646   0.995   6.650   0.732 -0.1998  0.4901  0.4975
11023SOL    HW133647   0.914   6.599   0.730  0.4664 -0.6595  1.4442
11023SOL    HW233648   0.983   6.717   0.664 -0.6533 -1.6351 -1.6628
11024SOL     OW33649   4.424   8.841   5.817 -0.5490  0.8013  0.0081
11024SOL    HW133650   4.349   8.892   5.787  0.8955  2.9560 -0.2073
11024SOL    HW233651   4.463   8.894   5.886 -0.2640 -1.1643  1.4203
11025SOL     OW33652   5.165   3.841   8.829  0.4053 -0.1710  0.1473
11025SOL    HW133653   5.196   3.777   8.892  0.3850 -1.1403 -0.7937
11025SOL    HW233654   5.087   3.878   8.868 -0.3028 -1.6284  0.1823
11026SOL     OW33655   6.526   9.339   4.714  0.4752  0.2870  0.5979
11026SOL    HW133656   6.555   9.334   4.623  2.0438 -0.9836  1.1271
11026SOL    HW233657   6.514   9.433   4.730 -1.3174  0.4561 -1.3227
11027SOL     OW33658   0.510   6.164   6.697 -0.0255 -0.0919  0.3547
11027SOL    HW133659   0.524   6.257   6.710 -0.5403  0.0606 -0.1695
11027SOL    HW233660   0.491   6.154   6.604 -1.6457 -0.4998  0.6975
11028SOL     OW33661   9.614   4.249   4.650  0.4629 -0.7400 -0.8654
11028SOL    HW133662   9.671   4.185   4.607  0.0711 -0.4995 -1.7671
11028SOL    HW233663   9.536   4.251   4.595  0.0537 -0.2377 -0.2659
11029SOL     OW33664   0.980   7.193   0.963 -0.0453 -0.2151 -0.1081
11029SOL    HW133665   0.987   7.284   0.932 -3.0739  0.7841  1.7101
11029SOL    HW233666   1.040   7.190   1.038 -0.7521  0.7011  0.5252
11030SOL     OW33667   9.393   8.177   4.523 -0.5877 -0.1449 -0.5748
11030SOL    HW133668   9.488   8.187   4.525 -0.4960 -0.9434 -0.2681
11030SOL    HW233669   9.372   8.141   4.609 -1.4919  2.4789  0.3997
11031SOL     OW33670   2.148   5.175   5.733 -0.5657  0.7337 -0.2847
11031SOL    HW133671   2.057   5.180   5.761 -1.0081  1.2055 -1.7215
11031SOL    HW233672   2.167   5.262   5.698  0.0281  0.2659 -1.1676
11032SOL     OW33673   4.335   1.007   4.887 -0.2056  0.1235  0.4669
11032SOL    HW133674   4.248   1.044   4.879 -0.4912 -0.4044  1.0830
11032SOL    HW233675   4.330   0.921   4.844  0.2515  0.4630 -0.2879
11033SOL     OW33676   0.466   5.783   5.943 -0.3517  0.0488  0.3982
11033SOL    HW133677   0.382   5.816   5.912 -0.3353  0.0591  0.3657
11033SOL    HW233678   0.488   5.840   6.017  0.4810  1.1821 -0.6772
11034SOL     OW33679   4.780   3.324   9.590  0.3310 -0.3009 -0.0401
11034SOL    HW133680   4.752   3.415   9.595  0.9867 -0.1451  0.9562
11034SOL    HW233681   4.714   3.276   9.640 -0.7478 -0.5895 -1.6237
11035SOL     OW33682   2.492   7.618   1.050  0.4080 -0.1755 -0.3620
11035SOL    HW133683   2.442   7.601   0.970 -1.5128 -0.4059  0.8163
11035SOL    HW233684   2.430   7.663   1.108  1.5117 -0.6497  1.2636
11036SOL     OW33685   6.497   9.477   6.894 -0.3620 -0.0486 -0.1693
11036SOL    HW133686   6.443   9.437   6.826 -1.4409  1.1209 -0.0335
11036SOL    HW233687   6.464   9.442   6.976 -0.4372  0.1168 -0.1283
11037SOL     OW33688   7.611   7.996   8.525 -0.1162 -0.2844 -0.2723
11037SOL    HW133689   7.703   7.973   8.514  0.0973  0.4872 -0.1454
11037SOL    HW233690   7.566   7.953   8.452  0.2864 -0.9683 -0.1227
11038SOL     OW33691   4.839   3.295   1.921  0.1823 -0.0032 -0.1913
11038SOL    HW133692   4.921   3.322   1.961 -0.7780  1.5110  0.8683
11038SOL    HW233693   4.796   3.377   1.896 -1.5112 -0.6699  0.3643
11039SOL     OW33694   3.831   4.585   0.224  0.4869  0.2219  0.2016
11039SOL    HW133695   3.861   4.526   0.155 -0.5410 -1.7524  1.3492
11039SOL    HW233696   3.888   4.567   0.298  1.1977  1.8841  0.0860
11040SOL     OW33697   4.822   8.671   3.146  0.6627 -0.2130 -0.3344
11040SOL    HW133698   4.731   8.653   3.123  0.1581  1.1166  0.4854
11040SOL    HW233699   4.873   8.608   3.096 -0.6677 -0.5327 -1.3329
11041SOL     OW33700   2.383   5.557   5.894 -0.7512 -0.1807  0.3327
11041SOL    HW133701   2.357   5.635   5.943  0.9672 -0.2901  1.4797
11041SOL    HW233702   2.403   5.492   5.961  1.2792 -0.4583 -0.4854
11042SOL     OW33703   9.830   1.987   3.410 -0.3579  0.0573 -0.3343
11042SOL    HW133704   9.760   2.022   3.356 -0.5075 -0.7438 -0.6643
11042SOL    HW233705   9.792   1.910   3.452 -0.0377  0.2929  0.4039
11043SOL     OW33706   0.957   6.922   3.784 -0.0123  0.2284  0.3952
11043SOL    HW133707   1.014   6.850   3.755  0.9865  0.8525  0.7438
11043SOL    HW233708   1.018   6.994   3.803 -1.0187  1.2586 -0.2212
11044SOL     OW33709   8.979   5.203   8.234  0.3904 -0.0647 -0.3195
11044SOL    HW133710   8.926   5.280   8.256  1.3690  0.3572  0.6379
11044SOL    HW233711   8.922   5.129   8.254  0.2703  0.3700  1.0965
11045SOL     OW33712   7.611   3.517   8.534  0.0170 -0.1502  0.6058
11045SOL    HW133713   7.584   3.599   8.575 -0.7627  0.3488 -0.8272
11045SOL    HW233714   7.563   3.515   8.451  1.2655 -1.2612 -0.1307
11046SOL     OW33715   1.265   7.252   6.558 -0.0046 -0.3779 -0.0256
11046SOL    HW133716   1.193   7.212   6.607  0.1046 -1.1236 -0.4493
11046SOL    HW233717   1.229   7.333   6.524  0.0382  0.3572  1.6034
11047SOL     OW33718   6.924   6.935   2.303 -0.4540  0.0254  0.8861
11047SOL    HW133719   6.847   6.942   2.246 -1.1826 -1.0410  1.7122
11047SOL    HW233720   6.917   6.849   2.343  1.5435 -0.3730  0.4836
11048SOL     OW33721   3.025   8.264   3.839 -0.1778  0.1983 -0.1066
11048SOL    HW133722   3.016   8.245   3.933  1.0980  1.2325  0.2613
11048SOL    HW233723   3.096   8.207   3.810  0.4619  0.9519 -0.0702
11049SOL     OW33724   8.340   1.106   7.162 -0.3261 -0.3032  0.4317
11049SOL    HW133725   8.337   1.176   7.097  0.0135  2.3050  3.0318
11049SOL    HW233726   8.399   1.040   7.123 -0.1070  1.1317 -1.8382
11050SOL     OW33727   4.617   9.786   9.276 -0.0412 -0.5134 -0.0702
11050SOL    HW133728   4.703   9.746   9.260  0.3166 -0.0487  0.5870
11050SOL    HW233729   4.619   9.867   9.225  0.1545 -0.2139  0.3982
11051SOL     OW33730   2.662   0.715   6.585  0.4985  0.1912 -0.1313
11051SOL    HW133731   2.731   0.657   6.617 -1.0126 -1.4053  0.3293
11051SOL    HW233732   2.581   0.666   6.598 -0.4950  0.6566 -3.5718
11052SOL     OW33733   3.681  10.001   6.043 -0.1604  0.1251  0.1322
11052SOL    HW133734   3.603  10.027   6.091  0.4818  0.5734  0.9416
11052SOL    HW233735   3.671   9.906   6.032 -0.8758  0.1959  0.1084
11053SOL     OW33736   6.036   3.329   4.986  0.0408 -0.0443  0.0902
11053SOL    HW133737   6.007   3.263   5.049  1.5199  0.4337  1.3602
11053SOL    HW233738   6.127   3.346   5.011  0.1771  1.3135 -1.2166
11054SOL     OW33739   7.457   4.714   5.626 -0.0676 -0.6875  0.1248
11054SOL    HW133740   7.436   4.626   5.597  0.9065 -1.0170  0.3658
11054SOL    HW233741   7.524   4.745   5.565 -2.0696  0.8338 -1.4270
11055SOL     OW33742   1.503   6.960   3.520  0.3245  0.8365  0.2177
11055SOL    HW133743   1.526   6.914   3.439  0.0300 -0.6487  0.9487
11055SOL    HW233744   1.451   7.035   3.491 -0.1824  0.0600 -0.9521
11056SOL     OW33745   5.808   9.303   5.686  0.4613  0.2399  0.3086
11056SOL    HW133746   5.715   9.284   5.699  0.6685 -0.0597  1.3977
11056SOL    HW233747   5.843   9.224   5.644 -0.2086  1.2157 -2.2767
11057SOL     OW33748   3.306   4.474   6.891 -0.1085  0.2017  0.3585
11057SOL    HW133749   3.370   4.544   6.897  1.0548 -0.8320  0.4362
11057SOL    HW233750   3.330   4.412   6.960 -1.3731 -0.0797  0.5827
11058SOL     OW33751   1.983   9.807   6.110  0.5367 -0.5834  0.2175
11058SOL    HW133752   1.951   9.896   6.111  1.4461 -0.1455 -2.2229
11058SOL    HW233753   1.926   9.761   6.048 -0.5496 -2.0268  2.1624
11059SOL     OW33754   9.295   8.547   8.981 -0.1043  0.1247 -0.0777
11059SOL    HW133755   9.345   8.466   8.981 -1.0750 -0.5680  2.4702
11059SOL    HW233756   9.355   8.612   9.016  0.2175  0.2018 -0.7563
11060SOL     OW33757   5.197   7.709   4.628  0.3296  0.0956  0.0962
11060SOL    HW133758   5.159   7.627   4.659  2.3727 -0.9520  0.0033
11060SOL    HW233759   5.162   7.718   4.539  1.9609 -2.0476 -0.8551
11061SOL     OW33760   0.997   7.588   3.817  0.0136 -0.0444 -0.6428
11061SOL    HW133761   0.991   7.672   3.772 -2.6623 -0.5557 -1.4209
11061SOL    HW233762   1.080   7.592   3.864  0.1350  2.8789 -0.9104
11062SOL     OW33763   7.412   3.939   6.148 -0.2777 -0.5225  0.0339
11062SOL    HW133764   7.440   3.916   6.059  1.1970 -1.5726  0.7439
11062SOL    HW233765   7.328   3.895   6.159 -0.9537  0.3956 -1.1478
11063SOL     OW33766   0.727   0.074   2.043  0.0933 -0.1865  0.2464
11063SOL    HW133767   0.696  -0.009   2.079 -0.7057  0.2820  0.6673
11063SOL    HW233768   0.738   0.130   2.120 -0.2347  0.3756 -0.1089
11064SOL     OW33769   7.349   4.363   2.172 -0.2971 -0.0486  0.1734
11064SOL    HW133770   7.310   4.329   2.092  0.7147  0.8595 -0.7421
11064SOL    HW233771   7.345   4.458   2.162 -0.6712  0.0891  1.4665
11065SOL     OW33772   7.109   3.455   3.921  0.2575 -0.4985  0.2710
11065SOL    HW133773   7.051   3.445   3.846  0.4206 -1.2364  0.2328
11065SOL    HW233774   7.076   3.393   3.986  0.7246 -0.5959  0.4198
11066SOL     OW33775   6.067   0.049   5.741 -0.4817 -0.2982 -0.3187
11066SOL    HW133776   6.159   0.022   5.736 -0.9554 -1.8106 -2.1827
11066SOL    HW233777   6.070   0.144   5.736  1.0193 -0.2448  0.7964
11067SOL     OW33778   8.627   5.448   6.096  0.2283  0.1196  0.6199
11067SOL    HW133779   8.673   5.426   6.177  2.6038 -1.4946 -1.0386
11067SOL    HW233780   8.642   5.542   6.085  1.6849 -0.0312  1.0495
11068SOL     OW33781   7.326   1.013   2.181 -0.5431 -0.3567  0.8506
11068SOL    HW133782   7.267   1.088   2.190 -1.8731 -1.3788  0.9358
11068SOL    HW233783   7.411   1.046   2.212 -0.8753  1.3562  0.0494
11069SOL     OW33784   4.131   6.512   3.942  0.5186 -0.5411 -0.1026
11069SOL    HW133785   4.129   6.504   4.037 -0.2846 -0.9144 -0.1408
11069SOL    HW233786   4.220   6.486   3.918  0.0043 -2.9781  0.3611
11070SOL     OW33787   3.478   4.653   4.044 -0.3145 -0.3272 -0.8223
11070SOL    HW133788   3.528   4.684   4.120 -0.8128  1.1073 -1.0546
11070SOL    HW233789   3.389   4.641   4.077 -0.1666 -1.4360 -0.7733
11071SOL     OW33790   1.555   9.527   0.357 -0.0328  0.0221  0.4414
11071SOL    HW133791   1.498   9.511   0.282  2.1478 -0.4524 -1.2346
11071SOL    HW233792   1.601   9.444   0.370  1.0469  0.6887  1.0224
11072SOL     OW33793   1.873   9.120   1.240 -0.3540  0.2869  0.4445
11072SOL    HW133794   1.907   9.154   1.323  0.9496 -0.4767  0.2442
11072SOL    HW233795   1.778   9.114   1.254 -0.2112  0.6380  1.7014
11073SOL     OW33796   1.469   9.816   2.304  0.0099 -0.0750 -0.4094
11073SOL    HW133797   1.490   9.748   2.240 -0.9561 -2.0047  1.2158
11073SOL    HW233798   1.389   9.785   2.346 -0.4431  2.0827  0.4271
11074SOL     OW33799   6.341   7.920   2.185 -0.0551 -0.0352  0.3852
11074SOL    HW133800   6.318   7.850   2.124  0.5439  0.1047 -0.0036
11074SOL    HW233801   6.338   8.000   2.133 -0.6113  0.2240  0.8001
11075SOL     OW33802   8.501   8.065   6.129 -0.1382 -0.0128  0.4257
11075SOL    HW133803   8.510   8.073   6.224  0.8140 -1.7434  0.5132
11075SOL    HW233804   8.419   8.017   6.117  0.9288 -1.9450  0.5203
11076SOL     OW33805   7.508   7.091   2.475 -0.4715  0.3564 -0.0609
11076SOL    HW133806   7.431   7.106   2.530  0.4106  0.0401  1.3027
11076SOL    HW233807   7.537   7.178   2.449 -1.2654  0.4791 -0.5753
11077SOL     OW33808   5.190   2.024   7.256  0.2265  0.2793 -0.1214
11077SOL    HW133809   5.214   2.114   7.236 -0.3852  0.3138 -0.7350
11077SOL    HW233810   5.269   1.973   7.238  0.7750  0.7646  0.8380
11078SOL     OW33811   5.497   2.788   0.325  0.4355  0.0741 -0.2245
11078SOL    HW133812   5.431   2.833   0.379  0.2906  0.4900 -0.7443
11078SOL    HW233813   5.570   2.850   0.321  1.2261 -0.7273  1.0554
11079SOL     OW33814   1.993   5.525   2.560 -0.8246  0.7117  0.0935
11079SOL    HW133815   1.919   5.485   2.515  0.4098 -1.7379  0.0309
11079SOL    HW233816   1.955   5.559   2.642 -2.1769  0.3902 -0.3662
11080SOL     OW33817   4.827   5.667   1.256  0.7038  0.6413 -0.2767
11080SOL    HW133818   4.877   5.598   1.299 -0.9843  0.2412  1.1854
11080SOL    HW233819   4.758   5.620   1.208 -0.6652  1.2659  1.0040
11081SOL     OW33820   6.804   5.528   4.793 -0.1034 -0.5428 -0.3678
11081SOL    HW133821   6.847   5.527   4.879  0.2696  0.0793 -0.5337
11081SOL    HW233822   6.793   5.436   4.770  1.1532 -0.7204 -0.3164
11082SOL     OW33823   7.184   3.242   7.925 -0.3933 -0.2688  0.1930
11082SOL    HW133824   7.193   3.318   7.982 -0.4727 -0.7550  0.8702
11082SOL    HW233825   7.143   3.276   7.845  1.1889  0.7141 -0.2367
11083SOL     OW33826   0.876   0.621   5.258 -0.0156  0.6079  0.6513
11083SOL    HW133827   0.954   0.565   5.260  0.0307  0.6342 -0.2241
11083SOL    HW233828   0.810   0.571   5.306 -0.0775 -0.3750 -0.4175
11084SOL     OW33829   9.175   8.276   5.417  0.2436  0.1347 -0.5053
11084SOL    HW133830   9.150   8.365   5.443 -0.6512  0.7757 -3.1830
11084SOL    HW233831   9.217   8.287   5.332  0.5713 -1.9683 -0.6633
11085SOL     OW33832   8.310   0.451   5.987  0.2700  0.0621 -0.2284
11085SOL    HW133833   8.339   0.376   6.040 -0.1141  0.5290  0.6785
11085SOL    HW233834   8.386   0.509   5.984 -0.4890  1.3269  2.2228
11086SOL     OW33835   0.847   5.816   9.025 -0.2533 -0.1397  0.2343
11086SOL    HW133836   0.901   5.761   9.082 -1.2521  0.6326  2.0217
11086SOL    HW233837   0.909   5.880   8.988  0.4495 -0.7585  0.3251
11087SOL     OW33838   8.620   7.213   3.185  0.3915  0.0536  0.3053
11087SOL    HW133839   8.685   7.283   3.183  1.1046 -0.6018 -0.4820
11087SOL    HW233840   8.548   7.246   3.131  1.3428 -0.3617 -1.2868
11088SOL     OW33841   4.696   3.929   2.536  0.5270 -0.0374  0.6240
11088SOL    HW133842   4.701   3.833   2.531  2.1448 -0.0760  1.9939
11088SOL    HW233843   4.620   3.947   2.590 -1.1482 -0.4246 -1.4783
11089SOL     OW33844   7.538   5.615   4.101  0.3033  0.5722  0.2184
11089SOL    HW133845   7.571   5.700   4.070 -0.1879  1.5720  2.2990
11089SOL    HW233846   7.506   5.632   4.189 -2.0664 -1.2458 -0.1822
11090SOL     OW33847   9.900   4.854   5.611  0.0106  0.2133 -0.2750
11090SOL    HW133848   9.880   4.796   5.538 -2.0277  2.2027 -1.4244
11090SOL    HW233849   9.872   4.806   5.688 -0.7757 -0.7072 -1.1023
11091SOL     OW33850   3.807   0.321   3.426 -0.6520  0.0092  0.1200
11091SOL    HW133851   3.807   0.277   3.341 -0.1768  0.4751 -0.1295
11091SOL    HW233852   3.813   0.414   3.405  0.0557  0.0984  0.6756
11092SOL     OW33853   0.050   6.537   6.553 -0.4564  0.9327 -0.4562
11092SOL    HW133854   0.008   6.607   6.502 -1.6346  0.2768 -0.4089
11092SOL    HW233855   0.031   6.560   6.644 -1.7379  0.0422 -0.4690
11093SOL     OW33856   3.055   0.225   3.682  0.1656  0.1394  0.1117
11093SOL    HW133857   3.112   0.148   3.683 -0.3842 -0.4473 -3.1771
11093SOL    HW233858   3.105   0.293   3.727  0.8701 -1.9093  2.6711
11094SOL     OW33859   4.145   9.796   7.666 -0.3575  0.3948  0.0107
11094SOL    HW133860   4.069   9.741   7.647 -0.7041 -0.2676  2.8243
11094SOL    HW233861   4.139   9.812   7.760  2.1175  1.6929  0.0179
11095SOL     OW33862   2.674   2.990   3.005  0.1622  0.5401  0.7310
11095SOL    HW133863   2.634   2.971   2.920  1.1806  2.2811 -0.1866
11095SOL    HW233864   2.604   3.030   3.056 -0.0492  0.9346  0.1416
11096SOL     OW33865   8.197   2.794   1.833  0.7886  0.3081 -0.1840
11096SOL    HW133866   8.138   2.785   1.758  0.2672 -0.5797  0.3195
11096SOL    HW233867   8.183   2.884   1.864  2.2582  1.2958 -2.1520
11097SOL     OW33868   1.464   6.364   5.154 -0.4970  0.1001 -0.6363
11097SOL    HW133869   1.486   6.424   5.226 -0.4976  0.6876 -1.1147
11097SOL    HW233870   1.459   6.278   5.195  1.3364  0.1435 -0.2568
11098SOL     OW33871   2.558   0.698   6.174 -0.5131  0.0920  0.0475
11098SOL    HW133872   2.587   0.716   6.263  1.4577 -1.2324 -0.2513
11098SOL    HW233873   2.570   0.781   6.127  1.6156 -0.0232  0.2937
11099SOL     OW33874   1.639   6.239   6.928 -0.4190  0.4854 -0.2060
11099SOL    HW133875   1.597   6.315   6.888  1.3123  0.8615 -1.4350
11099SOL    HW233876   1.619   6.247   7.022 -1.5645  1.5852 -0.5151
11100SOL     OW33877   0.233   0.180   9.111 -0.1000  0.0268 -0.1564
11100SOL    HW133878   0.240   0.244   9.040  0.7092 -0.7689 -0.8231
11100SOL    HW233879   0.294   0.110   9.086 -0.8947 -0.9687  0.5841
11101SOL     OW33880   2.815   6.468   3.303  0.1831  0.4473  0.0364
11101SOL    HW133881   2.857   6.453   3.388  1.0230 -0.1010 -0.4542
11101SOL    HW233882   2.882   6.510   3.250  0.0382 -0.1974 -0.6858
11102SOL     OW33883   0.999   9.725   5.874  0.4993 -0.5444  0.8452
11102SOL    HW133884   0.992   9.712   5.969  0.2367 -1.6066  0.6866
11102SOL    HW233885   0.968   9.815   5.860  0.2008 -0.5012  1.7228
11103SOL     OW33886   2.764   0.467   4.195  0.5625 -0.5827  0.0260
11103SOL    HW133887   2.830   0.427   4.139  0.0085 -0.0211 -1.0596
11103SOL    HW233888   2.767   0.560   4.172  0.1727 -0.3756  0.7813
11104SOL     OW33889   7.509   9.868   4.638  0.0333 -1.0843 -0.5894
11104SOL    HW133890   7.460   9.906   4.712 -0.7239  0.2992 -1.7584
11104SOL    HW233891   7.596   9.908   4.644 -0.7194  0.8343 -1.7397
11105SOL     OW33892   3.179   2.068   7.056 -0.0064  0.2329  0.3879
11105SOL    HW133893   3.092   2.090   7.088  0.2208  1.8758 -0.0542
11105SOL    HW233894   3.215   2.010   7.124 -1.0351  0.3988  1.1046
11106SOL     OW33895   4.187   7.585   7.650 -0.0608 -0.2052  0.5989
11106SOL    HW133896   4.267   7.553   7.691 -0.4121 -1.9831 -0.0115
11106SOL    HW233897   4.200   7.571   7.556 -1.5289 -1.7485  0.5623
11107SOL     OW33898   8.582   4.819   3.846 -0.4446 -0.2687  0.3381
11107SOL    HW133899   8.509   4.774   3.889  0.5646  0.6421  3.2559
11107SOL    HW233900   8.660   4.774   3.879  0.3999  0.2457 -0.8926
11108SOL     OW33901   9.462   8.615   6.194 -0.2188 -0.2121  0.2778
11108SOL    HW133902   9.366   8.620   6.185 -0.1742 -1.2341 -1.0939
11108SOL    HW233903   9.489   8.552   6.127  1.5399  0.9223 -0.1411
11109SOL     OW33904   9.152   2.657   9.221  0.0425 -0.2096 -0.3038
11109SOL    HW133905   9.142   2.615   9.307  2.0929  0.2487  0.2322
11109SOL    HW233906   9.223   2.720   9.235  1.3072 -1.0166 -2.6511
11110SOL     OW33907   9.572   2.898   6.677  0.3625 -0.1207  0.0795
11110SOL    HW133908   9.548   2.974   6.730  1.1402  0.0610  0.1813
11110SOL    HW233909   9.492   2.846   6.671  0.3632 -0.3868  1.8315
11111SOL     OW33910   0.076   3.431   0.155 -0.2061 -0.5927 -0.4291
11111SOL    HW133911   0.157   3.476   0.180  1.8506 -3.6321 -1.0537
11111SOL    HW233912   0.024   3.428   0.235  0.3699  1.1285  0.0650
11112SOL     OW33913   2.066   5.290   4.789  0.4838 -0.4012 -0.0256
11112SOL    HW133914   2.141   5.344   4.763 -0.9473  1.3347 -0.6807
11112SOL    HW233915   2.037   5.249   4.707  0.9324 -1.4105  0.2990
11113SOL     OW33916   2.203   3.455   6.707 -0.1910  0.0865 -0.4870
11113SOL    HW133917   2.275   3.424   6.653 -0.7524 -2.0830 -0.1152
11113SOL    HW233918   2.245   3.492   6.785  0.5564 -0.4663 -0.6134
11114SOL     OW33919   6.391   9.894   5.404 -0.0745 -0.1167 -0.1244
11114SOL    HW133920   6.315   9.881   5.348 -0.7158  0.6092  0.5466
11114SOL    HW233921   6.421   9.982   5.383  2.5656 -1.4844 -2.6885
11115SOL     OW33922   1.199   4.277   8.336 -0.0932 -0.3406 -0.5325
11115SOL    HW133923   1.262   4.225   8.386  1.2210  1.9414  0.3472
11115SOL    HW233924   1.220   4.368   8.358 -1.9917  0.6191 -2.3126
11116SOL     OW33925   5.049   7.341   2.972  0.6912  0.3357 -0.1976
11116SOL    HW133926   4.987   7.268   2.963 -0.7028  1.2142  1.6996
11116SOL    HW233927   5.017   7.408   2.911  0.5676  0.2883 -0.1844
11117SOL     OW33928   1.247   6.914   3.156 -0.2245  0.8406 -0.2856
11117SOL    HW133929   1.253   6.840   3.095  0.1959  0.9975 -0.4400
11117SOL    HW233930   1.216   6.875   3.238 -0.9816  0.6627 -0.6550
11118SOL     OW33931   3.518   0.263   5.106 -0.2207 -0.1450  0.4505
11118SOL    HW133932   3.492   0.352   5.128  2.7629  0.1420  3.8217
11118SOL    HW233933   3.478   0.209   5.175 -0.2604 -1.1124 -0.3106
11119SOL     OW33934   3.599   3.680   7.447  0.0412  0.1323  0.3816
11119SOL    HW133935   3.616   3.727   7.365  2.5186  0.1207  0.8068
11119SOL    HW233936   3.663   3.715   7.509  1.9490 -3.5643  0.7996
11120SOL     OW33937   4.577   6.537   8.566 -0.5461  0.7920 -0.2957
11120SOL    HW133938   4.607   6.457   8.523 -3.2544 -0.1223 -0.6615
11120SOL    HW233939   4.609   6.529   8.656 -1.0247 -0.8772 -0.2471
11121SOL     OW33940   0.869   2.296  -0.014 -0.7153  0.3750  0.3031
11121SOL    HW133941   0.937   2.338   0.039 -2.1894  2.0297  0.9475
11121SOL    HW233942   0.805   2.265   0.050 -1.0645 -0.2870 -0.3616
11122SOL     OW33943   2.844   7.530   3.531 -0.0938  0.0512  0.3767
11122SOL    HW133944   2.867   7.616   3.497 -0.6551 -0.0640 -0.3091
11122SOL    HW233945   2.887   7.468   3.472 -0.7575 -0.1488  0.0971
11123SOL     OW33946   9.972   9.472   7.444 -0.4806  0.0973  0.2819
11123SOL    HW133947   9.971   9.422   7.363 -0.3900  1.2032 -0.4264
11123SOL    HW233948   9.879   9.478   7.469 -0.6897  1.1758 -0.6695
11124SOL     OW33949   8.767   8.773   3.286 -0.1723 -0.2024  0.6629
11124SOL    HW133950   8.686   8.820   3.305 -1.4771 -1.3692 -1.6747
11124SOL    HW233951   8.836   8.829   3.322 -1.9828  0.4472  3.4462
11125SOL     OW33952   7.778   4.064   4.246  0.0073 -0.7700 -0.1779
11125SOL    HW133953   7.850   4.127   4.255 -0.3752 -0.3703  0.0846
11125SOL    HW233954   7.784   4.010   4.325  0.2956 -1.0245 -0.3719
11126SOL     OW33955   2.773   2.944   0.489 -0.5562 -0.3807 -0.2527
11126SOL    HW133956   2.756   3.011   0.555 -1.1854 -0.3628 -0.4181
11126SOL    HW233957   2.833   2.986   0.427  1.1867 -0.8823  1.0470
11127SOL     OW33958   6.603   8.388   4.230 -0.0377  0.3015 -0.2535
11127SOL    HW133959   6.592   8.293   4.222 -0.5242  0.3560 -0.2805
11127SOL    HW233960   6.619   8.418   4.141  1.3006  0.1096 -0.0918
11128SOL     OW33961   8.510   2.433   0.336 -0.6837 -0.6229 -0.4291
11128SOL    HW133962   8.582   2.421   0.274 -0.1612 -0.1701  0.0761
11128SOL    HW233963   8.476   2.345   0.350 -0.1026 -0.8731 -0.5376
11129SOL     OW33964   9.531   9.768   5.583  0.3420 -0.2959 -0.4282
11129SOL    HW133965   9.609   9.824   5.578 -1.4683  2.5646  0.5416
11129SOL    HW233966   9.530   9.721   5.500  3.1505 -0.5809 -0.3970
11130SOL     OW33967   8.962   6.221   0.634  0.5577  0.1694  0.2905
11130SOL    HW133968   9.040   6.167   0.647  1.3741  1.5481  1.3379
11130SOL    HW233969   8.994   6.302   0.595 -0.3140  0.8158  0.8609
11131SOL     OW33970   1.185   5.757   6.124 -0.0016 -0.0607 -0.6267
11131SOL    HW133971   1.249   5.827   6.119  0.2448 -0.3465 -1.7106
11131SOL    HW233972   1.229   5.687   6.173 -0.0520  0.3164 -0.0309
11132SOL     OW33973   2.992   1.149   3.435  0.3647  0.9233 -0.5634
11132SOL    HW133974   3.069   1.121   3.384  1.6846  1.5163  1.0273
11132SOL    HW233975   2.920   1.095   3.401  1.7904 -0.7747 -1.0405
11133SOL     OW33976   4.780   3.270   6.775 -0.3798 -0.0719  0.2781
11133SOL    HW133977   4.777   3.291   6.868 -1.2311 -2.0449  0.7378
11133SOL    HW233978   4.696   3.301   6.741  0.2316  1.3324 -0.0339
11134SOL     OW33979   0.691   6.851   5.716  0.3531  0.6260 -0.0168
11134SOL    HW133980   0.710   6.888   5.802  1.0067  1.9445 -0.6871
11134SOL    HW233981   0.746   6.902   5.656 -1.3713  0.9153 -1.4156
11135SOL     OW33982   4.228   6.688   6.333  0.3636 -0.6839  0.2163
11135SOL    HW133983   4.205   6.777   6.362 -0.9778 -0.4134 -1.5402
11135SOL    HW233984   4.189   6.631   6.399  2.7081 -0.0396  2.3643
11136SOL     OW33985   0.088   4.620   5.346  0.4135  0.2254 -0.0237
11136SOL    HW133986   0.028   4.676   5.295 -1.1611 -0.4768  0.9908
11136SOL    HW233987   0.157   4.598   5.284 -1.7987 -1.1899 -2.1641
11137SOL     OW33988   6.022   7.047   0.832 -0.3700 -0.0950  0.4981
11137SOL    HW133989   6.091   7.113   0.838 -0.4732  0.4140 -2.3073
11137SOL    HW233990   5.941   7.098   0.834 -0.5349 -0.3541  0.4887
11138SOL     OW33991   2.325   5.819   9.593  0.1538 -0.0579  0.6392
11138SOL    HW133992   2.386   5.749   9.572  0.1731 -0.0679  0.7285
11138SOL    HW233993   2.297   5.801   9.683  1.4294  0.9699  1.2792
11139SOL     OW33994   8.861   7.815   4.610 -0.0971  0.1067  0.5029
11139SOL    HW133995   8.929   7.869   4.571  0.0932  0.0953  0.8167
11139SOL    HW233996   8.817   7.774   4.535  0.1349  0.2399  0.2931
11140SOL     OW33997   1.653   6.197   8.340  0.1530 -0.6152  0.3323
11140SOL    HW133998   1.618   6.174   8.427  3.2698  1.6073  2.3946
11140SOL    HW233999   1.589   6.258   8.305 -0.5987 -0.6102  1.6202
11141SOL     OW34000   7.934   0.270   8.728 -0.5586 -0.5477 -0.6836
11141SOL    HW134001   8.012   0.324   8.716 -0.8782  0.1463  0.2989
11141SOL    HW234002   7.861   0.327   8.703 -0.7467 -1.3144 -1.9654
11142SOL     OW34003   8.567   4.478   8.215  0.5053 -0.4723 -0.4317
11142SOL    HW134004   8.631   4.485   8.144  1.3220 -0.0529  0.3278
11142SOL    HW234005   8.545   4.568   8.237 -0.8040 -0.6172 -1.0751
11143SOL     OW34006   5.273   6.156   7.088 -0.2327  1.1942 -0.3499
11143SOL    HW134007   5.247   6.135   6.998 -0.5535 -0.8560  0.1723
11143SOL    HW234008   5.360   6.116   7.098 -0.1595  1.4888  0.2193
11144SOL     OW34009   4.905   9.569   0.854  0.3421 -0.7601 -0.1337
11144SOL    HW134010   4.815   9.600   0.860  0.3510 -0.9715  1.6890
11144SOL    HW234011   4.915   9.512   0.930  1.3783 -2.4645 -1.4808
11145SOL     OW34012   0.285   1.677   6.918 -0.2965  0.5399 -0.0706
11145SOL    HW134013   0.331   1.639   6.843  0.1945  0.6547  0.1715
11145SOL    HW234014   0.202   1.630   6.922 -0.3747  0.6135 -0.7598
11146SOL     OW34015   7.346   6.749   6.988  0.3091  0.4646 -0.1102
11146SOL    HW134016   7.318   6.722   6.901 -1.4056 -0.1959  0.6032
11146SOL    HW234017   7.313   6.838   6.998 -1.0241 -0.0734  0.4792
11147SOL     OW34018   2.943   9.775   4.806 -0.0471 -0.1956  0.6846
11147SOL    HW134019   3.023   9.814   4.839 -0.2040 -0.4379  1.3632
11147SOL    HW234020   2.913   9.835   4.738  0.2114  0.3838  1.0772
11148SOL     OW34021   8.577   3.817   3.684  0.0329 -0.0802  0.3457
11148SOL    HW134022   8.592   3.876   3.758  0.9664 -0.7184  0.6728
11148SOL    HW234023   8.495   3.772   3.705 -0.3126  0.5713  0.4284
11149SOL     OW34024   0.894   8.282   2.645  0.0481 -0.5858 -0.1801
11149SOL    HW134025   0.953   8.317   2.578 -1.6192  0.2835 -1.2426
11149SOL    HW234026   0.814   8.259   2.598  0.0773 -3.3608  0.9329
11150SOL     OW34027   2.912   1.441   5.164 -0.7475  0.0146 -0.2324
11150SOL    HW134028   2.979   1.446   5.096  0.8493  0.7743  1.3482
11150SOL    HW234029   2.892   1.347   5.169  1.5937 -0.5059  0.5404
11151SOL     OW34030   6.775   6.573   9.449 -0.0204 -0.0744 -0.1277
11151SOL    HW134031   6.840   6.576   9.518 -0.6429 -1.2659  0.5539
11151SOL    HW234032   6.693   6.597   9.492 -0.1109  1.0643 -0.8931
11152SOL     OW34033   6.638   7.046   7.346 -0.4831 -0.0236 -0.1058
11152SOL    HW134034   6.628   6.964   7.394  1.6875  0.0263  0.5674
11152SOL    HW234035   6.652   7.019   7.256 -1.7285 -0.2692 -0.2387
11153SOL     OW34036   7.704   9.631   3.728 -0.1072  0.2383  0.3451
11153SOL    HW134037   7.780   9.631   3.786 -0.3981  0.8332  0.7447
11153SOL    HW234038   7.738   9.659   3.643  0.2606 -0.2899  0.3179
11154SOL     OW34039   0.089   3.211   5.910  0.0257 -0.3541 -0.7526
11154SOL    HW134040   0.020   3.151   5.881 -0.4446  0.3439 -1.1166
11154SOL    HW234041   0.164   3.191   5.854  0.1810 -1.2112 -0.2630
11155SOL     OW34042   5.654   6.598   1.538 -0.5690 -0.6609 -0.3108
11155SOL    HW134043   5.712   6.534   1.579 -1.1045 -1.2127 -0.3957
11155SOL    HW234044   5.589   6.545   1.492 -0.1740 -0.0623 -1.6096
11156SOL     OW34045   1.384   5.371   1.442 -0.5288  0.4270  0.4225
11156SOL    HW134046   1.310   5.423   1.412  0.2859  2.0961  1.1529
11156SOL    HW234047   1.432   5.430   1.500  0.7183 -1.0057  0.9030
11157SOL     OW34048   7.618   9.896   2.341 -1.0442 -0.2041  0.3902
11157SOL    HW134049   7.648   9.839   2.270 -2.4115 -0.1402 -0.2785
11157SOL    HW234050   7.545   9.849   2.381 -3.7223  1.8759 -1.6044
11158SOL     OW34051   7.296   0.771   6.176 -0.2517 -0.1755  0.0231
11158SOL    HW134052   7.222   0.805   6.225 -1.1288 -1.2229 -0.5277
11158SOL    HW234053   7.327   0.695   6.227  1.8242  1.4538  1.3607
11159SOL     OW34054   2.043   0.415   2.937 -0.2524  0.6478  0.3685
11159SOL    HW134055   1.992   0.446   3.013  0.2257  1.9636  0.1789
11159SOL    HW234056   2.009   0.466   2.864  0.1970  0.3288 -0.0612
11160SOL     OW34057   8.505   0.206   8.473  0.0158  0.2603 -0.2246
11160SOL    HW134058   8.544   0.129   8.514  0.2388  0.8350  0.6719
11160SOL    HW234059   8.571   0.275   8.482 -0.1273  0.5349 -1.1277
11161SOL     OW34060   7.068   4.325   4.337  0.2219  0.3164 -0.1831
11161SOL    HW134061   7.096   4.272   4.262  1.1214  1.7128 -0.8688
11161SOL    HW234062   6.972   4.328   4.330  0.2683  0.0173 -0.9879
11162SOL     OW34063   4.094   8.685   9.169 -0.0114  0.9054 -0.0928
11162SOL    HW134064   4.106   8.687   9.264 -1.2849 -0.1264  0.1215
11162SOL    HW234065   4.171   8.639   9.135 -0.7778 -1.0666  0.7164
11163SOL     OW34066   2.417   6.196   7.491 -0.2861  0.0241 -0.0728
11163SOL    HW134067   2.354   6.233   7.429  0.4823  0.1873 -0.7690
11163SOL    HW234068   2.374   6.205   7.577 -1.1224  0.3082 -0.5115
11164SOL     OW34069   6.777   7.936   3.056  0.3669 -0.0732 -0.6355
11164SOL    HW134070   6.755   7.863   2.998 -2.0241  0.3518 -0.3517
11164SOL    HW234071   6.751   8.014   3.007  3.0791  0.6743 -1.0219
11165SOL     OW34072   6.204   5.353   0.009 -0.8853 -0.3664 -0.1018
11165SOL    HW134073   6.202   5.448   0.007 -0.5314 -0.3203  0.8803
11165SOL    HW234074   6.118   5.328   0.043 -1.4790 -0.4710 -1.6236
11166SOL     OW34075   8.565   7.601   2.492  0.7283  0.4363 -0.3832
11166SOL    HW134076   8.545   7.694   2.479  1.3542  0.7123  0.4709
11166SOL    HW234077   8.480   7.558   2.496  0.4052  1.0774 -0.1452
11167SOL     OW34078   1.968   5.768   3.677  0.0342 -0.0055 -0.5136
11167SOL    HW134079   1.954   5.677   3.651 -0.4108 -0.3834  0.9678
11167SOL    HW234080   2.052   5.768   3.721 -0.3075  0.1420  0.1509
11168SOL     OW34081   9.973   7.997   1.777 -0.3902  0.2617  0.4170
11168SOL    HW134082   9.903   8.062   1.769 -0.9996 -0.3537  0.6304
11168SOL    HW234083  10.045   8.043   1.819 -1.5030  0.2991  2.3631
11169SOL     OW34084   5.091   2.118   0.171 -0.0020  0.1947  0.1751
11169SOL    HW134085   5.101   2.148   0.262 -0.8107 -0.3576  0.4585
11169SOL    HW234086   4.999   2.134   0.151 -0.3844 -1.7045  0.2168
11170SOL     OW34087   6.931   7.592   9.105 -0.5309  0.2960 -0.2732
11170SOL    HW134088   6.845   7.550   9.113  0.2601 -1.5881 -1.0366
11170SOL    HW234089   6.916   7.663   9.042 -1.8996  1.2259  1.0144
11171SOL     OW34090   4.578   4.590   3.555  0.4551 -0.3213  0.2513
11171SOL    HW134091   4.625   4.646   3.616  1.4396 -1.2378  0.3614
11171SOL    HW234092   4.567   4.644   3.476  3.1325 -0.5555 -0.3727
11172SOL     OW34093   1.930   4.010   2.729  0.5633  0.5909 -0.0279
11172SOL    HW134094   1.982   3.996   2.808  2.3741  1.6910 -0.9460
11172SOL    HW234095   1.843   4.032   2.761  1.4769  1.8948  1.7153
11173SOL     OW34096   6.312   4.391   3.782 -0.7497 -0.1973  0.6578
11173SOL    HW134097   6.260   4.438   3.846  0.1176  1.9140 -0.1016
11173SOL    HW234098   6.285   4.427   3.697 -0.8989 -1.9539 -0.0847
11174SOL     OW34099   8.909   6.619   7.470 -0.2424 -0.3623  0.2127
11174SOL    HW134100   8.936   6.621   7.562  1.9193 -0.2472 -0.3872
11174SOL    HW234101   8.890   6.710   7.449 -0.4689 -0.3496  0.4588
11175SOL     OW34102   0.407   8.136   3.041  0.4847 -0.2114 -0.4469
11175SOL    HW134103   0.392   8.080   3.117 -0.2183 -0.2639 -0.6103
11175SOL    HW234104   0.420   8.224   3.077 -0.5299 -0.1142 -0.2891
11176SOL     OW34105   0.604   2.121   9.795  0.0454 -0.1646 -0.0265
11176SOL    HW134106   0.549   2.113   9.717 -1.1750 -0.4598  0.8412
11176SOL    HW234107   0.660   2.196   9.777  0.1976 -0.5826 -1.4269
11177SOL     OW34108   6.891   7.575   6.431 -0.2017 -0.0909  0.5874
11177SOL    HW134109   6.852   7.590   6.517  0.6991 -0.5990  1.0884
11177SOL    HW234110   6.964   7.637   6.426 -1.8664  1.9140 -0.9446
11178SOL     OW34111   0.985   4.497   7.958  0.0936 -0.5454  0.2618
11178SOL    HW134112   1.004   4.587   7.932  1.4238 -0.5770  1.0246
11178SOL    HW234113   1.068   4.464   7.993 -0.3687 -2.0719  0.0064
11179SOL     OW34114   4.267   0.045   8.137  0.0218 -0.4372 -0.2787
11179SOL    HW134115   4.228   0.108   8.198 -0.2578 -0.0862 -0.8158
11179SOL    HW234116   4.291  -0.030   8.192 -0.6130 -0.3001  0.1967
11180SOL     OW34117   5.076   7.238   8.554 -0.4026  0.7249  0.1312
11180SOL    HW134118   4.986   7.225   8.584  0.2812  0.4772  2.2477
11180SOL    HW234119   5.130   7.213   8.629  1.5074 -0.7480 -1.6127
11181SOL     OW34120   6.279   1.600   2.101 -1.1212 -0.3679  0.0546
11181SOL    HW134121   6.258   1.569   2.013  1.8859 -0.6155 -0.6699
11181SOL    HW234122   6.296   1.519   2.150  3.0203 -0.2145 -0.8305
11182SOL     OW34123   8.906   6.902   6.788  0.0240 -0.0136 -0.0684
11182SOL    HW134124   8.929   6.991   6.762 -1.0817  0.1312 -0.6424
11182SOL    HW234125   8.867   6.864   6.709 -0.5855 -0.6081  0.5034
11183SOL     OW34126   4.476   2.547   3.630 -0.1575  0.1190  0.4879
11183SOL    HW134127   4.451   2.638   3.614  1.8187  0.3935 -1.4319
11183SOL    HW234128   4.424   2.521   3.706 -0.8867  2.7828  0.9887
11184SOL     OW34129   7.981   8.636   2.183 -0.5163 -0.8152  0.0534
11184SOL    HW134130   7.937   8.705   2.133 -1.9671 -1.5284  0.2947
11184SOL    HW234131   8.069   8.670   2.199 -1.3894  1.2369  0.7152
11185SOL     OW34132   9.710   1.498   8.827 -0.2266 -0.1454  0.3684
11185SOL    HW134133   9.720   1.535   8.915 -1.6033  0.5072  0.2773
11185SOL    HW234134   9.719   1.403   8.840 -2.8613 -0.3169  1.6781
11186SOL     OW34135   7.689   6.974   1.054  0.3308  0.5102 -0.1149
11186SOL    HW134136   7.611   6.968   0.999 -0.4723 -0.0053  1.0393
11186SOL    HW234137   7.758   7.002   0.995 -0.0342 -1.9143 -1.8226
11187SOL     OW34138   5.117   2.753   0.431 -0.0913  0.2424  0.0887
11187SOL    HW134139   5.181   2.704   0.380 -0.5410 -0.8463  0.5229
11187SOL    HW234140   5.089   2.825   0.374 -0.3149 -0.7247 -1.0519
11188SOL     OW34141   9.791   9.242   3.246 -0.0327  0.3288  0.2800
11188SOL    HW134142   9.835   9.294   3.313  0.2654 -0.5006  0.7413
11188SOL    HW234143   9.861   9.215   3.187 -0.2113  0.5864 -0.0567
11189SOL     OW34144   8.831   1.124   5.504 -0.6325 -0.1414 -0.3939
11189SOL    HW134145   8.739   1.129   5.480 -0.3503 -0.8378 -1.6590
11189SOL    HW234146   8.848   1.031   5.516  0.0809 -0.0803 -0.8817
11190SOL     OW34147   6.603   8.784   3.078  0.1614  0.1283  0.4565
11190SOL    HW134148   6.523   8.760   3.125 -0.2323 -1.3875 -0.8916
11190SOL    HW234149   6.629   8.868   3.116  0.5002 -1.4456  4.1600
11191SOL     OW34150   4.920   8.429   8.679  0.5093  0.4034  0.0326
11191SOL    HW134151   4.991   8.494   8.677 -0.3679  1.3665 -1.2868
11191SOL    HW234152   4.856   8.466   8.740  0.6895  0.0173  0.4595
11192SOL     OW34153   4.839   1.021   3.036 -0.0637 -0.0886 -0.4740
11192SOL    HW134154   4.869   1.107   3.007  1.3653 -0.6876 -0.8542
11192SOL    HW234155   4.759   1.005   2.986 -0.3621  1.0106 -0.3787
11193SOL     OW34156   6.158   1.095   6.688  0.3056  0.1078 -0.7058
11193SOL    HW134157   6.096   1.164   6.661 -0.0187  1.0364  2.0615
11193SOL    HW234158   6.242   1.139   6.692  0.3195  0.0365 -0.1262
11194SOL     OW34159   2.328   5.246   0.486  0.1644  0.1569 -0.4670
11194SOL    HW134160   2.267   5.172   0.489  0.1951  0.0482 -1.7617
11194SOL    HW234161   2.398   5.222   0.545 -0.2544 -0.4560 -0.2092
11195SOL     OW34162   9.805   8.278   5.610  0.4151 -0.1926  0.0514
11195SOL    HW134163   9.754   8.316   5.681 -0.1960  1.9394 -1.4096
11195SOL    HW234164   9.793   8.184   5.618 -0.1636  0.0373  2.3411
11196SOL     OW34165   7.408   3.702   2.308  0.1974 -0.4445  0.0116
11196SOL    HW134166   7.323   3.735   2.335 -0.7312 -1.5939 -1.3312
11196SOL    HW234167   7.412   3.719   2.214 -0.3541 -3.9521 -0.7758
11197SOL     OW34168   7.514   7.032   0.877 -0.0230  0.1753 -0.6893
11197SOL    HW134169   7.441   6.971   0.861  0.8479 -0.5052 -2.3899
11197SOL    HW234170   7.564   7.030   0.796  2.7290 -0.5258  0.9046
11198SOL     OW34171   8.064   4.545   4.879 -0.1634  0.3321  0.3559
11198SOL    HW134172   8.022   4.460   4.869 -0.8190  0.6809  0.0916
11198SOL    HW234173   8.001   4.607   4.844  0.0642  0.9896  1.0875
11199SOL     OW34174   0.983   9.902   7.601 -0.6890 -1.0098 -0.1692
11199SOL    HW134175   0.982   9.831   7.664  0.2522 -0.5602  0.3659
11199SOL    HW234176   0.980   9.858   7.516 -0.0323 -1.6919  0.1489
11200SOL     OW34177   7.860   6.149   2.491  0.0089 -0.4824 -0.4685
11200SOL    HW134178   7.820   6.087   2.431  0.0733 -1.4050  0.4153
11200SOL    HW234179   7.919   6.201   2.437  0.3303 -1.5271 -1.1388
11201SOL     OW34180   4.386   6.443   3.884  0.0679 -0.2278  0.1503
11201SOL    HW134181   4.457   6.379   3.889 -0.1798 -0.4305  1.7588
11201SOL    HW234182   4.426   6.525   3.913 -0.3855 -0.3950  1.2957
11202SOL     OW34183   1.562   0.040   2.163  0.2994  0.3904  0.3554
11202SOL    HW134184   1.553  -0.042   2.211  0.7398  1.9422  3.3352
11202SOL    HW234185   1.575   0.107   2.231  0.8673  2.8248 -1.9531
11203SOL     OW34186   0.720   1.332   4.894  0.9209 -0.2017 -0.5101
11203SOL    HW134187   0.731   1.251   4.845  0.0376 -0.3301 -0.5145
11203SOL    HW234188   0.630   1.328   4.927  1.5198 -0.2090  1.2603
11204SOL     OW34189   1.110   5.302   5.403 -0.5761 -0.4464  0.0142
11204SOL    HW134190   1.150   5.225   5.363 -0.3128 -0.6038  0.5684
11204SOL    HW234191   1.016   5.282   5.404 -0.7938  0.2479 -1.9856
11205SOL     OW34192   8.455   5.918   2.962 -0.2764  0.5840  0.1442
11205SOL    HW134193   8.418   5.969   3.034 -0.9289  0.6193 -0.2100
11205SOL    HW234194   8.443   5.974   2.885  1.1704  0.8999  0.1321
11206SOL     OW34195   6.464   8.946   6.580 -0.5369 -0.1941  0.1727
11206SOL    HW134196   6.374   8.940   6.612 -1.2582 -0.0050 -1.7234
11206SOL    HW234197   6.511   8.877   6.627 -1.5694 -0.0662  1.4428
11207SOL     OW34198   1.028   6.534   5.053 -1.2375 -0.1523 -1.0323
11207SOL    HW134199   0.989   6.447   5.061 -1.4578 -0.2486 -2.8289
11207SOL    HW234200   1.120   6.517   5.032 -1.2987  0.0389 -1.4670
11208SOL     OW34201   4.225   5.666   5.217  0.4058  0.0700  0.6122
11208SOL    HW134202   4.258   5.630   5.135  0.7837 -1.3046  1.3477
11208SOL    HW234203   4.211   5.759   5.198 -0.1141 -0.3377 -1.1825
11209SOL     OW34204   4.173   3.964   9.754  0.1749 -0.1220  0.4908
11209SOL    HW134205   4.165   4.059   9.763 -0.2349  0.0645 -1.3497
11209SOL    HW234206   4.085   3.935   9.731 -0.1664 -1.2536  2.9841
11210SOL     OW34207   0.305   3.434   7.446 -0.4208  0.2705 -1.0153
11210SOL    HW134208   0.320   3.452   7.539 -0.7223  0.7612 -1.0606
11210SOL    HW234209   0.372   3.485   7.401  1.1374 -1.6096 -1.0017
11211SOL     OW34210   7.886   1.179   1.292  0.2481 -0.0712 -0.1205
11211SOL    HW134211   7.940   1.216   1.361  1.7652 -2.8983  0.3253
11211SOL    HW234212   7.799   1.171   1.331 -0.0389  2.3355 -0.0791
11212SOL     OW34213   2.935   7.893   9.421  0.1997  0.3989 -0.9755
11212SOL    HW134214   2.914   7.863   9.333 -1.3223 -0.4398 -0.3589
11212SOL    HW234215   2.979   7.977   9.407  1.3578 -0.4079 -2.5749
11213SOL     OW34216   2.817   8.085   7.265  0.0298  0.3396 -0.1148
11213SOL    HW134217   2.728   8.103   7.235 -1.0672 -2.4875  1.0810
11213SOL    HW234218   2.816   8.106   7.358  0.1276 -1.0469  0.2241
11214SOL     OW34219   9.829   5.027   5.085 -0.1672 -0.5474 -0.3649
11214SOL    HW134220   9.743   5.052   5.120 -0.5369  0.2036 -1.7191
11214SOL    HW234221   9.891   5.084   5.131 -0.5327 -0.2418 -0.2409
11215SOL     OW34222   6.069   2.884   3.073 -0.1420 -0.4900 -0.0418
11215SOL    HW134223   6.032   2.971   3.060  0.8833 -0.4032 -3.3031
11215SOL    HW234224   6.159   2.900   3.102  0.3369 -0.3755 -1.5127
11216SOL     OW34225   0.508   0.306   0.638  0.2378  0.1799  0.8497
11216SOL    HW134226   0.489   0.222   0.680  0.3046 -0.9523 -1.2751
11216SOL    HW234227   0.556   0.284   0.559 -0.5650  2.1417 -0.2667
11217SOL     OW34228   7.608   2.034   0.392 -0.0549 -0.7198 -0.7090
11217SOL    HW134229   7.648   1.967   0.448  0.2289 -1.9489 -2.2889
11217SOL    HW234230   7.567   2.095   0.453  0.1773 -2.0189  0.8273
11218SOL     OW34231   8.330   6.707   8.743 -0.2024  0.0606  0.3376
11218SOL    HW134232   8.371   6.766   8.806  0.3897 -0.8900  0.8746
11218SOL    HW234233   8.400   6.647   8.717 -0.4258  0.4592 -1.2799
11219SOL     OW34234   2.983   7.365   6.113 -0.3589 -0.2284 -0.2100
11219SOL    HW134235   3.063   7.348   6.063  1.6278  0.3938  2.5086
11219SOL    HW234236   2.971   7.286   6.166  0.6947  1.0388  2.0855
11220SOL     OW34237   7.947   4.287   0.714  0.0460  0.7180 -0.2480
11220SOL    HW134238   7.915   4.244   0.794  0.3757 -0.0126 -0.4985
11220SOL    HW234239   7.884   4.356   0.697 -0.8372 -0.0529 -0.1624
11221SOL     OW34240   0.178   8.134   1.898  0.2046 -0.2004 -0.0475
11221SOL    HW134241   0.207   8.220   1.870 -0.0554 -0.1917 -0.3014
11221SOL    HW234242   0.137   8.148   1.984  0.1069 -0.0611 -0.1170
11222SOL     OW34243   5.981   3.880   9.669  0.4579  0.1601  0.2041
11222SOL    HW134244   5.965   3.842   9.583  0.0604 -0.8391  0.6955
11222SOL    HW234245   5.906   3.938   9.685  1.8608  2.4993 -1.2316
11223SOL     OW34246   4.978   6.292   1.460 -0.2521 -0.0257 -0.2095
11223SOL    HW134247   4.894   6.338   1.466  0.2223  0.8180  0.1528
11223SOL    HW234248   4.957   6.209   1.419 -0.8986  1.1428 -2.3983
11224SOL     OW34249   9.828   4.768   1.106 -0.0930 -0.6852  0.7101
11224SOL    HW134250   9.870   4.818   1.036 -0.1637  0.4793  1.4860
11224SOL    HW234251   9.848   4.676   1.084  2.2820 -0.2363  0.6445
11225SOL     OW34252   6.521   6.777   2.156  0.0343 -0.3416 -0.4280
11225SOL    HW134253   6.519   6.717   2.231  2.2555 -0.9130 -0.7721
11225SOL    HW234254   6.546   6.722   2.082 -1.5591  0.3342 -1.5275
11226SOL     OW34255   4.412   9.422   2.656  0.6001 -0.6108 -0.0246
11226SOL    HW134256   4.381   9.500   2.701  0.0108 -0.0608 -1.3269
11226SOL    HW234257   4.409   9.445   2.563  0.0798 -2.2917 -0.4622
11227SOL     OW34258   5.668   9.898   0.708  0.1701  0.0737  0.4335
11227SOL    HW134259   5.669   9.946   0.791 -0.1820 -0.7585  0.9353
11227SOL    HW234260   5.581   9.859   0.704  0.2022  0.0698 -0.3093
11228SOL     OW34261   0.854   4.576   1.241 -0.2168 -0.1897  0.4891
11228SOL    HW134262   0.765   4.603   1.266  0.6321  2.1277  1.2627
11228SOL    HW234263   0.903   4.576   1.323  0.5017 -1.5462  0.0834
11229SOL     OW34264   5.364   1.710   6.595 -0.2701  0.7059  0.1738
11229SOL    HW134265   5.288   1.701   6.538 -0.3850 -1.0787  0.5600
11229SOL    HW234266   5.378   1.623   6.631  1.4436  1.1890  0.7850
11230SOL     OW34267   5.714   6.348   8.601  0.1108  0.1809 -0.1867
11230SOL    HW134268   5.720   6.269   8.548 -1.4470  0.0014 -0.1575
11230SOL    HW234269   5.640   6.396   8.564 -2.4937 -0.9590  3.0109
11231SOL     OW34270   3.891   6.629   3.772  0.1412 -0.8020 -0.2214
11231SOL    HW134271   3.874   6.561   3.707 -0.9479 -0.9993  0.2580
11231SOL    HW234272   3.970   6.600   3.817 -1.3463 -2.7715  1.2665
11232SOL     OW34273   7.119   4.874   0.613  0.3957  0.8022  0.1351
11232SOL    HW134274   7.170   4.905   0.689 -0.6826 -1.4456  1.8962
11232SOL    HW234275   7.172   4.804   0.576 -1.1603 -1.4429  1.8818
11233SOL     OW34276   9.930   8.894   3.366  0.3076  0.1359 -0.1195
11233SOL    HW134277   9.892   8.894   3.278 -0.2120  0.8545  0.0937
11233SOL    HW234278   9.964   8.806   3.378 -3.1593 -1.2767  0.4796
11234SOL     OW34279   0.094   2.233   8.247 -0.1936 -0.5802 -0.3420
11234SOL    HW134280   0.139   2.195   8.171  0.1738 -1.9062  0.5039
11234SOL    HW234281   0.116   2.174   8.319 -1.2806  0.1479  0.6084
11235SOL     OW34282   4.808   8.913   1.251  0.1284  0.2199 -0.2337
11235SOL    HW134283   4.884   8.855   1.247  1.0356  1.3587 -0.0233
11235SOL    HW234284   4.840   8.992   1.294 -1.9149 -0.3842  2.7379
11236SOL     OW34285   3.178   0.055   4.628 -0.3169  0.5565 -0.2136
11236SOL    HW134286   3.162  -0.031   4.666  0.6720  0.2165 -0.5343
11236SOL    HW234287   3.143   0.048   4.539  0.0521  0.3729 -0.3474
11237SOL     OW34288   9.717   3.538   5.145 -0.5682 -0.7804 -0.3705
11237SOL    HW134289   9.672   3.546   5.061  1.4364  3.1790 -1.3368
11237SOL    HW234290   9.649   3.552   5.211 -1.5376  0.5150 -1.5822
11238SOL     OW34291   4.838   6.817   6.291 -0.3237 -0.1089 -0.4285
11238SOL    HW134292   4.923   6.859   6.274 -0.0423 -0.6049 -0.2734
11238SOL    HW234293   4.836   6.805   6.386  1.7727 -4.7950 -0.7083
11239SOL     OW34294   4.470   9.543   7.716 -0.4956  0.4351  0.2800
11239SOL    HW134295   4.461   9.573   7.625 -0.9572 -0.8074 -0.1003
11239SOL    HW234296   4.382   9.517   7.742 -0.2657  0.2648  0.9001
11240SOL     OW34297   1.161   8.882   0.232  0.1765  0.4179  0.1139
11240SOL    HW134298   1.204   8.840   0.158 -1.2061  0.6356 -0.8448
11240SOL    HW234299   1.072   8.846   0.233  0.0843  0.6194  1.5091
11241SOL     OW34300   5.785   0.472   9.890 -0.2169  0.1265  0.0511
11241SOL    HW134301   5.816   0.382   9.902  1.3563  0.8552  1.8220
11241SOL    HW234302   5.765   0.502   9.978 -0.8127  1.5127 -0.5287
11242SOL     OW34303   9.291   0.838   4.901  0.5316  0.0215 -0.1653
11242SOL    HW134304   9.291   0.766   4.965 -0.7402  0.7676  0.7163
11242SOL    HW234305   9.350   0.903   4.939  0.9424 -0.1545 -0.4985
11243SOL     OW34306   5.409   6.847   4.999  0.1027  0.1056  0.1229
11243SOL    HW134307   5.361   6.925   5.027 -1.6008 -0.7176 -0.3539
11243SOL    HW234308   5.359   6.774   5.036  3.0882 -0.7880  2.7832
11244SOL     OW34309   2.232   8.960   4.917  0.0243 -0.1222 -0.1704
11244SOL    HW134310   2.159   9.013   4.951  0.9392  0.6364  0.6644
11244SOL    HW234311   2.303   9.023   4.904  1.3551 -1.2180  1.4358
11245SOL     OW34312   6.924   8.667   4.942 -0.6466 -0.5559 -0.6124
11245SOL    HW134313   6.861   8.689   4.873  1.1681  1.4287 -1.7571
11245SOL    HW234314   6.998   8.628   4.896  0.4228  0.4002  0.2315
11246SOL     OW34315   3.866   4.873   7.780 -0.5297 -0.2856  0.1458
11246SOL    HW134316   3.941   4.818   7.763 -0.7962 -1.3687  2.1650
11246SOL    HW234317   3.878   4.949   7.723  1.2397 -1.1623 -0.7151
11247SOL     OW34318   8.355   6.526   2.590  0.4457 -0.6988  0.2792
11247SOL    HW134319   8.347   6.562   2.678  1.4964 -1.2642  0.6282
11247SOL    HW234320   8.334   6.433   2.600  0.1909 -0.6903 -0.1430
11248SOL     OW34321   6.113   4.351   9.493  0.2013  0.2159  0.0095
11248SOL    HW134322   6.148   4.281   9.437  0.1527 -0.0915  0.3589
11248SOL    HW234323   6.160   4.430   9.466 -2.6625  1.0183 -3.4383
11249SOL     OW34324   9.014   9.223   4.415 -0.2792  0.0322  0.1369
11249SOL    HW134325   9.040   9.314   4.400  0.5871 -0.4763 -1.7201
11249SOL    HW234326   9.080   9.189   4.476  0.6043  0.1187 -0.7415
11250SOL     OW34327   4.311   8.543   8.514  0.1204 -0.0653  0.3728
11250SOL    HW134328   4.360   8.544   8.431 -0.1570 -0.3901  0.1997
11250SOL    HW234329   4.239   8.604   8.500 -0.3159 -0.6206  0.1232
11251SOL     OW34330   5.472   9.423   7.957 -0.1104  0.7329  0.5645
11251SOL    HW134331   5.496   9.365   8.029  2.3763  1.7411  0.6509
11251SOL    HW234332   5.392   9.385   7.921 -0.7840 -0.4664  3.0777
11252SOL     OW34333   2.677   8.267   1.602  0.2577  0.0891  0.1737
11252SOL    HW134334   2.714   8.178   1.599  0.1079  0.0325  0.0023
11252SOL    HW234335   2.754   8.324   1.601  0.4584 -0.0577  2.2989
11253SOL     OW34336   6.638   1.721   6.045  0.2465 -0.2426 -0.0953
11253SOL    HW134337   6.649   1.725   5.950  3.3901 -0.2830  0.1552
11253SOL    HW234338   6.662   1.631   6.069  2.6866  0.6065  0.9538
11254SOL     OW34339   7.552   0.846   1.438 -0.1996 -0.9811 -0.5210
11254SOL    HW134340   7.556   0.788   1.514  1.1426 -0.1467  0.0873
11254SOL    HW234341   7.629   0.822   1.386  0.3578  0.2054 -0.2717
11255SOL     OW34342   9.597   7.770   0.490 -0.5821 -0.0828  0.4761
11255SOL    HW134343   9.642   7.695   0.451 -0.1939 -0.1255  0.9944
11255SOL    HW234344   9.631   7.775   0.579 -0.3396  0.9129  0.3502
11256SOL     OW34345   6.183   6.833   5.564  0.2463  0.0663  0.0281
11256SOL    HW134346   6.097   6.836   5.606 -0.8372 -1.0879 -1.9829
11256SOL    HW234347   6.242   6.807   5.635 -1.1351  0.2627  1.3177
11257SOL     OW34348   7.945   8.350   7.039  0.3349  0.3826 -0.5047
11257SOL    HW134349   8.011   8.284   7.057 -1.5760 -1.2997  0.8678
11257SOL    HW234350   7.933   8.396   7.122  0.8059  1.7015 -1.1406
11258SOL     OW34351   5.328   9.018   4.680  0.5519 -0.4766 -0.5381
11258SOL    HW134352   5.289   9.099   4.647  1.0889  0.2331  0.5253
11258SOL    HW234353   5.410   9.010   4.631  1.4035  0.6361  0.6334
11259SOL     OW34354   3.195   8.522   7.056  0.2556 -0.0332  0.4522
11259SOL    HW134355   3.210   8.461   6.983  0.4122  0.5015  0.0250
11259SOL    HW234356   3.161   8.467   7.127 -0.8462 -0.4213 -0.3416
11260SOL     OW34357   3.776   4.648   4.678  0.4452  0.0017  0.2375
11260SOL    HW134358   3.861   4.674   4.712  0.6631 -1.7650  1.1510
11260SOL    HW234359   3.742   4.587   4.743 -1.6224  0.8098 -0.0093
11261SOL     OW34360   2.223   2.415   5.833 -0.0954 -0.1129  0.0563
11261SOL    HW134361   2.218   2.402   5.738 -1.2281 -2.9772  0.4141
11261SOL    HW234362   2.139   2.383   5.866 -0.1677  1.8346  1.9916
11262SOL     OW34363   1.736   1.445   5.112 -0.0507 -0.0179  0.3909
11262SOL    HW134364   1.719   1.411   5.024  0.8492 -0.6864  0.4597
11262SOL    HW234365   1.727   1.369   5.169 -0.6264  0.4136  0.8810
11263SOL     OW34366   9.240   8.239   8.788 -0.0492 -0.0979  0.1383
11263SOL    HW134367   9.204   8.205   8.706  0.6559 -0.6581  0.0531
11263SOL    HW234368   9.282   8.321   8.764 -0.7944  0.2920  0.1417
11264SOL     OW34369   4.448   4.514   4.910  0.3300  0.3332 -0.1484
11264SOL    HW134370   4.411   4.451   4.848  0.0193  1.4657 -1.1527
11264SOL    HW234371   4.379   4.579   4.922  0.9079  0.8737  0.2982
11265SOL     OW34372   1.340   6.238   6.550  0.0483  0.3203  0.1894
11265SOL    HW134373   1.401   6.251   6.622  1.8943 -0.4630 -1.1195
11265SOL    HW234374   1.392   6.193   6.483 -1.3413  1.6246 -1.9137
11266SOL     OW34375   1.395   7.250   9.475 -0.4077  0.2000 -0.5822
11266SOL    HW134376   1.473   7.306   9.479  0.0304 -0.2310 -2.1295
11266SOL    HW234377   1.428   7.163   9.496 -0.3088 -0.1000 -1.9004
11267SOL     OW34378   8.978   1.800   4.971 -0.0334  0.2952  0.3069
11267SOL    HW134379   9.016   1.734   5.029  0.8932  1.3470  0.9547
11267SOL    HW234380   8.915   1.847   5.027 -0.3323  0.2662 -0.0064
11268SOL     OW34381   7.977   1.000   5.869 -0.0115 -0.1766 -0.0117
11268SOL    HW134382   7.979   0.976   5.776  0.7672 -1.0058  0.2051
11268SOL    HW234383   7.941   0.923   5.913  1.7248 -0.6917  0.5994
11269SOL     OW34384   3.623   6.640   9.170 -0.0572 -0.1268 -0.3444
11269SOL    HW134385   3.567   6.567   9.197  1.0699 -0.7591  0.3725
11269SOL    HW234386   3.695   6.599   9.123 -0.6276  0.7561 -2.0861
11270SOL     OW34387   7.436   7.847   3.173 -0.1811 -0.4424 -0.1918
11270SOL    HW134388   7.420   7.894   3.091 -1.4926 -0.5432 -0.0250
11270SOL    HW234389   7.453   7.757   3.146  0.6390 -0.2256 -0.4159
11271SOL     OW34390   0.474   9.468   8.088  0.1131  0.0105  0.1014
11271SOL    HW134391   0.422   9.511   8.155  1.0959  1.3812  0.0271
11271SOL    HW234392   0.415   9.403   8.049 -0.6848 -0.3093  1.7835
11272SOL     OW34393   7.343   3.649   7.645  0.3906  0.3382  0.3505
11272SOL    HW134394   7.354   3.743   7.636  0.2667  0.4934  1.5839
11272SOL    HW234395   7.269   3.628   7.587 -0.0202  1.1169  0.5719
11273SOL     OW34396   1.153   0.169   5.841 -0.3819  0.3623  0.3135
11273SOL    HW134397   1.084   0.113   5.875 -0.3353  0.2911  0.2916
11273SOL    HW234398   1.107   0.243   5.801 -0.6756 -1.5912 -3.3341
11274SOL     OW34399   6.647   9.729   0.848 -0.3409 -0.1317 -0.3284
11274SOL    HW134400   6.659   9.766   0.761 -2.2301 -0.6906 -0.8803
11274SOL    HW234401   6.564   9.766   0.878  0.0740 -0.2912  1.0625
11275SOL     OW34402   5.139   1.049   4.014  0.1270  0.1141 -0.3582
11275SOL    HW134403   5.213   0.994   3.988  0.4811  0.7558 -0.7413
11275SOL    HW234404   5.086   0.993   4.070  3.5592  1.0986  4.4664
11276SOL     OW34405   0.649   0.019   3.989 -0.2285  0.0990  0.8494
11276SOL    HW134406   0.601   0.100   3.973 -0.1776  0.3470  1.8667
11276SOL    HW234407   0.670   0.022   4.083  0.3228 -0.7906  0.7654
11277SOL     OW34408   4.888   0.713   2.884  0.4628  0.2231 -0.8005
11277SOL    HW134409   4.922   0.624   2.898  1.0737  0.6230  0.3608
11277SOL    HW234410   4.862   0.743   2.971  0.2778  1.1884 -1.1767
11278SOL     OW34411   6.163   6.306   6.694 -0.1026 -0.0264  0.5382
11278SOL    HW134412   6.134   6.327   6.605 -0.9294 -0.1630  0.7615
11278SOL    HW234413   6.148   6.212   6.703  1.2610 -0.2735  0.3737
11279SOL     OW34414   7.097   3.972   0.794 -0.3512 -0.1318 -0.2676
11279SOL    HW134415   7.129   3.981   0.704 -0.7446  1.6049 -0.2825
11279SOL    HW234416   7.038   3.897   0.792  1.4593 -1.5975 -0.8879
11280SOL     OW34417   7.253   3.015   2.823  0.0999  0.3300 -0.3844
11280SOL    HW134418   7.241   3.082   2.890  0.0737  0.2152 -0.2766
11280SOL    HW234419   7.167   3.004   2.784 -0.2158 -0.6851  0.5661
11281SOL     OW34420   4.545   7.721   7.206  0.1782  0.8389  0.0183
11281SOL    HW134421   4.617   7.684   7.256 -0.5384 -2.1588 -0.9936
11281SOL    HW234422   4.504   7.646   7.162 -3.0030  2.5105 -0.1694
11282SOL     OW34423   8.476   0.944   3.556  0.3105 -0.1175  0.3683
11282SOL    HW134424   8.519   1.028   3.570  0.1489 -0.0081  0.2078
11282SOL    HW234425   8.490   0.896   3.637 -1.8333  1.0282  1.5048
11283SOL     OW34426   5.415   1.297   1.899 -0.2456  0.1929 -0.6346
11283SOL    HW134427   5.351   1.230   1.880  1.1828 -1.4115 -0.0546
11283SOL    HW234428   5.398   1.321   1.990 -1.4083  1.4240 -1.1379
11284SOL     OW34429   4.469   0.357   6.636 -0.4910 -0.1219  0.0871
11284SOL    HW134430   4.555   0.321   6.661 -0.2901  0.5082  0.3218
11284SOL    HW234431   4.443   0.411   6.711 -1.1972 -0.4816  0.1100
11285SOL     OW34432   9.616   1.851   1.821  0.4742  0.6136 -0.2112
11285SOL    HW134433   9.674   1.888   1.754  1.6654  1.3659  1.1687
11285SOL    HW234434   9.577   1.927   1.863  0.1373  0.1729  0.2781
11286SOL     OW34435   3.407   5.768   5.153  0.3025  0.3324  0.0184
11286SOL    HW134436   3.495   5.806   5.144 -0.0888  1.7000  1.5127
11286SOL    HW234437   3.352   5.821   5.095  0.4955 -0.7834 -1.2317
11287SOL     OW34438   0.544   5.104   0.630  0.0533  0.4034 -0.0671
11287SOL    HW134439   0.495   5.031   0.591 -1.8031  0.9090  1.1984
11287SOL    HW234440   0.626   5.065   0.659 -0.7696 -1.1201  0.3080
11288SOL     OW34441   9.968   9.921   4.336  0.1204  0.0243 -0.2696
11288SOL    HW134442  10.043   9.872   4.371  0.5595  1.1465  0.3868
11288SOL    HW234443   9.917   9.946   4.413 -0.4525  0.0530 -0.6502
11289SOL     OW34444   5.127   3.618   3.822 -0.3731  0.5395 -0.3422
11289SOL    HW134445   5.125   3.528   3.792 -0.1894  0.5319 -0.3335
11289SOL    HW234446   5.202   3.657   3.778 -2.8654  1.9197 -3.7956
11290SOL     OW34447   4.895   0.012   1.635 -0.2700  0.2798  0.3068
11290SOL    HW134448   4.855   0.005   1.549  1.1774  1.0393 -0.4580
11290SOL    HW234449   4.984   0.041   1.618 -0.5219  2.3728  2.1616
11291SOL     OW34450   0.992   9.938   9.886 -0.2794 -0.1158 -0.5840
11291SOL    HW134451   0.983   9.849   9.855  0.2992  0.0740 -1.3322
11291SOL    HW234452   1.041   9.930   9.968 -3.2282 -0.7617  1.2775
11292SOL     OW34453   0.312   2.257   8.022 -0.2362 -0.0834  0.5182
11292SOL    HW134454   0.287   2.311   7.946 -0.1513  0.1690  0.6712
11292SOL    HW234455   0.330   2.171   7.984 -1.0019 -0.1800  0.3531
11293SOL     OW34456   2.318   3.667   5.915  0.5552 -0.4755 -0.3450
11293SOL    HW134457   2.274   3.750   5.928  0.5370 -0.7245  1.5135
11293SOL    HW234458   2.410   3.685   5.936  0.5209 -0.9475  0.2434
11294SOL     OW34459   0.799   4.737   4.387 -0.4738 -0.1927 -0.1821
11294SOL    HW134460   0.806   4.831   4.406  2.0657 -0.5760  1.2168
11294SOL    HW234461   0.722   4.709   4.437  0.4544  0.6710  1.8971
11295SOL     OW34462   1.668   4.603   1.945 -0.2829 -0.6909 -0.1707
11295SOL    HW134463   1.615   4.619   1.867 -0.5225 -1.0849 -0.0896
11295SOL    HW234464   1.627   4.657   2.013  2.7580  3.6469 -1.3823
11296SOL     OW34465   7.746   4.022   5.999  0.0061  0.0742 -0.0880
11296SOL    HW134466   7.804   4.094   6.024 -1.4996  1.6262 -0.8382
11296SOL    HW234467   7.757   3.957   6.069  4.1152 -0.7072 -1.1647
11297SOL     OW34468   5.197   4.065   4.058  0.0619  0.1870 -0.1350
11297SOL    HW134469   5.223   4.000   4.124 -0.8511  1.1736  1.2418
11297SOL    HW234470   5.139   4.125   4.105 -0.4555  1.0417 -1.8027
11298SOL     OW34471   3.320   9.732   0.879  0.2750  0.0860  0.0699
11298SOL    HW134472   3.273   9.729   0.796 -0.8775  1.1696  0.6518
11298SOL    HW234473   3.250   9.732   0.945  1.1286  0.7183  0.9901
11299SOL     OW34474   3.673   7.046   9.579 -0.7566 -0.1727  0.3646
11299SOL    HW134475   3.623   7.077   9.655 -1.0639 -0.8583  0.4428
11299SOL    HW234476   3.659   6.952   9.578 -0.9292 -0.1476 -0.6697
11300SOL     OW34477   4.223   3.753   9.922  0.2130 -0.4316  0.0073
11300SOL    HW134478   4.199   3.824   9.862  1.2524 -1.1308 -1.3084
11300SOL    HW234479   4.141   3.708   9.939 -0.8413  2.0622  2.3475
11301SOL     OW34480   7.982   1.379   7.549 -0.0579  0.2118 -0.5766
11301SOL    HW134481   8.032   1.343   7.476  0.3591  0.5167 -0.4478
11301SOL    HW234482   8.048   1.421   7.604 -0.2414 -0.8660  0.4939
11302SOL     OW34483   2.681   4.543   8.460  0.3602 -0.2292 -0.1002
11302SOL    HW134484   2.692   4.621   8.515  0.6717  0.1563 -0.6931
11302SOL    HW234485   2.751   4.484   8.488 -1.0330 -1.1077  1.6685
11303SOL     OW34486   6.619   7.751   2.875 -0.0691 -0.5465 -0.2045
11303SOL    HW134487   6.593   7.823   2.817 -1.6563  0.2909  1.4481
11303SOL    HW234488   6.536   7.721   2.914  1.0782  0.5031  3.4032
11304SOL     OW34489   5.027   2.885   3.145  0.3857  0.4021 -0.2398
11304SOL    HW134490   5.089   2.824   3.107 -0.7780 -0.4001 -0.9311
11304SOL    HW234491   5.069   2.971   3.137  1.5175 -0.1508 -0.3870
11305SOL     OW34492   8.205   7.039   4.413 -0.1678 -0.0053 -0.3277
11305SOL    HW134493   8.110   7.024   4.406  0.0521 -0.8853 -1.8230
11305SOL    HW234494   8.220   7.120   4.364 -0.3332  1.0541  1.3009
11306SOL     OW34495   4.598   4.022   2.197  0.3390 -0.1257 -0.4786
11306SOL    HW134496   4.593   3.927   2.209  0.7417 -0.1515 -0.5057
11306SOL    HW234497   4.672   4.035   2.138  1.6449  0.3289  1.1757
11307SOL     OW34498   3.961   9.358   4.159  0.2028 -0.1896  0.6195
11307SOL    HW134499   3.937   9.266   4.147 -0.0748 -0.0014 -0.3605
11307SOL    HW234500   4.037   9.355   4.217 -0.3169 -0.9817  1.2921
11308SOL     OW34501   6.263   1.561   6.051  0.3837  0.2610 -0.2628
11308SOL    HW134502   6.176   1.525   6.035  0.8241 -0.2766 -1.6576
11308SOL    HW234503   6.250   1.655   6.055 -0.0125  0.3943 -2.7906
11309SOL     OW34504   4.726   8.118   5.918 -0.2564 -0.2838 -0.5832
11309SOL    HW134505   4.746   8.025   5.933  0.9834  0.0321 -0.1597
11309SOL    HW234506   4.749   8.132   5.826 -1.2521 -0.5876 -0.8857
11310SOL     OW34507   7.138   4.077   6.465  0.9691 -0.0154 -0.3608
11310SOL    HW134508   7.232   4.059   6.467  0.7386 -1.4094 -0.4643
11310SOL    HW234509   7.098   3.990   6.467 -0.2961  0.5085 -1.5705
11311SOL     OW34510   5.584   3.671   6.498  0.3383  0.1770 -0.3661
11311SOL    HW134511   5.552   3.585   6.524  1.9154 -0.2965  0.1289
11311SOL    HW234512   5.508   3.729   6.510 -0.2475 -0.8125  1.0680
11312SOL     OW34513   8.206   8.083   8.344  0.2142 -0.3267 -0.0325
11312SOL    HW134514   8.263   8.156   8.367 -2.2549  1.4441  1.0377
11312SOL    HW234515   8.164   8.109   8.262 -2.2108  0.5797  1.3717
11313SOL     OW34516   9.583   9.397   2.274 -0.0538 -0.2989  0.0298
11313SOL    HW134517   9.503   9.359   2.309 -0.9193  1.0367 -0.4361
11313SOL    HW234518   9.592   9.481   2.320  0.8774 -0.2690 -0.1836
11314SOL     OW34519   5.970   3.075   4.666  0.3659 -0.1224 -0.2543
11314SOL    HW134520   5.979   3.162   4.628 -1.0965 -0.1494 -0.7049
11314SOL    HW234521   5.911   3.087   4.740 -0.7828 -0.9140 -1.0159
11315SOL     OW34522   6.814   0.897   5.583 -0.3456 -0.4686 -0.3735
11315SOL    HW134523   6.722   0.893   5.611 -0.2524 -1.8627 -0.2050
11315SOL    HW234524   6.827   0.817   5.532  0.4307  0.3549 -1.4969
11316SOL     OW34525   1.033   8.614   8.824 -0.1432 -0.3120 -0.6061
11316SOL    HW134526   0.999   8.636   8.737 -0.6582 -0.8357 -0.5481
11316SOL    HW234527   1.126   8.633   8.819 -0.0480 -0.9659 -1.4860
11317SOL     OW34528   9.727   0.595   5.757 -0.2744 -0.0992 -0.1482
11317SOL    HW134529   9.658   0.651   5.721 -0.4517 -0.8479 -1.0185
11317SOL    HW234530   9.685   0.545   5.827 -0.8271 -1.0391 -1.1137
11318SOL     OW34531   7.743   7.827   5.166 -0.2730  0.1770  0.4495
11318SOL    HW134532   7.688   7.904   5.156 -0.2941  0.1541  0.3895
11318SOL    HW234533   7.761   7.798   5.077  2.5475  2.0845  0.2716
11319SOL     OW34534   9.343   3.209   2.224 -0.1849 -0.5990 -0.1117
11319SOL    HW134535   9.335   3.182   2.133  0.7579 -2.3280  0.2574
11319SOL    HW234536   9.262   3.257   2.243 -0.7088 -0.8357 -1.6454
11320SOL     OW34537   3.336   6.075   6.371 -0.3163 -0.0652 -0.2692
11320SOL    HW134538   3.425   6.110   6.365 -0.1064 -0.5401  0.0214
11320SOL    HW234539   3.345   5.981   6.357 -1.0733  0.1512 -2.6885
11321SOL     OW34540   8.631   2.227   8.008  0.1537  0.2626 -0.0228
11321SOL    HW134541   8.721   2.258   7.998 -0.6470  2.8073  0.0586
11321SOL    HW234542   8.583   2.267   7.936 -1.0759 -0.4818  0.3419
11322SOL     OW34543   7.318   5.499   4.704 -0.2705 -0.3655 -0.0585
11322SOL    HW134544   7.242   5.536   4.660 -1.1771 -1.2502  0.7095
11322SOL    HW234545   7.300   5.405   4.709  0.6752 -0.5361  0.5166
11323SOL     OW34546   1.962   1.140   1.380  0.4312  0.3321  0.1515
11323SOL    HW134547   1.944   1.213   1.320 -0.6067 -0.3211 -0.3572
11323SOL    HW234548   2.042   1.100   1.344  0.7280  0.9115  0.1500
11324SOL     OW34549   8.215   6.765   0.149 -0.3423  0.1288  0.3589
11324SOL    HW134550   8.278   6.757   0.220 -2.1701  1.1116  2.1880
11324SOL    HW234551   8.260   6.817   0.083  0.7654  0.8338  1.6198
11325SOL     OW34552   7.915   1.170   4.105  0.5923 -0.2083 -0.1812
11325SOL    HW134553   7.934   1.107   4.174 -1.1057  0.4414  0.9572
11325SOL    HW234554   7.953   1.132   4.026  1.6145 -1.5160  0.8990
11326SOL     OW34555   0.417   0.429   2.881  0.8168  0.6276 -0.3286
11326SOL    HW134556   0.469   0.509   2.877  0.7643  0.7545  1.0947
11326SOL    HW234557   0.441   0.388   2.964 -0.2872 -0.0566 -0.3143
11327SOL     OW34558   6.052   3.440   7.042 -0.2141 -0.3135  0.5876
11327SOL    HW134559   6.046   3.498   7.117  0.7156  0.0444  0.4071
11327SOL    HW234560   5.963   3.433   7.009 -0.5101  0.1083  1.2824
11328SOL     OW34561   5.704   2.817   9.878  0.3806  0.2541  0.5229
11328SOL    HW134562   5.648   2.795   9.804 -0.0357 -0.7230  1.1018
11328SOL    HW234563   5.695   2.742   9.938  1.8484  0.3444  0.8991
11329SOL     OW34564   4.560   6.322   6.266 -0.2496 -0.3804 -0.2193
11329SOL    HW134565   4.554   6.320   6.171 -0.1866  1.3277 -0.2891
11329SOL    HW234566   4.474   6.352   6.295  0.4144  1.3671  0.0933
11330SOL     OW34567   3.415   0.104   2.623 -0.0368 -0.7548  0.3702
11330SOL    HW134568   3.474   0.146   2.560 -0.6579  1.4970  1.2016
11330SOL    HW234569   3.338   0.079   2.572 -1.0237  2.0724  0.3214
11331SOL     OW34570   3.363   1.337   6.166  0.0382 -0.3654  0.4906
11331SOL    HW134571   3.302   1.283   6.216  1.0217 -1.3330  0.7046
11331SOL    HW234572   3.309   1.404   6.125 -0.7845  0.5454  2.9272
11332SOL     OW34573   7.887   2.687   7.624  0.1495 -0.2302  0.6657
11332SOL    HW134574   7.953   2.620   7.603  0.2880  0.1666 -0.2531
11332SOL    HW234575   7.938   2.763   7.652 -0.0054 -0.4944  1.6743
11333SOL     OW34576   6.934   7.929   9.062  0.2136  0.2084 -0.3291
11333SOL    HW134577   6.841   7.906   9.068  0.3105  0.0826  1.2355
11333SOL    HW234578   6.971   7.900   9.146  1.0983  2.6857  0.2200
11334SOL     OW34579   2.357   7.944   3.286  0.2665 -0.1577 -0.4372
11334SOL    HW134580   2.334   8.036   3.279  1.4919  0.0797 -1.7892
11334SOL    HW234581   2.274   7.900   3.308 -0.4060  1.1993 -0.1722
11335SOL     OW34582   5.737   6.179   3.053  0.0156  0.4718  0.7543
11335SOL    HW134583   5.755   6.259   3.101  0.1462  0.5253  0.6152
11335SOL    HW234584   5.643   6.183   3.033 -0.0162  0.4990  0.9117
11336SOL     OW34585   9.412   7.596   5.680 -0.3339  0.5459 -0.3479
11336SOL    HW134586   9.442   7.611   5.591  0.1939  0.2564 -0.2293
11336SOL    HW234587   9.319   7.617   5.679  0.0249  2.2777 -0.5407
11337SOL     OW34588   8.984   2.311   9.351  0.4668 -0.2451  0.2027
11337SOL    HW134589   8.901   2.354   9.330  1.0441 -0.0786 -1.9710
11337SOL    HW234590   9.031   2.374   9.404  0.2801  0.8015 -0.8420
11338SOL     OW34591   3.445   2.237   1.805 -0.1177  0.1949 -0.3680
11338SOL    HW134592   3.432   2.169   1.739 -0.8434  0.5647 -0.6097
11338SOL    HW234593   3.360   2.280   1.813  0.3784  1.2093 -0.3601
11339SOL     OW34594   9.369   2.438   0.775  0.4956  0.1066  0.4177
11339SOL    HW134595   9.402   2.519   0.814  0.8572  0.2940 -0.2589
11339SOL    HW234596   9.437   2.412   0.713 -0.1186 -0.1187 -0.1674
11340SOL     OW34597   1.189   5.000   0.788 -0.0819  0.4237  0.2352
11340SOL    HW134598   1.243   5.078   0.805 -0.8824  0.9997  0.1680
11340SOL    HW234599   1.248   4.941   0.741  0.1302  1.5994 -1.0700
11341SOL     OW34600   6.664   0.673   3.337  0.0984 -0.3089 -0.5076
11341SOL    HW134601   6.729   0.663   3.407  0.6312 -2.1335 -1.2064
11341SOL    HW234602   6.630   0.761   3.349  1.6641  0.1765  0.7756
11342SOL     OW34603   6.303   8.201   5.665 -0.0726 -0.6120  0.3432
11342SOL    HW134604   6.250   8.162   5.735  0.4707 -1.4459  0.3094
11342SOL    HW234605   6.319   8.129   5.604  1.3656 -0.4906  0.5282
11343SOL     OW34606   9.634   7.844   4.551  0.1243 -0.3135 -0.0283
11343SOL    HW134607   9.704   7.787   4.521  2.1142  1.6561  0.5913
11343SOL    HW234608   9.569   7.840   4.481  0.2959 -2.9993 -0.1450
11344SOL     OW34609   0.439   3.137   8.080  0.2194  0.1089  0.0539
11344SOL    HW134610   0.359   3.188   8.067  1.2672  1.9675  0.5623
11344SOL    HW234611   0.429   3.100   8.168  0.0500  0.5983  0.2467
11345SOL     OW34612   7.272   7.279   8.558 -0.1501  0.5198 -0.0437
11345SOL    HW134613   7.331   7.318   8.623 -1.8357  1.1708  1.1737
11345SOL    HW234614   7.307   7.191   8.544  0.7927  0.6961  1.0543
11346SOL     OW34615   6.569   3.101   3.347 -0.1155  0.1718 -1.0426
11346SOL    HW134616   6.479   3.118   3.375  0.5771  1.6886  0.4154
11346SOL    HW234617   6.585   3.165   3.279  0.1851  0.5766 -0.5915
11347SOL     OW34618   1.073   8.017   1.862 -0.1997  0.0360  0.3881
11347SOL    HW134619   1.043   8.035   1.773 -1.6151 -0.4794  0.7448
11347SOL    HW234620   1.142   8.081   1.877 -0.7833  0.9350 -0.6392
11348SOL     OW34621   3.285   2.304   4.393  0.2415 -0.1035  0.1662
11348SOL    HW134622   3.298   2.228   4.450  0.5862 -0.5522 -0.4882
11348SOL    HW234623   3.373   2.338   4.378  0.3076 -0.7952 -1.1530
11349SOL     OW34624   9.283   6.518   2.411  0.0952 -0.0543 -0.6320
11349SOL    HW134625   9.308   6.447   2.470 -0.9187 -1.3139 -1.6530
11349SOL    HW234626   9.279   6.596   2.467 -1.0915 -1.2397  1.0220
11350SOL     OW34627   9.459   8.124   8.921 -0.2724 -0.9244  1.1084
11350SOL    HW134628   9.495   8.076   8.846 -1.4679  1.4801 -1.1996
11350SOL    HW234629   9.376   8.161   8.888  0.7170  2.9949  2.3917
11351SOL     OW34630   8.923   2.294   4.018 -0.2483  0.8098  0.2163
11351SOL    HW134631   8.934   2.280   3.924 -2.9562  0.9424 -0.2130
11351SOL    HW234632   8.928   2.207   4.057  0.1222  0.6697 -0.1368
11352SOL     OW34633   4.974   7.047   3.133 -0.1015 -0.4445  0.2390
11352SOL    HW134634   5.024   7.088   3.204  2.0129  2.0275 -2.4017
11352SOL    HW234635   5.041   7.005   3.079 -1.5509 -1.5580 -0.7512
11353SOL     OW34636   3.918   3.787   3.386  0.0762 -0.6646 -0.3501
11353SOL    HW134637   3.937   3.795   3.479  0.5495  1.3539 -0.5568
11353SOL    HW234638   3.826   3.759   3.382  0.4743 -2.2135  0.6839
11354SOL     OW34639   4.821   2.636   5.391  0.4461 -0.7229  0.3826
11354SOL    HW134640   4.815   2.672   5.302 -0.4154 -0.7726  0.4093
11354SOL    HW234641   4.807   2.712   5.448 -0.6945 -0.9621  0.4471
11355SOL     OW34642   4.463   0.409   9.690  0.2650  0.3055 -0.7446
11355SOL    HW134643   4.556   0.387   9.687  0.1731 -0.0618 -1.0007
11355SOL    HW234644   4.426   0.348   9.753 -0.5560 -2.5514 -3.6711
11356SOL     OW34645   3.309   1.350   3.998 -0.0033  0.3708  0.0871
11356SOL    HW134646   3.378   1.392   3.946  1.0136 -0.4294  0.7470
11356SOL    HW234647   3.334   1.366   4.089  0.1130 -1.1389  0.3452
11357SOL     OW34648   4.813   0.426   2.827 -0.5778 -0.1719  0.1348
11357SOL    HW134649   4.795   0.503   2.774  0.0121 -0.0625  0.0861
11357SOL    HW234650   4.779   0.447   2.913 -1.1911 -0.1967 -0.0953
11358SOL     OW34651   1.219   5.329   2.502 -0.6474  0.3215  0.9384
11358SOL    HW134652   1.197   5.359   2.413  1.4815  1.2953  0.6848
11358SOL    HW234653   1.207   5.407   2.556 -1.3541 -0.1152  1.4292
11359SOL     OW34654   6.338   7.394   9.725  0.3904 -0.3001 -0.3808
11359SOL    HW134655   6.290   7.474   9.748  1.1278 -0.6836  3.0868
11359SOL    HW234656   6.427   7.410   9.754  0.6524 -2.2111  0.0482
11360SOL     OW34657   7.788   5.072   1.859  0.2517  0.1328  0.4503
11360SOL    HW134658   7.866   5.120   1.885  1.4685 -1.4405 -0.1172
11360SOL    HW234659   7.795   4.988   1.904 -0.9107 -0.1902  0.0787
11361SOL     OW34660   2.663   5.199   2.692 -0.0346 -0.0010  0.0754
11361SOL    HW134661   2.625   5.214   2.606  2.2554  0.4135 -0.9445
11361SOL    HW234662   2.670   5.287   2.730 -3.1698 -0.3400  1.7734
11362SOL     OW34663   5.505   8.423   8.392 -0.0071 -0.4529 -0.7419
11362SOL    HW134664   5.525   8.444   8.483 -0.0181 -4.0631  0.2466
11362SOL    HW234665   5.588   8.437   8.345  0.4998 -0.2944  0.1893
11363SOL     OW34666   2.875   1.542   0.002 -0.1780  0.3476 -0.4427
11363SOL    HW134667   2.843   1.471   0.057  0.2032  1.0970  0.7742
11363SOL    HW234668   2.966   1.553   0.028 -0.2512  1.3164 -0.5802
11364SOL     OW34669   0.259   4.562   9.374 -0.2102 -0.4448  0.0041
11364SOL    HW134670   0.277   4.655   9.384 -0.0220 -0.4342 -0.4000
11364SOL    HW234671   0.203   4.540   9.448  0.3244 -0.1703  0.4933
11365SOL     OW34672   4.973   3.419   5.512 -0.1950 -0.2023 -0.0435
11365SOL    HW134673   5.059   3.429   5.472 -0.0034  1.6445  0.7215
11365SOL    HW234674   4.966   3.493   5.572 -2.5667  0.0349 -0.5202
11366SOL     OW34675   3.502   9.768   4.574 -0.3876  0.0032 -0.3380
11366SOL    HW134676   3.513   9.756   4.480 -2.2779  0.6880 -0.6897
11366SOL    HW234677   3.407   9.764   4.588 -0.3724  2.5987  1.1322
11367SOL     OW34678   0.467   7.313   6.547  0.1801  0.0023  0.1883
11367SOL    HW134679   0.479   7.328   6.453  1.3004 -1.2024  0.0970
11367SOL    HW234680   0.397   7.248   6.552 -0.2961  0.5170  0.2229
11368SOL     OW34681   1.333   2.165   0.938  0.0890  0.2861 -0.1370
11368SOL    HW134682   1.406   2.204   0.890  0.1521 -0.5247 -0.7284
11368SOL    HW234683   1.343   2.071   0.925 -0.2884  0.0855  0.9262
11369SOL     OW34684   2.559   5.841   7.757  0.9503 -0.0180  0.0697
11369SOL    HW134685   2.580   5.826   7.849  1.2046 -0.0779  0.0039
11369SOL    HW234686   2.494   5.775   7.735  0.8959 -0.0087  0.2047
11370SOL     OW34687   5.030   2.454   3.416  0.7903 -0.3522  0.7261
11370SOL    HW134688   5.069   2.371   3.443  0.9653 -0.3717  0.4141
11370SOL    HW234689   5.069   2.473   3.331  0.2952 -0.2578  0.5128
11371SOL     OW34690   3.850   0.204   9.880  0.6352 -0.0595 -0.2378
11371SOL    HW134691   3.810   0.274   9.829 -2.1397 -2.4727 -1.6834
11371SOL    HW234692   3.918   0.248   9.931 -1.2697  3.7497 -0.5743
11372SOL     OW34693   1.860   3.992   4.077  0.1886  0.0173 -0.5138
11372SOL    HW134694   1.816   4.006   3.993  0.4181 -2.5851 -1.1651
11372SOL    HW234695   1.822   3.911   4.111 -0.1832  1.2016  2.1411
11373SOL     OW34696   1.962   5.961   2.070  0.3545  0.3522  0.3462
11373SOL    HW134697   1.898   5.983   2.003 -0.0623 -4.0613 -1.0215
11373SOL    HW234698   1.925   5.995   2.151 -1.3687  1.9249 -1.0203
11374SOL     OW34699   1.013   4.769   9.567  0.0970  0.0398  0.2674
11374SOL    HW134700   1.082   4.828   9.536 -0.5408  0.6636 -0.0030
11374SOL    HW234701   0.978   4.811   9.645 -1.5961  0.9932 -0.9483
11375SOL     OW34702   2.731   7.505   8.886 -0.3076 -0.7319 -0.1115
11375SOL    HW134703   2.771   7.579   8.840 -0.9705 -0.2882  0.0192
11375SOL    HW234704   2.744   7.525   8.979 -1.7953 -0.0210 -0.0306
11376SOL     OW34705   9.076   0.829   2.167 -0.2127  0.3278 -0.0332
11376SOL    HW134706   9.166   0.828   2.133 -0.0448  1.8734  0.2906
11376SOL    HW234707   9.031   0.895   2.114 -0.8820  0.2802  0.4704
11377SOL     OW34708   3.129   2.771   0.793 -0.6337  0.2431  0.3226
11377SOL    HW134709   3.045   2.763   0.749  1.2626 -0.0343 -3.6289
11377SOL    HW234710   3.110   2.824   0.871 -4.2468  0.9810 -0.8739
11378SOL     OW34711   4.482   3.442   0.313  0.0636  0.2266  0.8324
11378SOL    HW134712   4.464   3.351   0.335  0.8371 -0.0868  0.2124
11378SOL    HW234713   4.415   3.466   0.249  1.7767 -0.9810 -1.5972
11379SOL     OW34714   6.869   0.582   9.548  0.0666 -0.0324 -0.3719
11379SOL    HW134715   6.774   0.582   9.536  0.0248  2.7031 -0.5946
11379SOL    HW234716   6.899   0.662   9.506  2.3418 -0.2020  0.7798
11380SOL     OW34717   6.169   3.592   2.885  0.5055 -0.1689 -0.1039
11380SOL    HW134718   6.140   3.683   2.901 -0.5107 -0.5081  0.0903
11380SOL    HW234719   6.250   3.601   2.836  0.7232  0.8590  0.4065
11381SOL     OW34720   6.480   5.203   6.640  0.2495  0.4466 -0.2848
11381SOL    HW134721   6.425   5.233   6.569 -0.5819  0.4273  0.3382
11381SOL    HW234722   6.465   5.266   6.710 -1.5682 -1.3484  1.0695
11382SOL     OW34723   8.838   1.795   6.819 -0.2733  0.3567  0.1783
11382SOL    HW134724   8.753   1.797   6.863 -0.9819  0.9618 -1.1549
11382SOL    HW234725   8.844   1.879   6.775  1.4684  0.7112  1.0301
11383SOL     OW34726   6.650   1.399   3.414  0.4604  0.8749 -0.2535
11383SOL    HW134727   6.713   1.470   3.402 -0.1076  1.3949 -0.2318
11383SOL    HW234728   6.564   1.442   3.407  0.0339 -0.2758 -3.2620
11384SOL     OW34729   5.855   1.059   9.018 -0.1326 -0.0697 -0.1430
11384SOL    HW134730   5.849   0.968   9.047  0.3785 -0.5404 -1.4497
11384SOL    HW234731   5.780   1.102   9.058 -0.0391 -0.9207  0.9855
11385SOL     OW34732   4.717   7.717   0.670 -0.2471 -0.7765  0.7862
11385SOL    HW134733   4.702   7.725   0.576  0.7967  0.3900  0.6873
11385SOL    HW234734   4.646   7.660   0.701 -0.9672 -0.6832 -0.5984
11386SOL     OW34735   7.898   7.725   9.581  0.3780  0.1069  0.2933
11386SOL    HW134736   7.957   7.652   9.564  0.5582  0.0802  1.0383
11386SOL    HW234737   7.956   7.799   9.598  0.2041 -0.0018  1.3877
11387SOL     OW34738   2.115   3.048   5.594 -0.5250 -0.5791  0.0816
11387SOL    HW134739   2.075   3.053   5.507 -0.2603 -0.1064 -0.0177
11387SOL    HW234740   2.184   3.114   5.592 -0.8652 -0.1798  0.8306
11388SOL     OW34741   9.857   3.086   1.798 -0.5562  0.0459  0.4586
11388SOL    HW134742   9.832   2.994   1.809 -0.3264 -0.1912 -0.7911
11388SOL    HW234743   9.951   3.088   1.811 -0.9871  0.8631  4.6986
11389SOL     OW34744   7.882   9.355   0.709 -0.4733 -0.1118 -0.4694
11389SOL    HW134745   7.904   9.264   0.727  0.5728  0.3629  0.7511
11389SOL    HW234746   7.793   9.366   0.744  0.3633 -0.0239  1.7902
11390SOL     OW34747   7.798   0.637   4.554 -0.4988 -0.7170 -0.5877
11390SOL    HW134748   7.740   0.617   4.481  1.2246 -2.0712 -1.6595
11390SOL    HW234749   7.886   0.641   4.516  0.0197  4.1967  0.4050
11391SOL     OW34750   7.176   2.221   2.108  0.1982  0.1664 -0.3273
11391SOL    HW134751   7.145   2.295   2.160  0.4764  0.4527 -0.5621
11391SOL    HW234752   7.101   2.196   2.054  0.2859  0.6714 -0.6868
11392SOL     OW34753   2.483   2.089   3.682  0.4202  0.2746 -0.2214
11392SOL    HW134754   2.399   2.133   3.689  0.8028  0.8858  0.7911
11392SOL    HW234755   2.480   2.020   3.749  0.7537  0.3640 -0.1117
11393SOL     OW34756   7.386   1.888   0.282  0.3360 -0.1026 -0.5845
11393SOL    HW134757   7.454   1.824   0.302  0.3212  0.2733  0.7758
11393SOL    HW234758   7.420   1.971   0.314  0.7946  0.8386 -3.2546
11394SOL     OW34759   8.539   4.707   1.736 -0.3027 -0.2700  0.1907
11394SOL    HW134760   8.478   4.646   1.694  0.6408 -0.6710 -0.6350
11394SOL    HW234761   8.580   4.754   1.664  0.7195 -0.3486  0.6932
11395SOL     OW34762   2.651   1.732   6.763 -0.3228 -0.0317 -0.0770
11395SOL    HW134763   2.576   1.775   6.802 -0.5789 -1.3602  0.9783
11395SOL    HW234764   2.658   1.648   6.809  0.8326 -0.6335 -1.2530
11396SOL     OW34765   1.553   2.666   8.604 -0.0049  0.2302 -0.0465
11396SOL    HW134766   1.479   2.709   8.647 -0.3091 -1.5371  1.3297
11396SOL    HW234767   1.597   2.736   8.556 -0.8457  1.9086  1.5054
11397SOL     OW34768   9.896   8.264   9.772 -0.4569  0.7094 -0.1027
11397SOL    HW134769   9.819   8.274   9.829  0.6982  0.8213  1.5181
11397SOL    HW234770   9.894   8.172   9.746 -1.2337  0.7559 -0.2328
11398SOL     OW34771   2.997   9.025   8.275  0.2063  0.9507  0.1480
11398SOL    HW134772   2.951   9.067   8.202 -0.7031  2.5387  1.5759
11398SOL    HW234773   3.084   9.064   8.274  0.6681 -0.0509 -0.8932
11399SOL     OW34774   1.822   1.337   2.799 -0.1017 -0.1315 -0.8375
11399SOL    HW134775   1.915   1.350   2.816 -0.4384 -0.2252  1.4004
11399SOL    HW234776   1.779   1.408   2.847 -1.2397 -1.1044 -0.3607
11400SOL     OW34777   2.227   2.981   0.422  0.0912 -0.8081 -0.5261
11400SOL    HW134778   2.177   3.004   0.501 -0.7578 -2.5035 -0.5241
11400SOL    HW234779   2.271   3.062   0.397 -0.9466  0.1889  0.7363
11401SOL     OW34780   6.859   7.264   1.429  0.0654 -0.2545  0.1879
11401SOL    HW134781   6.882   7.172   1.423  1.6330  0.1983 -1.7968
11401SOL    HW234782   6.846   7.280   1.522 -1.1704 -2.6515  0.4927
11402SOL     OW34783   1.250   8.677   5.949 -0.9747 -0.2812  0.3284
11402SOL    HW134784   1.160   8.669   5.981 -0.9798 -1.5920  0.0631
11402SOL    HW234785   1.260   8.770   5.928 -1.9345  0.0721  1.2973
11403SOL     OW34786   5.074   8.426   2.059 -0.1783  0.3755 -0.0739
11403SOL    HW134787   4.991   8.468   2.082 -0.1550  1.1089 -1.2217
11403SOL    HW234788   5.066   8.408   1.965 -0.3619 -2.6221  0.4165
11404SOL     OW34789   7.990   2.938   4.924  0.2815 -0.3117  0.2443
11404SOL    HW134790   8.032   3.024   4.916 -0.5577 -0.0059 -1.2219
11404SOL    HW234791   8.061   2.875   4.911  0.6627  0.1812 -0.0929
11405SOL     OW34792   4.443   8.331   3.154 -0.0260  0.3736  0.1149
11405SOL    HW134793   4.446   8.261   3.088  0.8087  1.2441 -0.8063
11405SOL    HW234794   4.486   8.293   3.230  0.6407 -0.0558 -0.4574
11406SOL     OW34795   9.920   1.529   1.757  0.1727  0.4640  0.2355
11406SOL    HW134796   9.928   1.435   1.773  0.3206  0.3767 -0.3114
11406SOL    HW234797   9.852   1.558   1.817 -0.8349 -0.2507 -0.5100
11407SOL     OW34798   9.306   4.849   7.072 -0.2058 -0.2399  0.4734
11407SOL    HW134799   9.277   4.932   7.110 -0.3787 -0.4988  0.9148
11407SOL    HW234800   9.259   4.782   7.122  0.6172 -0.6368  0.7286
11408SOL     OW34801   1.917   4.453   0.635  0.4114  0.4288  0.2501
11408SOL    HW134802   1.832   4.488   0.609  0.2059 -0.1774  0.0937
11408SOL    HW234803   1.902   4.414   0.721  0.6867  0.8972  0.5137
11409SOL     OW34804   2.328   1.580   0.721  0.2377 -0.1266  0.0654
11409SOL    HW134805   2.412   1.552   0.684 -0.8158 -0.0918 -2.5858
11409SOL    HW234806   2.279   1.615   0.646 -1.3827  1.8078  1.8838
11410SOL     OW34807   0.363   0.482   9.721  0.0527 -0.0759 -0.2012
11410SOL    HW134808   0.389   0.407   9.775  1.5557  1.0954  0.7781
11410SOL    HW234809   0.298   0.446   9.660  1.0480 -2.2693 -0.0675
11411SOL     OW34810   7.590   2.565   0.238 -0.3982 -0.1812  0.0606
11411SOL    HW134811   7.681   2.535   0.231 -0.0149  0.7179  0.9517
11411SOL    HW234812   7.594   2.641   0.297 -1.8377 -0.6365  0.7897
11412SOL     OW34813   6.089   3.087   3.598  0.3042  0.3241  0.0490
11412SOL    HW134814   6.183   3.066   3.597  0.1368 -0.4845  0.6614
11412SOL    HW234815   6.048   3.011   3.639 -0.5619  0.9216  0.3050
11413SOL     OW34816   8.332   7.451   1.591 -0.2473 -0.1402  0.4783
11413SOL    HW134817   8.292   7.389   1.651  0.1251 -1.1665 -0.2965
11413SOL    HW234818   8.380   7.512   1.647 -3.4099  1.6066  1.5048
11414SOL     OW34819   3.070   9.346   9.626  0.6540  0.2532 -0.0911
11414SOL    HW134820   3.071   9.435   9.592 -0.8769  0.9268  1.5253
11414SOL    HW234821   3.132   9.347   9.699  0.3544  0.0899  0.1680
11415SOL     OW34822   6.325   1.176   1.329 -0.5653  0.1673  0.4795
11415SOL    HW134823   6.416   1.157   1.349 -0.5392  0.5223  0.6940
11415SOL    HW234824   6.293   1.225   1.405 -1.2879 -1.0345  0.9901
11416SOL     OW34825   2.792   6.447   8.331 -0.2016  0.4070 -0.1663
11416SOL    HW134826   2.782   6.519   8.269 -2.2500 -0.8199 -1.3949
11416SOL    HW234827   2.726   6.464   8.399  1.0515  0.9891  0.9427
11417SOL     OW34828   0.139   8.954   3.765 -0.1309  0.3946  0.6612
11417SOL    HW134829   0.164   8.976   3.675 -0.2131  2.4425  1.0790
11417SOL    HW234830   0.166   9.030   3.816  1.0621 -1.2423  2.6084
11418SOL     OW34831   5.303   5.260   5.214 -0.4636  0.2569 -0.0292
11418SOL    HW134832   5.230   5.212   5.254 -2.0486  1.2123 -1.6246
11418SOL    HW234833   5.297   5.347   5.252 -0.0265  0.2973 -0.0492
11419SOL     OW34834   8.990   2.128   8.095 -0.1417 -0.0156 -0.2454
11419SOL    HW134835   8.984   2.176   8.177 -1.7204 -0.4011 -0.1028
11419SOL    HW234836   9.052   2.057   8.113 -0.6523 -0.2362  0.6949
11420SOL     OW34837   1.606   3.825   3.742 -0.6755  0.3529 -0.1610
11420SOL    HW134838   1.530   3.800   3.691 -0.6226 -0.2233  0.0308
11420SOL    HW234839   1.680   3.783   3.697 -0.6066  0.0060  0.2642
11421SOL     OW34840   1.162   7.872   9.169  0.0512  0.3868 -0.1083
11421SOL    HW134841   1.203   7.786   9.167 -2.8626 -1.1406 -1.5269
11421SOL    HW234842   1.087   7.861   9.227  1.2212  2.9086  2.0879
11422SOL     OW34843   3.852   9.249   6.072 -0.4602 -0.0916 -0.2281
11422SOL    HW134844   3.903   9.328   6.058  1.4607 -1.1754  0.3651
11422SOL    HW234845   3.899   9.180   6.025 -1.7572 -1.0187 -0.2505
11423SOL     OW34846   6.458   0.002   1.964 -0.2925 -0.0799 -0.3378
11423SOL    HW134847   6.549  -0.017   1.943 -0.5744 -0.8136 -0.9336
11423SOL    HW234848   6.462   0.045   2.050  0.7630  1.7031 -1.2171
11424SOL     OW34849   4.989   9.825   5.564  0.6928  0.5361  0.2059
11424SOL    HW134850   4.987   9.792   5.654 -0.9080  0.0902  0.0401
11424SOL    HW234851   4.909   9.791   5.524  1.3165  0.8169 -1.3653
11425SOL     OW34852   9.738   5.509   1.619  0.3422 -0.1963 -0.3527
11425SOL    HW134853   9.701   5.501   1.531  0.6233  1.6137 -0.6736
11425SOL    HW234854   9.772   5.598   1.623  1.9401 -0.8044  0.9916
11426SOL     OW34855   1.612   6.522   3.560 -0.7783  0.0056  0.0726
11426SOL    HW134856   1.606   6.592   3.495  0.2019 -0.6346 -0.7515
11426SOL    HW234857   1.629   6.443   3.508  0.3983 -0.4686  1.1239
11427SOL     OW34858   6.066   1.732   1.634 -0.5399  0.6996 -0.3428
11427SOL    HW134859   5.986   1.753   1.585 -0.8909  2.2155  0.8193
11427SOL    HW234860   6.106   1.816   1.653  1.1005 -0.0222 -0.4812
11428SOL     OW34861   3.012   9.774   0.432 -0.7409  0.1868  0.3683
11428SOL    HW134862   3.095   9.745   0.470  0.9038 -0.1572 -3.0872
11428SOL    HW234863   2.958   9.695   0.428 -0.5864  0.0397  1.0594
11429SOL     OW34864   8.046   1.115   5.086 -0.0602  0.1702  0.3041
11429SOL    HW134865   8.016   1.121   5.177 -0.3892  0.9992  0.1536
11429SOL    HW234866   7.979   1.063   5.042  0.3321 -0.6229  0.6222
11430SOL     OW34867   9.799   3.287   5.415  1.0615  0.0149 -0.0700
11430SOL    HW134868   9.832   3.231   5.345  0.1003 -2.0340  1.0348
11430SOL    HW234869   9.704   3.291   5.400  0.8332 -0.5085  1.1016
11431SOL     OW34870   8.363   1.639   3.779 -0.1162  0.1332 -0.0285
11431SOL    HW134871   8.407   1.723   3.767  3.8214 -1.3992  1.9352
11431SOL    HW234872   8.369   1.622   3.873 -0.5911 -2.4217 -0.3916
11432SOL     OW34873   1.852   6.856   3.154 -0.0898  0.1323  0.2181
11432SOL    HW134874   1.765   6.825   3.128 -0.2972  1.0522 -0.2315
11432SOL    HW234875   1.900   6.863   3.071 -0.3501  1.8682  0.1767
11433SOL     OW34876   4.089   1.182   1.625  0.0017 -0.1252 -0.2253
11433SOL    HW134877   4.089   1.202   1.532  0.6550  1.9426  0.1633
11433SOL    HW234878   4.113   1.090   1.630 -0.6811 -0.4514 -2.1034
11434SOL     OW34879   3.743   8.480   2.566  0.4224  0.4907 -0.2575
11434SOL    HW134880   3.715   8.571   2.568 -2.1065 -0.2126 -0.2594
11434SOL    HW234881   3.726   8.452   2.476  0.8291 -0.0922 -0.1578
11435SOL     OW34882   4.117   0.785   0.726  0.4932  0.0025 -0.2371
11435SOL    HW134883   4.097   0.878   0.724  0.3850 -0.0069  0.1991
11435SOL    HW234884   4.110   0.761   0.819  0.2067 -0.5084 -0.3880
11436SOL     OW34885   1.810   7.208   0.343  0.3649  0.2737  0.3678
11436SOL    HW134886   1.756   7.287   0.340  0.2089  0.1359 -2.3612
11436SOL    HW234887   1.898   7.238   0.325  0.1293 -0.2282 -1.9533
11437SOL     OW34888   9.309   3.510   6.066 -0.1826  0.1798 -0.1473
11437SOL    HW134889   9.350   3.434   6.108 -2.9607 -1.3221  0.0456
11437SOL    HW234890   9.234   3.474   6.019 -1.6537  2.8112 -0.0049
11438SOL     OW34891   0.961   6.071   9.010 -0.0335  0.5151  0.3185
11438SOL    HW134892   0.951   6.161   9.041  2.4122  0.3916  1.7771
11438SOL    HW234893   1.055   6.060   9.000 -0.2701 -1.8761  0.1547
11439SOL     OW34894   5.151   0.826   9.148 -0.0261  0.3654  0.7588
11439SOL    HW134895   5.169   0.776   9.068  1.0573 -0.7030  1.6354
11439SOL    HW234896   5.060   0.803   9.170 -0.0787  0.0745  0.2471
11440SOL     OW34897   2.238   1.624   7.301 -0.3719  0.1811 -0.3696
11440SOL    HW134898   2.161   1.626   7.357 -1.0980 -0.0882 -1.3381
11440SOL    HW234899   2.204   1.606   7.214  0.8336 -0.3908 -0.7442
11441SOL     OW34900   4.293   4.773   5.687  0.2137 -0.1798 -0.1291
11441SOL    HW134901   4.201   4.788   5.710  0.2788  0.4057 -0.2400
11441SOL    HW234902   4.337   4.761   5.772 -0.2772 -2.4773 -0.1227
11442SOL     OW34903   2.574   6.513   5.919 -0.1256 -0.1442 -0.5280
11442SOL    HW134904   2.644   6.480   5.975  0.1932  0.7182 -0.4018
11442SOL    HW234905   2.524   6.435   5.894  1.2264 -0.8506 -1.1159
11443SOL     OW34906   0.696   7.452   9.170 -0.0807 -0.1653 -0.2664
11443SOL    HW134907   0.713   7.360   9.150  1.0166 -0.5406  2.0535
11443SOL    HW234908   0.611   7.451   9.215 -0.2613  0.0222 -0.5995
11444SOL     OW34909   7.246   5.566   1.556 -0.4016  0.3257  0.0847
11444SOL    HW134910   7.268   5.543   1.646 -0.5577  0.5033  0.1697
11444SOL    HW234911   7.270   5.489   1.505 -1.8995 -0.4670  0.5025
11445SOL     OW34912   9.596   0.402   8.963  0.3847  0.2488 -0.3076
11445SOL    HW134913   9.634   0.336   8.905  1.5306  0.9574 -0.3908
11445SOL    HW234914   9.633   0.485   8.932 -1.3166  1.0035 -0.4548
11446SOL     OW34915   2.035   1.698   1.143  0.0815 -0.0309  0.3785
11446SOL    HW134916   1.959   1.662   1.189 -1.3553  1.2350 -0.8605
11446SOL    HW234917   2.073   1.760   1.204 -1.2800  0.9947  0.2324
11447SOL     OW34918   3.016   7.353   5.511  0.1534  0.2942  0.2595
11447SOL    HW134919   3.093   7.405   5.488 -0.2344  1.0962  0.7169
11447SOL    HW234920   3.030   7.329   5.603 -0.8420  1.8018  0.8646
11448SOL     OW34921   2.589   2.213   4.914  0.0713 -0.3703  0.2626
11448SOL    HW134922   2.609   2.130   4.871  1.1466  0.4701 -0.9431
11448SOL    HW234923   2.565   2.272   4.842 -2.0615  0.0264  1.2155
11449SOL     OW34924   6.523   6.295   5.566 -0.2610  0.4823  0.0649
11449SOL    HW134925   6.475   6.224   5.523 -0.4795  0.6836 -0.0254
11449SOL    HW234926   6.601   6.253   5.601  1.4845  0.7862 -3.0541
11450SOL     OW34927   1.439   1.899   4.971  0.1360 -0.0046 -0.7889
11450SOL    HW134928   1.470   1.822   5.017 -0.2522  0.0459 -0.4354
11450SOL    HW234929   1.347   1.880   4.953 -0.4073  1.0198  0.7018
11451SOL     OW34930   0.445   6.671   9.905 -0.0121 -0.3937 -0.1615
11451SOL    HW134931   0.491   6.593   9.936 -1.4508 -0.6015  1.5989
11451SOL    HW234932   0.375   6.637   9.850 -1.6852 -0.5548  1.9351
11452SOL     OW34933   2.066   5.748   2.987 -0.5699 -0.1695  0.2219
11452SOL    HW134934   2.114   5.828   3.007 -0.3554 -0.1670 -0.2797
11452SOL    HW234935   2.129   5.678   3.001 -0.1146 -0.1078 -1.3176
11453SOL     OW34936   1.649   8.563   4.586 -0.3024 -0.2712  0.1202
11453SOL    HW134937   1.655   8.653   4.617  1.1030 -1.0190  2.2287
11453SOL    HW234938   1.719   8.556   4.520  0.4396 -0.1358  0.8748
11454SOL     OW34939   9.410   8.299   4.884 -0.5379 -0.4202 -0.2006
11454SOL    HW134940   9.374   8.386   4.865 -0.0659 -0.3828 -0.9682
11454SOL    HW234941   9.469   8.314   4.957  1.1359  0.3237 -1.6344
11455SOL     OW34942   0.645   9.468   0.810  0.5122  0.0942 -0.2604
11455SOL    HW134943   0.720   9.441   0.863 -0.0099  0.8148  0.8799
11455SOL    HW234944   0.631   9.559   0.834  0.4980  0.5597 -1.9559
11456SOL     OW34945   8.256   3.399   2.999 -0.4286 -0.0923 -0.1435
11456SOL    HW134946   8.298   3.323   2.960  0.4835  0.1184  0.4039
11456SOL    HW234947   8.262   3.467   2.932 -2.7801 -0.9278 -1.3304
11457SOL     OW34948   0.981   8.256   3.236 -0.0532  0.1303  0.1587
11457SOL    HW134949   0.893   8.234   3.265 -0.0594 -2.0206 -1.2876
11457SOL    HW234950   1.035   8.181   3.262  1.0108  0.6420 -0.4643
11458SOL     OW34951   9.688   5.273   8.387  0.3316  0.0149  0.1861
11458SOL    HW134952   9.600   5.258   8.421  1.1695 -0.6239  2.2517
11458SOL    HW234953   9.675   5.308   8.299 -1.9566 -2.0923 -0.4353
11459SOL     OW34954   9.745   8.736   1.885 -0.1390  0.3297 -0.5861
11459SOL    HW134955   9.816   8.796   1.861  0.4922  0.1814  0.8308
11459SOL    HW234956   9.665   8.788   1.873  0.2737  0.8770 -1.0619
11460SOL     OW34957   2.945   1.654   3.254 -0.2371 -0.0833  1.0006
11460SOL    HW134958   2.953   1.686   3.343  1.6790  0.3188  0.7179
11460SOL    HW234959   2.983   1.566   3.256 -1.7987 -0.7884  0.9250
11461SOL     OW34960   6.897   7.181   3.859 -0.1545 -0.4295 -0.7048
11461SOL    HW134961   6.862   7.111   3.913  1.1183  1.0735  2.2952
11461SOL    HW234962   6.992   7.166   3.858 -0.0840  0.0137 -1.8926
11462SOL     OW34963   0.371   1.135   4.085 -0.0583 -0.2654 -0.1463
11462SOL    HW134964   0.377   1.051   4.040 -0.9057 -1.2276  1.4405
11462SOL    HW234965   0.287   1.171   4.057  1.0767  0.9526 -2.2111
11463SOL     OW34966   8.536   4.727   6.335  0.0248 -0.1269  0.7082
11463SOL    HW134967   8.526   4.652   6.394 -0.8623 -2.1633 -1.8204
11463SOL    HW234968   8.627   4.723   6.306 -0.6176 -1.8898 -1.3253
11464SOL     OW34969   3.771   1.553   6.854  0.6424 -0.0192  0.4598
11464SOL    HW134970   3.799   1.568   6.764  1.3747  2.0650  0.9741
11464SOL    HW234971   3.786   1.637   6.898  0.1138 -0.9198  2.4797
11465SOL     OW34972   7.385   7.805   6.283 -0.6852  0.5822 -0.4265
11465SOL    HW134973   7.414   7.846   6.364 -1.9178  0.8833 -0.1125
11465SOL    HW234974   7.466   7.785   6.236  0.0083  1.8490  0.1656
11466SOL     OW34975   2.983   4.349   7.226  0.2600 -0.0735 -0.3324
11466SOL    HW134976   2.923   4.359   7.300 -0.3987  1.6032 -1.0492
11466SOL    HW234977   3.068   4.334   7.266 -0.5919 -2.6852  0.7154
11467SOL     OW34978   3.709   1.147   4.678  0.7929 -0.2752  0.1098
11467SOL    HW134979   3.713   1.205   4.755 -0.8857 -0.3450  0.2906
11467SOL    HW234980   3.663   1.069   4.710  0.6805 -0.5890 -0.8069
11468SOL     OW34981   0.406   7.874   6.804  0.0255  0.0418  0.5216
11468SOL    HW134982   0.324   7.830   6.783 -0.6703  1.0297  1.0592
11468SOL    HW234983   0.418   7.938   6.734 -0.6602  1.1673  1.3815
11469SOL     OW34984   6.311   8.946   9.053  0.2588  0.1740 -0.1104
11469SOL    HW134985   6.275   8.960   9.140  2.6132 -1.2946  1.2068
11469SOL    HW234986   6.400   8.914   9.068  0.4384 -1.0718 -3.0226
11470SOL     OW34987   5.892   2.272   6.673 -0.1459  0.1518 -0.0383
11470SOL    HW134988   5.848   2.256   6.756  0.2763  0.5847  0.2726
11470SOL    HW234989   5.982   2.291   6.697  0.0209  0.1053 -0.6127
11471SOL     OW34990   3.638   1.890   3.569  0.6910  0.4791  0.6412
11471SOL    HW134991   3.702   1.905   3.500 -0.8148 -0.5372 -1.0851
11471SOL    HW234992   3.637   1.795   3.580  0.0290  0.5434  1.1945
11472SOL     OW34993   7.685   5.677   3.542  0.3964  0.6801 -0.4370
11472SOL    HW134994   7.704   5.721   3.624  0.0881  0.4965 -0.2650
11472SOL    HW234995   7.736   5.725   3.476  1.4490  0.1856  0.0123
11473SOL     OW34996   6.823   5.338   3.414 -0.1929  0.3108 -0.6178
11473SOL    HW134997   6.780   5.357   3.331 -0.2696 -2.4062 -1.2910
11473SOL    HW234998   6.751   5.315   3.473 -0.0110  0.3515 -0.3793
11474SOL     OW34999   2.219   0.684   4.919 -0.1658 -0.0896  0.2529
11474SOL    HW135000   2.166   0.623   4.870  2.0896 -1.0424 -1.1546
11474SOL    HW235001   2.261   0.631   4.987  1.0876  0.0380 -0.3944
11475SOL     OW35002   5.318   1.801   5.166  0.0368 -0.5563 -0.5773
11475SOL    HW135003   5.277   1.795   5.080  0.8138 -0.8757 -0.9374
11475SOL    HW235004   5.397   1.853   5.151 -0.1799 -0.0222  0.0825
11476SOL     OW35005   4.435   3.769   2.389 -0.1007  0.2567  0.1270
11476SOL    HW135006   4.525   3.782   2.359  0.4679 -2.0682  0.5808
11476SOL    HW235007   4.428   3.823   2.468  1.6636 -1.1742  1.3360
11477SOL     OW35008   1.414   3.249   0.546  0.1364  0.3334  0.2208
11477SOL    HW135009   1.463   3.171   0.572 -0.4600  0.5223  2.0683
11477SOL    HW235010   1.419   3.307   0.622 -1.6491  0.9912 -0.1202
11478SOL     OW35011   9.166   9.591   9.941  0.0800  0.3692  0.2491
11478SOL    HW135012   9.071   9.601   9.933  0.1940  1.7328  0.3865
11478SOL    HW235013   9.202   9.670   9.900  1.2288 -0.8563 -1.2234
11479SOL     OW35014   3.596   1.094   2.904  0.4370  0.1172 -0.0518
11479SOL    HW135015   3.615   1.187   2.916 -0.6269  0.2350  0.9139
11479SOL    HW235016   3.506   1.084   2.933  0.6878 -1.3073  0.3240
11480SOL     OW35017   4.116   4.421   3.010 -0.4190 -0.1929  0.2110
11480SOL    HW135018   4.033   4.380   3.035 -1.1563  0.2154 -1.4720
11480SOL    HW235019   4.159   4.356   2.955  0.1392 -0.1808  0.6256
11481SOL     OW35020   9.458   6.559   7.346 -0.3564  0.2482 -1.1336
11481SOL    HW135021   9.501   6.489   7.395 -0.0474  0.9628 -0.3487
11481SOL    HW235022   9.447   6.524   7.258  1.7048 -0.0230 -1.3205
11482SOL     OW35023   5.452   7.426   4.167  0.7673  0.0686  0.3197
11482SOL    HW135024   5.533   7.403   4.123  0.6833  2.0602 -1.0271
11482SOL    HW235025   5.474   7.424   4.260  2.1687 -0.1013  0.0075
11483SOL     OW35026   6.252   3.433   6.870 -0.4592  0.7882  0.3318
11483SOL    HW135027   6.180   3.464   6.925 -0.5157  1.3489 -0.0468
11483SOL    HW235028   6.309   3.386   6.931 -1.3708 -0.0697  0.5478
11484SOL     OW35029   4.655   6.067   6.828  0.3135  0.2001  0.2275
11484SOL    HW135030   4.686   6.000   6.766 -0.7928  1.5255 -1.9000
11484SOL    HW235031   4.593   6.020   6.884  1.2539 -1.0311  0.2777
11485SOL     OW35032   5.283   8.073   5.579  0.1094  0.3409  0.2075
11485SOL    HW135033   5.232   7.995   5.557 -0.5831  0.4517  1.3765
11485SOL    HW235034   5.360   8.068   5.522  0.6609 -1.8167  1.0550
11486SOL     OW35035   8.406   2.922   6.233 -0.1944 -0.1501 -0.1709
11486SOL    HW135036   8.359   3.002   6.210  1.2466  0.2587 -1.9381
11486SOL    HW235037   8.447   2.894   6.151  1.0842 -1.5191  0.8862
11487SOL     OW35038   5.954   8.680   9.518 -0.1007  1.1083 -0.3381
11487SOL    HW135039   5.867   8.705   9.487 -1.1895 -0.6114  1.1290
11487SOL    HW235040   5.973   8.598   9.472 -0.1112  0.4959  0.7071
11488SOL     OW35041   1.489   0.705   2.572  0.2810  0.2465 -0.5458
11488SOL    HW135042   1.502   0.778   2.632  2.8255  0.2283 -0.9428
11488SOL    HW235043   1.444   0.743   2.497  1.1966  1.3506 -0.5626
11489SOL     OW35044   5.124   1.251   8.449 -0.3815 -0.2289 -0.2424
11489SOL    HW135045   5.194   1.223   8.391  0.9452  1.3983  0.4948
11489SOL    HW235046   5.135   1.197   8.528  2.2742  2.1864  1.2471
11490SOL     OW35047   0.383   4.091   5.773 -0.2303  0.3372 -0.2587
11490SOL    HW135048   0.478   4.099   5.772 -0.0559 -1.5177 -1.1998
11490SOL    HW235049   0.365   4.005   5.737 -2.3013  0.8019 -0.4708
11491SOL     OW35050   8.215   0.866   9.355  0.4810  0.4342  0.5566
11491SOL    HW135051   8.265   0.863   9.437  1.1798  0.9160  0.1555
11491SOL    HW235052   8.266   0.812   9.294  0.9148  1.5310 -0.0680
11492SOL     OW35053   5.637   2.550   5.352 -0.6890 -0.3003 -0.1761
11492SOL    HW135054   5.582   2.509   5.285 -0.0126 -0.1938 -0.8080
11492SOL    HW235055   5.669   2.477   5.405  1.0281 -0.7100 -1.6827
11493SOL     OW35056   3.384   1.962   5.262 -0.2731 -0.6223  0.5916
11493SOL    HW135057   3.316   1.898   5.283 -0.3164  0.1049  2.9300
11493SOL    HW235058   3.466   1.913   5.267 -0.3962 -0.7771  1.0896
11494SOL     OW35059   8.659   8.071   1.549  0.0706 -0.0275 -0.4750
11494SOL    HW135060   8.626   8.021   1.624  1.0148 -0.0926 -0.0789
11494SOL    HW235061   8.753   8.079   1.566 -0.0729  2.0291 -0.4555
11495SOL     OW35062   0.787   7.169   5.726 -0.1198  0.2584  0.3149
11495SOL    HW135063   0.868   7.179   5.677 -0.7769 -0.5083 -1.0048
11495SOL    HW235064   0.723   7.222   5.679 -0.3937  0.8725  1.3456
11496SOL     OW35065   9.464   2.367   5.858  0.2802 -0.1400  0.3949
11496SOL    HW135066   9.537   2.327   5.811 -0.3407 -1.4358  0.4772
11496SOL    HW235067   9.389   2.310   5.839 -0.5871  0.8581  0.7456
11497SOL     OW35068   2.153   9.942   9.250 -0.1813 -0.1722 -0.4611
11497SOL    HW135069   2.063   9.925   9.220 -1.7892  3.3540  1.6705
11497SOL    HW235070   2.179  10.021   9.203  0.9571  0.0671  0.5287
11498SOL     OW35071   4.443   2.820   3.577  0.7596 -0.3654  0.2480
11498SOL    HW135072   4.379   2.828   3.506  0.4618 -1.0108  0.4430
11498SOL    HW235073   4.400   2.858   3.653  1.0082  0.1510  0.1408
11499SOL     OW35074   8.054   8.314   3.773 -0.1806  0.0620  0.3175
11499SOL    HW135075   8.020   8.387   3.826  0.4109  0.4312  0.1951
11499SOL    HW235076   7.989   8.304   3.703 -0.3121  0.4148  0.3836
11500SOL     OW35077   3.817   2.064   6.940 -0.2207  0.2223  0.2141
11500SOL    HW135078   3.878   2.134   6.962  0.5164 -0.8506  1.7589
11500SOL    HW235079   3.803   2.073   6.846  1.7614  0.9390 -0.0589
11501SOL     OW35080   8.977   1.214   0.638 -0.1986 -0.0925  0.1461
11501SOL    HW135081   9.018   1.300   0.642 -0.7472  0.1892 -0.0624
11501SOL    HW235082   8.891   1.227   0.678 -0.5672 -0.3668 -0.5382
11502SOL     OW35083   8.150   4.625   2.665 -0.4937 -0.4416 -0.5854
11502SOL    HW135084   8.057   4.620   2.690 -1.1885 -3.9834 -3.2242
11502SOL    HW235085   8.150   4.671   2.581  0.0672 -1.0251 -0.9109
11503SOL     OW35086   5.002   2.417   1.932  0.0541  0.4012  0.2356
11503SOL    HW135087   5.061   2.466   1.876 -0.2924 -0.5794 -1.0379
11503SOL    HW235088   4.919   2.416   1.884 -0.0258 -1.1443  0.3654
11504SOL     OW35089   1.044   9.295   2.487 -0.3972  0.0795 -0.6910
11504SOL    HW135090   0.998   9.219   2.523 -0.4545  1.4970  2.5659
11504SOL    HW235091   1.129   9.294   2.531 -0.3664  1.8249 -0.6349
11505SOL     OW35092   4.617   2.270   0.440 -0.1629  0.3867 -0.3908
11505SOL    HW135093   4.550   2.228   0.386 -0.3695  1.0886 -0.6856
11505SOL    HW235094   4.602   2.364   0.430  1.0299  0.5678 -0.6667
11506SOL     OW35095   3.606   3.326   1.214  0.8006  0.2512  0.1660
11506SOL    HW135096   3.611   3.393   1.146  0.4132  2.2881  2.0380
11506SOL    HW235097   3.515   3.327   1.241  0.9301 -0.6209  0.6561
11507SOL     OW35098   8.753   5.724   9.564  0.1482 -0.3224  0.2301
11507SOL    HW135099   8.696   5.760   9.495 -0.8172 -2.7370 -0.3420
11507SOL    HW235100   8.841   5.727   9.526 -0.2122 -0.5068 -0.6418
11508SOL     OW35101   6.247   8.902   1.287 -0.0981 -0.1431  0.5498
11508SOL    HW135102   6.342   8.902   1.299 -0.0056  2.1321  0.2728
11508SOL    HW235103   6.220   8.814   1.310  2.1743 -1.0794 -0.0881
11509SOL     OW35104   9.628   9.535   2.704  0.2148  0.6846 -0.3971
11509SOL    HW135105   9.547   9.585   2.694 -0.1681  0.0022 -0.7801
11509SOL    HW235106   9.643   9.533   2.798 -0.1325  0.9376 -0.3332
11510SOL     OW35107   5.177   8.049   7.202  0.0382 -0.1305  0.3113
11510SOL    HW135108   5.125   8.124   7.231 -0.5616  0.5128 -2.1903
11510SOL    HW235109   5.268   8.077   7.213 -0.1439 -0.1060  1.9179
11511SOL     OW35110   5.035   7.901   9.785  0.1609  0.0667 -0.1406
11511SOL    HW135111   4.985   7.933   9.861  0.4017 -0.5772  0.2943
11511SOL    HW235112   5.125   7.899   9.816  0.3503  0.4337 -0.6620
11512SOL     OW35113   5.935   3.569   4.255 -0.5632 -0.2299 -0.6378
11512SOL    HW135114   5.992   3.500   4.221 -1.0641 -0.9260 -0.0943
11512SOL    HW235115   5.986   3.608   4.326  1.1397  2.2597 -3.0263
11513SOL     OW35116   1.677   4.455   7.786  0.2113  0.1826 -0.1722
11513SOL    HW135117   1.620   4.390   7.828 -1.3948 -0.1726 -2.6844
11513SOL    HW235118   1.763   4.414   7.783 -0.6204 -1.5779 -1.0853
11514SOL     OW35119   0.565   7.114   0.575  0.0279  0.2014 -0.2598
11514SOL    HW135120   0.527   7.065   0.648  0.4509 -1.1557 -0.9185
11514SOL    HW235121   0.659   7.118   0.594 -0.1400  1.9606  0.4454
11515SOL     OW35122   4.897   1.831   2.142 -0.3343  0.6549  0.1432
11515SOL    HW135123   4.926   1.910   2.187 -1.4656  1.4956 -0.5482
11515SOL    HW235124   4.922   1.759   2.201 -0.3621  1.5983  1.3454
11516SOL     OW35125   2.971   5.644   4.576 -0.7305 -0.0291 -0.0172
11516SOL    HW135126   3.010   5.558   4.559 -1.9468 -0.6318  0.2047
11516SOL    HW235127   2.912   5.659   4.503 -1.0508  0.3136  0.3085
11517SOL     OW35128   6.309   8.707   7.961 -0.1014  0.6732 -0.4134
11517SOL    HW135129   6.377   8.772   7.980 -0.4344  0.6520  0.9795
11517SOL    HW235130   6.226   8.754   7.972 -0.3374  0.1681  0.0662
11518SOL     OW35131   6.185   5.090   9.079  0.5437  0.6173  0.4294
11518SOL    HW135132   6.198   5.008   9.126 -1.6240  1.1253  2.0869
11518SOL    HW235133   6.116   5.136   9.128 -0.4086  2.1209 -2.0759
11519SOL     OW35134   3.798   8.555  10.011 -0.3617 -0.3974  0.3865
11519SOL    HW135135   3.871   8.605   9.974  1.2144 -2.2009  0.8811
11519SOL    HW235136   3.761   8.508   9.936  0.8109 -1.6213  0.5439
11520SOL     OW35137   8.367   3.252   3.624 -0.1753 -0.1868 -0.6559
11520SOL    HW135138   8.376   3.239   3.718  0.2842 -0.2269 -0.7037
11520SOL    HW235139   8.363   3.347   3.613  2.6358 -0.0150 -0.8264
11521SOL     OW35140   5.761   6.202   7.054  0.2029  0.0869 -0.1177
11521SOL    HW135141   5.759   6.297   7.053 -0.5917  0.0749 -0.6406
11521SOL    HW235142   5.797   6.178   6.968 -0.1714 -0.0919 -0.2239
11522SOL     OW35143   0.767   8.923   4.882  0.2680 -0.2337 -0.3239
11522SOL    HW135144   0.686   8.910   4.833 -0.2306  0.4283  0.3162
11522SOL    HW235145   0.755   9.005   4.928  2.1931  1.1058 -1.9809
11523SOL     OW35146   3.850   0.243   3.186 -0.0141  0.0760 -0.6040
11523SOL    HW135147   3.924   0.190   3.156  3.0045  1.3764  3.5612
11523SOL    HW235148   3.862   0.327   3.143  0.8132  0.1804 -0.1910
11524SOL     OW35149   3.022   8.353   6.863 -0.0418  0.0889 -0.1404
11524SOL    HW135150   3.043   8.439   6.826  0.9057 -0.2670 -0.4489
11524SOL    HW235151   3.027   8.293   6.788  0.6354 -0.4429  0.3217
11525SOL     OW35152   5.462   6.028   0.994 -0.6486 -0.0405 -0.8366
11525SOL    HW135153   5.399   6.091   1.030 -1.7352 -1.2483 -0.5551
11525SOL    HW235154   5.547   6.071   1.003 -1.1482  0.6221  1.0879
11526SOL     OW35155   2.685   1.934   3.364  0.4741 -0.2633 -0.1136
11526SOL    HW135156   2.633   1.994   3.311  2.1045  0.7812 -0.5943
11526SOL    HW235157   2.676   1.849   3.319  0.7125  0.3101 -1.2801
11527SOL     OW35158   7.459   4.284   8.492  0.4474  0.5834 -0.2509
11527SOL    HW135159   7.541   4.298   8.443  1.1617  1.8590  1.2244
11527SOL    HW235160   7.428   4.199   8.463  1.5453  0.6981 -1.9087
11528SOL     OW35161   4.291   1.664   9.550  0.3380  0.1573 -0.1382
11528SOL    HW135162   4.372   1.635   9.591  0.6861 -0.0148 -0.9307
11528SOL    HW235163   4.233   1.588   9.556  0.0708  0.4111  0.7990
11529SOL     OW35164   3.207   3.723   3.523 -0.7842  0.3200  0.4456
11529SOL    HW135165   3.176   3.634   3.541 -1.7349  0.4398 -0.4739
11529SOL    HW235166   3.302   3.716   3.523 -0.8377 -0.5813  0.9204
11530SOL     OW35167   6.511   2.783   0.675  0.3290 -0.1190  0.1341
11530SOL    HW135168   6.478   2.709   0.625  0.0043  1.3872 -2.0437
11530SOL    HW235169   6.606   2.775   0.670  0.3094 -1.0603  1.0255
11531SOL     OW35170   6.294   6.091   5.099 -0.1023 -0.2490 -0.5330
11531SOL    HW135171   6.389   6.077   5.102 -0.2658 -1.3809 -0.1405
11531SOL    HW235172   6.270   6.074   5.008  0.3193  2.0245 -1.1402
11532SOL     OW35173   7.494   9.518   1.064 -0.1881 -0.3045  0.3408
11532SOL    HW135174   7.457   9.496   0.979 -2.4624 -0.1931  1.2289
11532SOL    HW235175   7.464   9.449   1.123  1.5513 -0.5173  1.0439
11533SOL     OW35176   4.512   8.147   2.494 -0.2585  0.6406  0.7242
11533SOL    HW135177   4.597   8.110   2.469 -0.7993  0.5237 -1.0615
11533SOL    HW235178   4.501   8.122   2.586  0.4413 -1.6598  0.2556
11534SOL     OW35179   1.080   8.466   3.086 -0.4753  0.2334  0.2637
11534SOL    HW135180   1.043   8.406   3.151  1.2526  0.1899  1.2705
11534SOL    HW235181   1.013   8.471   3.017 -2.1156 -0.1876  1.7447
11535SOL     OW35182   5.314   3.698   1.240 -0.6132  0.3018 -0.1706
11535SOL    HW135183   5.409   3.693   1.254 -0.8076 -3.5921  0.9602
11535SOL    HW235184   5.282   3.754   1.310  0.7195  0.5390  0.2841
11536SOL     OW35185   8.719   1.410   3.920 -0.4107  0.2547  0.5199
11536SOL    HW135186   8.797   1.362   3.950  0.5514 -0.2811 -2.5587
11536SOL    HW235187   8.713   1.485   3.980  0.2411 -1.6047  3.1160
11537SOL     OW35188   1.504   7.343   9.024  0.4889 -0.1788  0.4080
11537SOL    HW135189   1.493   7.267   9.081 -0.8515 -0.3770 -0.0659
11537SOL    HW235190   1.466   7.316   8.940  0.3791  0.8555  0.1087
11538SOL     OW35191   5.460   9.091   1.817  0.5419 -0.2759  0.0152
11538SOL    HW135192   5.492   9.044   1.894  1.4898  2.6967  1.5757
11538SOL    HW235193   5.485   9.182   1.832  1.5218  0.3651 -4.2182
11539SOL     OW35194   5.348   2.441   6.063 -0.0047 -0.5621 -0.1590
11539SOL    HW135195   5.410   2.513   6.068 -1.1757  0.5836 -1.4901
11539SOL    HW235196   5.277   2.466   6.122 -0.2111 -0.8348 -0.2907
11540SOL     OW35197   6.817   4.598   5.859  0.3009  0.1278  0.0046
11540SOL    HW135198   6.739   4.586   5.804  0.8107  0.0996 -0.7218
11540SOL    HW235199   6.863   4.671   5.819  0.6515  0.1440  0.4372
11541SOL     OW35200   3.800   2.064   6.644  0.1980 -0.3151  0.0377
11541SOL    HW135201   3.743   2.000   6.601  1.4564 -1.4722  0.0112
11541SOL    HW235202   3.809   2.135   6.580 -1.6744  0.2063  0.2949
11542SOL     OW35203   6.062   6.498   0.107 -0.4686  0.3808  0.1616
11542SOL    HW135204   5.997   6.567   0.122 -0.5879  0.0131  1.4977
11542SOL    HW235205   6.018   6.418   0.136  0.2644 -0.0115  0.2159
11543SOL     OW35206   0.369   7.849   5.612  0.4809  0.0698 -0.5445
11543SOL    HW135207   0.281   7.862   5.576  1.0551 -0.3053 -2.1601
11543SOL    HW235208   0.392   7.760   5.586  0.6426 -0.4998  1.4501
11544SOL     OW35209   0.094   9.386   9.078  0.0727 -0.2487 -0.0475
11544SOL    HW135210   0.133   9.372   9.164 -1.0571  0.4127  0.5941
11544SOL    HW235211   0.151   9.338   9.018  2.2181  1.1480  0.7615
11545SOL     OW35212   5.899   1.950   1.077  0.0649 -0.6574 -0.4379
11545SOL    HW135213   5.877   1.950   0.984  0.2103 -1.1063 -0.4741
11545SOL    HW235214   5.929   1.861   1.095 -1.1977 -0.9574  0.3374
11546SOL     OW35215   8.080   5.582   1.731 -0.2341  0.1414 -0.0137
11546SOL    HW135216   8.132   5.662   1.737  0.6698 -0.4957  1.1690
11546SOL    HW235217   8.090   5.554   1.640 -0.7729  1.4865 -0.5062
11547SOL     OW35218   7.159   6.762   7.780 -0.2688  0.1003  0.4153
11547SOL    HW135219   7.171   6.734   7.870 -1.2241 -1.4462  0.0813
11547SOL    HW235220   7.068   6.793   7.775  0.4727  2.5596  0.5474
11548SOL     OW35221   6.038   6.942   6.263 -0.3244  0.4282 -0.4879
11548SOL    HW135222   6.009   6.922   6.352 -0.3038  2.0241 -0.0911
11548SOL    HW235223   5.970   7.000   6.228 -0.0883  0.2047 -1.3295
11549SOL     OW35224   6.117   6.423   3.741 -0.4654  0.0311  0.2593
11549SOL    HW135225   6.186   6.444   3.677 -0.0202 -2.1802 -0.0577
11549SOL    HW235226   6.067   6.352   3.701 -1.0490 -0.4626  1.7784
11550SOL     OW35227   4.372   6.368   2.689 -0.1004  0.4412 -0.3926
11550SOL    HW135228   4.383   6.402   2.600 -0.6496  1.2785 -0.1605
11550SOL    HW235229   4.284   6.331   2.690 -0.7399  1.8990  0.2324
11551SOL     OW35230   2.596   4.307   8.689 -0.0042 -0.1990  0.1600
11551SOL    HW135231   2.686   4.338   8.687 -0.0469 -0.0772 -1.1319
11551SOL    HW235232   2.546   4.382   8.722  0.4134 -0.4406  1.3713
11552SOL     OW35233   9.089   4.007   2.555  0.6411 -0.1333 -0.1638
11552SOL    HW135234   9.132   3.965   2.480  0.1839 -0.2028 -0.3850
11552SOL    HW235235   9.000   3.973   2.555  0.0040  1.4135 -0.8261
11553SOL     OW35236   1.799   7.442   1.253  0.0502  0.3734 -0.7345
11553SOL    HW135237   1.886   7.423   1.220  1.1387  1.2036  1.4245
11553SOL    HW235238   1.804   7.423   1.347 -1.7864  1.3967 -0.3666
11554SOL     OW35239   6.052   9.922   3.108 -0.5475 -0.3646  0.0610
11554SOL    HW135240   6.023  10.003   3.151 -0.4706  1.0764 -2.4496
11554SOL    HW235241   6.146   9.919   3.123 -0.6995 -0.5888  1.0582
11555SOL     OW35242   8.611   4.671   5.207 -0.2548 -0.6445 -0.4921
11555SOL    HW135243   8.700   4.652   5.178 -0.0478 -0.0719 -0.2529
11555SOL    HW235244   8.618   4.755   5.253 -1.0082 -0.3145 -0.9429
11556SOL     OW35245   6.471   0.455   4.927  0.0421 -0.2713  0.2856
11556SOL    HW135246   6.448   0.364   4.907  0.1032 -0.4709  1.0823
11556SOL    HW235247   6.567   0.454   4.932  0.2461  0.3648 -2.1089
11557SOL     OW35248   8.967   1.001   6.962  0.1062  0.0660  0.0257
11557SOL    HW135249   9.025   0.988   6.887 -0.4179  1.7137 -0.7117
11557SOL    HW235250   8.948   1.095   6.961 -1.7581 -0.2620  0.8583
11558SOL     OW35251   8.555   5.975   6.682 -0.1812 -0.3710  0.2552
11558SOL    HW135252   8.527   6.062   6.655 -0.0386  0.0868  1.5270
11558SOL    HW235253   8.501   5.915   6.630  0.1033  0.4450 -1.0386
11559SOL     OW35254   6.552   2.095   5.591  0.4683  0.3368 -0.1702
11559SOL    HW135255   6.525   2.028   5.528  1.1974  0.1286 -0.2713
11559SOL    HW235256   6.536   2.178   5.545  0.5961  0.2008 -0.4659
11560SOL     OW35257   1.644   4.062   0.973  0.8306  0.1478 -0.5046
11560SOL    HW135258   1.636   4.087   0.881  1.0980  0.4930 -0.4390
11560SOL    HW235259   1.555   4.042   1.001  0.4517  1.8992 -0.3232
11561SOL     OW35260   7.257   6.046   9.645  0.1025  0.1816 -0.7045
11561SOL    HW135261   7.205   6.024   9.722  1.0942  0.1459 -0.0231
11561SOL    HW235262   7.226   5.986   9.577  2.1206 -2.8640  0.8597
11562SOL     OW35263   7.686   3.316   9.153 -0.0992 -0.3713 -0.0264
11562SOL    HW135264   7.751   3.298   9.086 -0.9301 -1.3920 -0.5850
11562SOL    HW235265   7.671   3.233   9.197 -0.0823  0.1321  0.9715
11563SOL     OW35266   7.697  10.010   8.669 -0.2483 -0.6752 -0.3200
11563SOL    HW135267   7.692   9.919   8.638  1.4995 -0.6980 -0.6290
11563SOL    HW235268   7.712  10.002   8.763 -1.1160 -0.6663 -0.1685
11564SOL     OW35269   7.403   0.396   3.025 -0.3948 -0.6089  0.3050
11564SOL    HW135270   7.475   0.458   3.016 -1.7114  1.3020  1.8528
11564SOL    HW235271   7.404   0.371   3.118  0.2855 -3.2592 -0.3237
11565SOL     OW35272   7.669   5.876   3.095  0.4083  0.4295 -0.1865
11565SOL    HW135273   7.605   5.855   3.163  0.0358  1.1489 -0.3060
11565SOL    HW235274   7.639   5.828   3.018 -0.1488  0.9732 -0.3179
11566SOL     OW35275   4.662   6.493   4.473  0.1507  0.0641 -0.4900
11566SOL    HW135276   4.615   6.552   4.531 -0.6442  0.9184 -1.9572
11566SOL    HW235277   4.730   6.454   4.528 -1.3220 -0.0783  1.3025
11567SOL     OW35278   5.874   2.148   4.365 -0.0732 -0.1089 -0.5179
11567SOL    HW135279   5.861   2.131   4.271 -0.5544 -0.0801 -0.4587
11567SOL    HW235280   5.846   2.238   4.377 -1.0036 -0.4331 -0.1623
11568SOL     OW35281   1.864   0.101   7.164 -0.2587  0.5030 -0.6258
11568SOL    HW135282   1.776   0.098   7.201  0.1285 -2.3724  0.2373
11568SOL    HW235283   1.917   0.141   7.232 -0.6082  0.8147 -0.5322
11569SOL     OW35284   3.578   2.557   0.234  0.0708 -0.3662  0.1771
11569SOL    HW135285   3.515   2.621   0.201  0.0192 -0.1873  0.6067
11569SOL    HW235286   3.534   2.473   0.225  0.0365 -0.3137 -0.1500
11570SOL     OW35287   6.801   4.239   2.621 -0.9904  0.1603 -0.1421
11570SOL    HW135288   6.856   4.227   2.699 -0.4644  0.3625 -0.4732
11570SOL    HW235289   6.717   4.270   2.655 -0.7134  0.3934  0.3364
11571SOL     OW35290   6.381   5.871   7.346 -0.0989  0.3153 -0.6804
11571SOL    HW135291   6.464   5.847   7.304 -0.9649  0.5490 -2.6307
11571SOL    HW235292   6.329   5.911   7.276 -1.4702  1.1531  0.7451
11572SOL     OW35293   6.578   2.175   2.197  0.3363 -0.4218 -0.1650
11572SOL    HW135294   6.496   2.206   2.159  0.3536 -0.6110 -0.3615
11572SOL    HW235295   6.571   2.197   2.290  0.5322  0.5540 -0.3733
11573SOL     OW35296   3.969   9.034   6.404  0.7754  0.8827 -0.4096
11573SOL    HW135297   3.974   8.948   6.362  1.4889  1.2373 -1.0709
11573SOL    HW235298   4.046   9.081   6.373  0.0329  2.0112 -0.6085
11574SOL     OW35299   6.121   2.086   0.048  0.4367 -0.0860  0.3680
11574SOL    HW135300   6.073   2.039  -0.020 -0.1442 -1.4524  1.6591
11574SOL    HW235301   6.063   2.157   0.074  0.2521 -0.1427  0.1121
11575SOL     OW35302   1.187   8.765   0.742 -0.3575 -0.4021 -0.5765
11575SOL    HW135303   1.213   8.686   0.788  0.1603 -1.4769 -2.6338
11575SOL    HW235304   1.091   8.768   0.752 -0.1605  0.4226  2.0325
11576SOL     OW35305   1.241   2.690   1.515 -0.4952  0.0091  0.1346
11576SOL    HW135306   1.275   2.778   1.497  0.6710 -0.1806  1.2692
11576SOL    HW235307   1.261   2.640   1.436 -2.3851  1.0661 -1.0817
11577SOL     OW35308   9.821   2.178   1.102  0.4777 -0.1513  0.4887
11577SOL    HW135309   9.916   2.190   1.108  1.0361 -3.6103  0.7292
11577SOL    HW235310   9.790   2.192   1.191  0.5685  1.8582  0.2442
11578SOL     OW35311   9.022   3.157   5.075 -0.3247 -0.2267 -0.3425
11578SOL    HW135312   8.970   3.206   5.011  1.0690 -0.7720 -1.9763
11578SOL    HW235313   9.111   3.157   5.038  1.5015  2.6554  3.4282
11579SOL     OW35314   8.433   4.914   7.983 -0.4696  0.5958  0.4734
11579SOL    HW135315   8.474   4.857   7.918 -0.0019  0.4196  0.9155
11579SOL    HW235316   8.453   4.873   8.067 -1.9433  0.2592  0.6889
11580SOL     OW35317   3.265   9.559   8.627  0.2806 -0.1089  0.3975
11580SOL    HW135318   3.205   9.485   8.634  1.2096 -0.8882  0.4640
11580SOL    HW235319   3.288   9.563   8.534 -2.3222  2.2554 -0.2915
11581SOL     OW35320   1.607   8.805   9.625  0.3267  0.3988 -0.2949
11581SOL    HW135321   1.529   8.753   9.644  1.3697 -0.6281  1.4391
11581SOL    HW235322   1.635   8.775   9.539  1.0246 -2.1712  0.7422
11582SOL     OW35323   1.621   0.449   0.506  0.4203 -0.0782 -0.4063
11582SOL    HW135324   1.540   0.403   0.528 -0.6092  0.3665 -3.0065
11582SOL    HW235325   1.592   0.530   0.463  2.2477  0.9295  0.1429
11583SOL     OW35326   6.242   8.765   6.496 -0.2753 -0.1781  0.0353
11583SOL    HW135327   6.296   8.715   6.434 -1.9846 -1.6013 -0.3701
11583SOL    HW235328   6.171   8.801   6.444 -1.1617 -0.5224  0.9605
11584SOL     OW35329   0.736   5.104   6.795 -0.0946  0.2297  0.4959
11584SOL    HW135330   0.649   5.123   6.830 -0.0951  0.6048  0.2993
11584SOL    HW235331   0.737   5.009   6.782 -0.9489  0.3597 -0.7380
11585SOL     OW35332   8.060   4.913   3.127  0.1871 -0.3415 -0.1142
11585SOL    HW135333   8.014   4.895   3.046 -1.7409 -0.5403  0.9715
11585SOL    HW235334   8.143   4.867   3.118 -0.4095 -1.2042 -1.5428
11586SOL     OW35335   7.481   4.243   2.683  0.4216  0.1927  0.8437
11586SOL    HW135336   7.437   4.277   2.604  1.3404  0.9871  0.6509
11586SOL    HW235337   7.443   4.156   2.696 -1.4011  0.9345  0.8432
11587SOL     OW35338   6.050   2.791   7.286 -0.3001 -0.0403  0.2592
11587SOL    HW135339   5.969   2.834   7.259  1.1211  1.4093 -2.1757
11587SOL    HW235340   6.033   2.697   7.276 -0.5226  0.2655 -4.6657
11588SOL     OW35341   1.296   1.960   8.016 -0.3406 -0.0995  0.2812
11588SOL    HW135342   1.335   2.047   8.024  0.7436 -0.5530  0.0135
11588SOL    HW235343   1.306   1.921   8.103 -0.8998  0.0647  0.4236
11589SOL     OW35344   2.022   3.452   1.065  0.1687  0.4076  0.0623
11589SOL    HW135345   2.028   3.361   1.095 -0.3865  0.9276  1.8272
11589SOL    HW235346   1.933   3.480   1.089  0.7340  1.7836  0.6510
11590SOL     OW35347   7.938   9.228   1.517  0.0281 -0.4868  0.4148
11590SOL    HW135348   8.024   9.270   1.519  1.3773 -2.9910 -0.4588
11590SOL    HW235349   7.891   9.266   1.591  1.6936  1.3093  0.6382
11591SOL     OW35350   2.074   3.777   5.681  0.4900  0.3836  0.3516
11591SOL    HW135351   1.993   3.794   5.729  1.4043  0.4259  1.9475
11591SOL    HW235352   2.050   3.786   5.589 -1.4394 -0.1605  0.7596
11592SOL     OW35353   5.603   1.381   2.573 -0.2391  0.1466 -0.0796
11592SOL    HW135354   5.692   1.365   2.542 -0.5079 -0.3837 -0.5803
11592SOL    HW235355   5.590   1.475   2.560  1.0131  0.6856  2.0283
11593SOL     OW35356   4.750   4.184   9.171 -0.1777 -0.0051  0.2930
11593SOL    HW135357   4.759   4.113   9.235 -3.5525  1.2989  2.4662
11593SOL    HW235358   4.657   4.186   9.150  0.1238  2.5515 -1.1722
11594SOL     OW35359   8.849   0.328   3.672  0.3580  0.3802  0.2583
11594SOL    HW135360   8.944   0.335   3.660  0.7210 -2.5926  0.5128
11594SOL    HW235361   8.821   0.270   3.602 -1.7889  3.1731 -1.3732
11595SOL     OW35362   1.496   5.809   2.559 -0.3786 -0.4982  0.3018
11595SOL    HW135363   1.427   5.871   2.580 -0.5443 -0.4708 -0.3153
11595SOL    HW235364   1.451   5.731   2.526 -0.1533 -0.8014  0.6939
11596SOL     OW35365   4.744   3.433   9.974 -0.0459  0.4245 -0.0473
11596SOL    HW135366   4.653   3.451   9.948  0.2661 -0.2417 -1.7463
11596SOL    HW235367   4.796   3.491   9.918  0.6329 -0.4448 -0.3277
11597SOL     OW35368   7.590   7.988   0.532  0.5443 -0.7967  0.0020
11597SOL    HW135369   7.615   8.036   0.611 -1.0424  1.1155 -0.5684
11597SOL    HW235370   7.545   7.910   0.564  0.5306 -0.3922  0.9917
11598SOL     OW35371   1.374   7.259   1.952  0.0656 -1.0080 -0.3539
11598SOL    HW135372   1.453   7.230   1.906  0.9486 -0.6145  0.8477
11598SOL    HW235373   1.374   7.210   2.034  0.2483  0.5330  0.6068
11599SOL     OW35374   9.583   6.673   6.156  0.4692  0.2783  0.2586
11599SOL    HW135375   9.517   6.737   6.128  0.8622  0.1338 -1.1073
11599SOL    HW235376   9.639   6.663   6.079  0.9145 -1.0707  0.7354
11600SOL     OW35377   5.997   6.569   0.730  0.1377  0.7010 -0.3569
11600SOL    HW135378   5.949   6.537   0.807  1.0971  0.8304  0.3087
11600SOL    HW235379   5.994   6.664   0.737 -0.3583  0.7267 -0.8574
11601SOL     OW35380   9.672   1.060   9.877  0.0033 -0.2573 -0.0102
11601SOL    HW135381   9.587   1.020   9.862 -0.5277  0.4266  1.0652
11601SOL    HW235382   9.713   1.004   9.944  0.5446 -0.7685 -0.7531
11602SOL     OW35383   7.172   3.673   8.405 -0.0451  0.1450  0.6817
11602SOL    HW135384   7.091   3.684   8.456 -0.9506  0.1739 -0.7272
11602SOL    HW235385   7.179   3.753   8.354  0.7199 -0.0001  0.5525
11603SOL     OW35386   8.189   2.477   6.105 -0.4304  0.0363  0.6267
11603SOL    HW135387   8.157   2.561   6.074  0.4532 -0.2504 -1.2220
11603SOL    HW235388   8.233   2.439   6.029  0.9557 -1.2135  1.9907
11604SOL     OW35389   6.291   5.907   0.080 -0.4441 -0.1871  0.2961
11604SOL    HW135390   6.265   5.901   0.172 -2.2875 -2.3267 -0.2777
11604SOL    HW235391   6.228   5.968   0.041  0.7232  1.2180  0.5106
11605SOL     OW35392   7.448   8.660   5.042 -0.0064 -0.0041  0.3761
11605SOL    HW135393   7.473   8.595   4.976 -1.8005 -0.5007  0.1372
11605SOL    HW235394   7.528   8.676   5.092  0.9348 -0.9676 -0.7838
11606SOL     OW35395   9.402   6.815   9.736 -0.0118  0.4881 -0.4324
11606SOL    HW135396   9.319   6.775   9.763  0.7918 -1.3562 -0.4938
11606SOL    HW235397   9.453   6.821   9.818  0.1439  0.7103 -0.5453
11607SOL     OW35398   4.169   8.361   8.929 -0.2295 -0.0322 -0.3159
11607SOL    HW135399   4.137   8.297   8.992 -1.2725  0.8135  0.0408
11607SOL    HW235400   4.107   8.434   8.935  1.2133  1.2492 -0.3269
11608SOL     OW35401   0.491   8.656   3.686 -0.2709 -0.3544 -0.0619
11608SOL    HW135402   0.474   8.749   3.702 -0.0264 -0.6847  2.6546
11608SOL    HW235403   0.466   8.642   3.594 -1.1934  2.1726 -0.2759
11609SOL     OW35404   3.938   5.114   8.832  0.4746  0.3257 -0.3195
11609SOL    HW135405   3.869   5.079   8.775 -0.4233  0.4676  0.6522
11609SOL    HW235406   4.015   5.063   8.809 -0.5750 -1.6864  0.4002
11610SOL     OW35407   6.832   9.682   7.758  0.1902 -0.4110  0.6182
11610SOL    HW135408   6.885   9.673   7.837 -0.0395 -0.2601  0.7922
11610SOL    HW235409   6.797   9.772   7.763  0.7616 -0.1440 -0.0186
11611SOL     OW35410   6.930   2.975   6.213  0.5784 -0.3595 -0.3203
11611SOL    HW135411   6.871   2.902   6.195 -0.3659  0.0458  0.9483
11611SOL    HW235412   6.959   2.961   6.303  0.2470  0.9123  0.0080
11612SOL     OW35413   1.034   4.068   6.944 -0.1645  0.1655 -0.1301
11612SOL    HW135414   0.980   3.988   6.942 -1.1931  0.8492 -0.5629
11612SOL    HW235415   1.114   4.044   6.897 -1.3015 -0.0363 -2.0798
11613SOL     OW35416   0.803   2.958   1.512  0.6847  0.5064 -0.2824
11613SOL    HW135417   0.891   2.921   1.506  1.3095  1.5810  1.6225
11613SOL    HW235418   0.813   3.037   1.564 -0.8326  2.6714 -3.0072
11614SOL     OW35419   9.750   5.195   0.366 -0.2534  0.0832 -0.0389
11614SOL    HW135420   9.723   5.229   0.281 -0.7481  0.7063  0.3616
11614SOL    HW235421   9.816   5.257   0.397 -1.1483  0.7048  0.6861
11615SOL     OW35422   0.170   4.095   9.599 -0.3297  0.0250  0.3808
11615SOL    HW135423   0.198   4.047   9.677 -2.2109  0.0999  1.1627
11615SOL    HW235424   0.153   4.184   9.630  1.5464  0.8087 -0.7186
11616SOL     OW35425   1.361   6.411   4.612  1.1281  0.3379  0.0759
11616SOL    HW135426   1.273   6.379   4.631  1.0821  1.7983  2.8620
11616SOL    HW235427   1.348   6.483   4.550  0.4328  0.1160 -0.0408
11617SOL     OW35428   6.177   5.727   8.298  0.0607 -0.2275  0.2278
11617SOL    HW135429   6.123   5.806   8.294  2.3086  1.3716 -1.2138
11617SOL    HW235430   6.139   5.668   8.233 -0.2668  0.6491 -0.3943
11618SOL     OW35431   9.101   6.602   2.967 -0.1623  0.2673  0.0683
11618SOL    HW135432   9.018   6.568   3.002  0.3197 -0.1189  0.8809
11618SOL    HW235433   9.124   6.674   3.025  0.8801 -0.6707  0.8675
11619SOL     OW35434   1.622   2.305   3.089  0.0538 -0.6621  0.2467
11619SOL    HW135435   1.581   2.289   3.174 -0.1665  0.7825  0.4468
11619SOL    HW235436   1.715   2.317   3.110  0.0483 -0.6198  0.2480
11620SOL     OW35437   4.592   2.147  -0.006 -0.3571 -0.3960  0.1652
11620SOL    HW135438   4.581   2.163   0.088  1.0996 -0.1380  0.3251
11620SOL    HW235439   4.599   2.052  -0.013  0.8304 -0.3562  0.5161
11621SOL     OW35440   0.387   9.436   8.391  0.1118 -0.5471 -0.8233
11621SOL    HW135441   0.309   9.484   8.417  0.2938 -0.4067 -0.5312
11621SOL    HW235442   0.458   9.476   8.441  0.1821 -1.4749 -0.1486
11622SOL     OW35443   5.707   8.128   9.585  0.0400  0.0075 -0.5107
11622SOL    HW135444   5.682   8.217   9.559 -0.5495 -0.3339 -1.1386
11622SOL    HW235445   5.738   8.138   9.675 -1.3051  0.6407 -0.0913
11623SOL     OW35446   4.007   3.139   9.186 -0.3978 -0.6774  0.4352
11623SOL    HW135447   3.929   3.184   9.155 -0.1022 -0.0880  0.5204
11623SOL    HW235448   3.991   3.047   9.167 -0.9879 -0.5304  0.1913
11624SOL     OW35449   2.557   3.203   7.441 -0.0913  0.0488 -0.4450
11624SOL    HW135450   2.529   3.273   7.501  0.1825  0.4873 -0.8161
11624SOL    HW235451   2.645   3.229   7.414  1.1108 -1.7921  1.4444
11625SOL     OW35452   9.438   4.834   3.658 -0.2273 -0.4444  0.1060
11625SOL    HW135453   9.394   4.781   3.592  0.0260 -1.0997  0.4467
11625SOL    HW235454   9.412   4.794   3.741  1.8458 -1.5526  0.2953
11626SOL     OW35455   9.748   8.430   9.514 -0.2838 -0.3424 -0.1610
11626SOL    HW135456   9.751   8.458   9.422 -3.2032  0.3271 -0.1482
11626SOL    HW235457   9.769   8.509   9.564  0.4156 -0.4779 -0.2398
11627SOL     OW35458   8.770   6.963   5.304  0.4445  0.5156 -0.4226
11627SOL    HW135459   8.841   6.948   5.365 -0.1954 -1.0017 -0.0013
11627SOL    HW235460   8.692   6.930   5.349 -0.4112  1.3968 -1.1911
11628SOL     OW35461   4.734   6.945   8.230  0.8153 -0.0710  0.0469
11628SOL    HW135462   4.670   6.994   8.179  2.5400  1.0605 -1.1323
11628SOL    HW235463   4.683   6.906   8.301 -0.8655  2.2424  0.2082
11629SOL     OW35464   2.473   9.440   5.168 -0.5734 -0.1348 -0.4598
11629SOL    HW135465   2.421   9.365   5.195 -0.3238 -0.4145 -0.7532
11629SOL    HW235466   2.564   9.412   5.179 -0.4783  0.2247 -0.2918
11630SOL     OW35467   9.935   5.766   7.162  0.5612  0.7068 -0.1063
11630SOL    HW135468  10.003   5.803   7.105  0.0727  0.8133 -0.6313
11630SOL    HW235469   9.893   5.843   7.201  1.3306  0.6177  0.9315
11631SOL     OW35470   4.246   1.892   4.802 -0.6457  0.1323  0.6240
11631SOL    HW135471   4.262   1.800   4.821  1.8117  0.6171  1.2825
11631SOL    HW235472   4.286   1.906   4.717 -1.8851  0.4063  0.0659
11632SOL     OW35473   8.562   9.615   1.779  0.1998 -0.2788 -0.0804
11632SOL    HW135474   8.632   9.556   1.752  1.5672  0.8985  0.7585
11632SOL    HW235475   8.565   9.616   1.874 -0.6435  0.1611 -0.0437
11633SOL     OW35476   9.444   3.348   5.399 -0.1316 -0.7229 -0.1654
11633SOL    HW135477   9.366   3.385   5.357 -1.2789 -1.7901  0.9524
11633SOL    HW235478   9.426   3.352   5.493  0.2573 -2.8573  0.0486
11634SOL     OW35479   1.503   8.099   3.058 -0.2113 -0.1313 -0.2894
11634SOL    HW135480   1.456   8.044   2.995  0.4749  0.3328 -1.2253
11634SOL    HW235481   1.495   8.188   3.023  0.4675  0.0897  0.0966
11635SOL     OW35482   6.128   9.902   9.020  0.2223 -0.6232  0.1873
11635SOL    HW135483   6.143   9.986   9.062 -0.5378 -0.4525  0.1431
11635SOL    HW235484   6.114   9.841   9.092  0.9972 -0.7609  0.2248
11636SOL     OW35485   0.700   2.092   7.190  0.2580  0.3124 -0.4280
11636SOL    HW135486   0.718   2.157   7.258 -1.4037  0.4708 -0.1019
11636SOL    HW235487   0.724   2.008   7.230 -0.5707  0.4168  0.3123
11637SOL     OW35488   5.801   0.591   4.034 -0.1806  0.4452 -0.5267
11637SOL    HW135489   5.765   0.504   4.016  1.2730 -0.8063  2.0545
11637SOL    HW235490   5.892   0.587   4.005  0.6260  0.1835  1.8621
11638SOL     OW35491   2.927   5.447   2.273  0.3890  0.2921  0.3200
11638SOL    HW135492   3.007   5.493   2.298  1.6995 -1.4347 -0.4314
11638SOL    HW235493   2.901   5.487   2.190  0.8879  0.4136  0.2185
11639SOL     OW35494   2.742   3.558   4.971 -0.5336  0.2113  0.2965
11639SOL    HW135495   2.679   3.518   4.912  0.0391 -0.9607  0.4467
11639SOL    HW235496   2.786   3.484   5.013  0.8531  0.9911  0.2772
11640SOL     OW35497   9.498   0.709   0.066 -0.1862  0.0127 -0.3422
11640SOL    HW135498   9.518   0.731   0.157  0.5525 -1.2905 -0.1617
11640SOL    HW235499   9.583   0.694   0.026 -0.5608 -2.4322 -0.4131
11641SOL     OW35500   4.831   0.242   3.239 -0.2554 -0.4930  0.5402
11641SOL    HW135501   4.772   0.175   3.273 -0.1887 -1.2471 -0.7490
11641SOL    HW235502   4.814   0.244   3.145  1.3588 -0.3286  0.2188
11642SOL     OW35503   8.430   2.576   6.777 -0.0643  0.2001 -0.3098
11642SOL    HW135504   8.444   2.642   6.845  1.3831 -0.9382  0.5500
11642SOL    HW235505   8.381   2.623   6.709 -0.9802  1.5627  1.1855
11643SOL     OW35506   7.686   6.634   9.245  0.6607  0.1826  0.1894
11643SOL    HW135507   7.710   6.561   9.188 -1.6842 -1.8209  1.5692
11643SOL    HW235508   7.603   6.666   9.210 -0.3613 -0.5074  1.8502
11644SOL     OW35509   1.778   3.911   8.494 -0.1665 -0.0783  0.6204
11644SOL    HW135510   1.839   3.961   8.440 -1.0835  2.3878  1.7406
11644SOL    HW235511   1.768   3.828   8.447  0.4190  1.2374 -2.0588
11645SOL     OW35512   2.714   2.006   1.148 -0.3764 -0.0894  0.3140
11645SOL    HW135513   2.710   2.100   1.130 -1.2258 -0.1817 -0.0474
11645SOL    HW235514   2.807   1.985   1.143  0.1379  1.1832  2.8229
11646SOL     OW35515   6.335   4.257   4.174 -0.4511 -0.5494 -0.2128
11646SOL    HW135516   6.386   4.337   4.166 -0.1043 -0.8137 -0.7084
11646SOL    HW235517   6.392   4.188   4.140 -0.9505 -0.9227 -0.3165
11647SOL     OW35518   9.442   4.469   9.674 -0.9218  0.5622  0.1776
11647SOL    HW135519   9.387   4.443   9.747  2.6834 -1.2999  2.4882
11647SOL    HW235520   9.484   4.550   9.703  0.9313 -0.4659  0.5175
11648SOL     OW35521   8.930   9.193   8.212  0.1161 -0.1805 -0.5350
11648SOL    HW135522   8.968   9.270   8.170 -0.3496  0.2364 -0.1982
11648SOL    HW235523   8.917   9.131   8.140  0.6014  0.0058 -0.7891
11649SOL     OW35524   2.659   7.990   2.941 -0.2192 -0.0891  0.4015
11649SOL    HW135525   2.580   7.999   2.994 -0.4470  1.3550 -0.1360
11649SOL    HW235526   2.699   8.076   2.944  1.0928 -0.6785  0.2668
11650SOL     OW35527   0.716   0.173   5.810 -0.1165 -0.3952  0.2220
11650SOL    HW135528   0.771   0.246   5.837  0.6298 -0.6695 -0.4852
11650SOL    HW235529   0.750   0.148   5.723 -0.1711 -1.7466  0.5575
11651SOL     OW35530   7.521   5.140   0.375  0.1882 -0.1836  0.2610
11651SOL    HW135531   7.528   5.137   0.470 -0.0797  0.9625  0.3375
11651SOL    HW235532   7.518   5.234   0.354  0.3983 -0.4107 -0.8871
11652SOL     OW35533   8.446   1.987   6.229 -0.2968 -0.8409  0.6059
11652SOL    HW135534   8.407   2.065   6.189  2.7738  0.7158  0.3785
11652SOL    HW235535   8.406   1.981   6.315  0.2266  1.7343  1.0839
11653SOL     OW35536   0.282   0.928   5.912 -0.1101  0.3193  0.1514
11653SOL    HW135537   0.212   0.929   5.978  0.3360 -2.1459  0.7468
11653SOL    HW235538   0.337   0.854   5.937  3.1368  2.5011  0.0806
11654SOL     OW35539   2.725   8.187   3.592  0.1836 -0.3612 -0.3975
11654SOL    HW135540   2.818   8.180   3.573  0.2642  0.5189 -0.3733
11654SOL    HW235541   2.705   8.109   3.643  1.0784 -0.1870  0.2470
11655SOL     OW35542   5.750   1.560   8.287  0.4969  0.1632 -0.3892
11655SOL    HW135543   5.769   1.467   8.304  1.6537  0.6720  1.3235
11655SOL    HW235544   5.760   1.569   8.193  1.7037 -1.1790 -0.4362
11656SOL     OW35545   8.820   3.237   3.896  0.4615  0.2392 -0.2164
11656SOL    HW135546   8.781   3.188   3.823 -1.7723  0.3465  0.8072
11656SOL    HW235547   8.805   3.181   3.972  1.4782  0.7605  0.3732
11657SOL     OW35548   1.042   2.927   8.625  0.0060 -0.7012  0.2227
11657SOL    HW135549   1.042   3.013   8.584 -1.8005  0.2126  1.9759
11657SOL    HW235550   1.133   2.896   8.617  0.9833  1.8618  0.5999
11658SOL     OW35551   5.542   3.810   7.031  1.0587 -0.5194  0.1209
11658SOL    HW135552   5.510   3.817   6.941  1.5908 -0.7787 -0.0950
11658SOL    HW235553   5.621   3.864   7.033  0.0519  0.9744  0.9324
11659SOL     OW35554   5.073   7.516   4.850 -0.2284 -0.5463 -0.1905
11659SOL    HW135555   5.014   7.531   4.925 -1.1391  0.3872 -1.0633
11659SOL    HW235556   5.017   7.477   4.783  0.5468 -1.2054 -0.4739
11660SOL     OW35557   9.251   2.896   5.487  0.1757  0.9000 -0.1408
11660SOL    HW135558   9.221   2.981   5.520 -2.1857 -0.3380  1.1340
11660SOL    HW235559   9.322   2.871   5.547  0.8129  1.8916 -0.4624
11661SOL     OW35560   6.548   8.738   1.029  0.3856 -0.4710 -0.5426
11661SOL    HW135561   6.598   8.819   1.036  0.1981 -0.4007  0.0204
11661SOL    HW235562   6.565   8.707   0.940  2.5603 -1.1920  0.0671
11662SOL     OW35563   6.611   9.220   7.069 -0.3104  0.1543  0.0897
11662SOL    HW135564   6.522   9.255   7.078 -0.3557 -0.1858  1.1128
11662SOL    HW235565   6.600   9.138   7.021 -0.3885  0.7498 -0.9294
11663SOL     OW35566   8.872   0.133   2.889  0.3345  0.0852  0.0794
11663SOL    HW135567   8.955   0.173   2.917 -0.2086  1.4612 -0.1781
11663SOL    HW235568   8.806   0.178   2.942 -0.3663  0.0644 -0.7664
11664SOL     OW35569   0.124   0.999   2.721 -0.4612  0.2808 -0.0086
11664SOL    HW135570   0.137   1.041   2.806  0.2523  0.1420 -0.0411
11664SOL    HW235571   0.210   1.004   2.679 -0.9394  0.8692 -0.9545
11665SOL     OW35572   8.525   9.525   3.398  0.2706  0.1008  0.2185
11665SOL    HW135573   8.490   9.454   3.344  2.3028 -0.2107 -0.7706
11665SOL    HW235574   8.561   9.481   3.475  0.3916  0.1923  0.2146
11666SOL     OW35575   3.443   8.339   2.595 -0.4991 -0.0810 -0.4676
11666SOL    HW135576   3.518   8.329   2.653 -0.3307  0.2090 -0.6369
11666SOL    HW235577   3.456   8.423   2.551 -1.2996  0.3328  0.0456
11667SOL     OW35578   7.727   5.007   0.596 -0.8990 -0.1040  0.4270
11667SOL    HW135579   7.665   5.072   0.629 -3.5912 -2.2606 -0.0738
11667SOL    HW235580   7.722   4.935   0.658  1.0824 -0.4060  0.2978
11668SOL     OW35581   2.238   8.963   2.179  0.0113 -0.6550  0.4978
11668SOL    HW135582   2.189   8.885   2.207  1.8934 -1.2924  2.2920
11668SOL    HW235583   2.292   8.933   2.106  0.1609 -0.8406  0.6823
11669SOL     OW35584   4.749   2.837   3.036  0.1087 -0.5113 -0.3263
11669SOL    HW135585   4.728   2.845   3.129 -1.3128  0.5774 -0.6901
11669SOL    HW235586   4.841   2.860   3.030 -0.2314  1.2903  0.6244
11670SOL     OW35587   2.726   5.730   5.581 -0.3541 -0.0774  0.4486
11670SOL    HW135588   2.659   5.745   5.515 -0.6581 -0.2881  0.7097
11670SOL    HW235589   2.685   5.673   5.645 -1.2043  2.5961  2.5076
11671SOL     OW35590   3.033   0.430   8.059 -0.0435 -0.3832  0.1518
11671SOL    HW135591   3.065   0.519   8.045  1.1431 -0.6035  1.2511
11671SOL    HW235592   3.098   0.374   8.016  0.7438 -0.8105  1.8146
11672SOL     OW35593   1.292   7.839   6.897  0.4919 -0.9272  0.3476
11672SOL    HW135594   1.313   7.932   6.893 -1.7766 -0.3594  0.4419
11672SOL    HW235595   1.366   7.796   6.854  1.0229  1.0075 -0.8041
11673SOL     OW35596   5.600   2.529   7.814 -0.6045  0.4811 -0.4623
11673SOL    HW135597   5.538   2.464   7.848  0.7964 -1.0036 -0.5885
11673SOL    HW235598   5.677   2.519   7.870  0.2058  0.9357 -1.4773
11674SOL     OW35599   0.237   1.525   8.432  0.2388 -0.2113 -0.2137
11674SOL    HW135600   0.272   1.489   8.513  0.1809 -1.3233 -0.6658
11674SOL    HW235601   0.217   1.448   8.378 -1.1991  0.4439 -0.6725
11675SOL     OW35602   7.171   8.176   4.295 -0.1586 -0.8012  0.4707
11675SOL    HW135603   7.170   8.106   4.229  1.1530  0.8482 -1.4318
11675SOL    HW235604   7.209   8.135   4.373  1.2941 -2.0667 -0.8251
11676SOL     OW35605   3.145   2.903   6.301  0.3206 -0.2921 -0.1095
11676SOL    HW135606   3.074   2.966   6.286  0.2518  0.3078  2.3226
11676SOL    HW235607   3.213   2.953   6.345  1.3245 -1.3882 -0.3569
11677SOL     OW35608   3.427   9.639   2.156  0.1183  0.3897  0.0733
11677SOL    HW135609   3.518   9.647   2.185  0.9142 -0.3771 -1.9667
11677SOL    HW235610   3.407   9.546   2.162 -0.9470  0.6832  1.5405
11678SOL     OW35611   0.244   5.722   8.776 -0.2099 -0.1803 -0.3925
11678SOL    HW135612   0.299   5.763   8.843  1.6002 -0.3286 -1.7064
11678SOL    HW235613   0.154   5.739   8.805  0.5020  0.9819  1.3102
11679SOL     OW35614   9.683   2.328   4.220 -0.4016 -0.4971  0.0903
11679SOL    HW135615   9.587   2.330   4.214 -0.5706  0.7599  2.1297
11679SOL    HW235616   9.707   2.418   4.241  1.0869 -1.1072  1.1550
11680SOL     OW35617   9.258   0.283   9.598 -0.1166  0.2111 -0.0034
11680SOL    HW135618   9.225   0.354   9.653  0.0776  1.0642 -0.9495
11680SOL    HW235619   9.347   0.267   9.631  0.1009  0.9047 -0.2234
11681SOL     OW35620   5.905   3.435   5.278  0.1755  0.9509 -0.1935
11681SOL    HW135621   5.909   3.440   5.182  0.7319 -3.8428 -0.6477
11681SOL    HW235622   5.812   3.423   5.298  0.3416 -1.5069 -0.5890
11682SOL     OW35623   4.570   0.318   1.596 -0.6142 -0.2498  0.0434
11682SOL    HW135624   4.501   0.275   1.647 -0.4660  0.4242  0.8290
11682SOL    HW235625   4.632   0.350   1.662 -0.2946  0.4306 -0.5761
11683SOL     OW35626   7.940   4.168   7.405 -0.4498 -0.3157 -0.2081
11683SOL    HW135627   8.017   4.152   7.351  0.6468 -1.9960  1.6860
11683SOL    HW235628   7.963   4.245   7.458 -0.2559 -0.5310  0.0229
11684SOL     OW35629   3.628   2.591   6.586  0.0129  0.4770  0.3432
11684SOL    HW135630   3.533   2.607   6.591 -0.1659 -0.0824 -0.9337
11684SOL    HW235631   3.638   2.530   6.513  1.2933 -0.1066  0.9763
11685SOL     OW35632   2.959   0.398   5.715 -0.3465 -0.5540 -0.5640
11685SOL    HW135633   2.914   0.440   5.642 -1.2407 -1.4204 -0.5352
11685SOL    HW235634   2.917   0.312   5.723 -0.2734 -0.4811  0.9502
11686SOL     OW35635   3.265   9.546   7.864  0.2501  0.1289  0.0084
11686SOL    HW135636   3.314   9.499   7.932  0.7468 -0.3506 -0.6552
11686SOL    HW235637   3.285   9.638   7.879  0.0920  0.0527  0.7057
11687SOL     OW35638   4.008   7.330   9.342 -0.0932 -0.3231 -0.9811
11687SOL    HW135639   4.046   7.326   9.254  1.3600  0.8480 -0.4603
11687SOL    HW235640   4.075   7.290   9.398  0.1195  1.1914 -0.1166
11688SOL     OW35641   5.308   6.870   5.380  0.1492 -0.0578 -0.2577
11688SOL    HW135642   5.310   6.775   5.367 -1.6180  0.0511 -1.8322
11688SOL    HW235643   5.283   6.905   5.294 -1.1708  1.6757  0.7653
11689SOL     OW35644   3.114   4.965   5.138 -0.2837 -0.0846 -0.2458
11689SOL    HW135645   3.054   5.014   5.195  1.3700 -0.2954  1.8090
11689SOL    HW235646   3.184   5.027   5.117  0.9652 -0.9863  1.0098
11690SOL     OW35647   7.249   8.640   7.907 -0.5563 -0.2850  0.4709
11690SOL    HW135648   7.158   8.664   7.925 -0.7176  0.4863 -1.2107
11690SOL    HW235649   7.262   8.558   7.955 -2.9788 -1.8753 -1.3309
11691SOL     OW35650   4.314   0.245   5.821 -0.1641  0.1541 -0.2237
11691SOL    HW135651   4.253   0.280   5.757  4.4127  1.2333 -4.7318
11691SOL    HW235652   4.315   0.150   5.804 -0.5314  0.1441 -0.1846
11692SOL     OW35653   5.349   7.089   6.957 -0.4098  0.0413  0.6818
11692SOL    HW135654   5.308   7.017   7.004 -0.6384 -0.3727 -0.1378
11692SOL    HW235655   5.278   7.128   6.905  0.3158 -1.1488 -1.3256
11693SOL     OW35656   8.006   7.017   0.630 -0.8228  0.0378 -0.3844
11693SOL    HW135657   8.092   6.998   0.594 -0.4762  0.6089  0.1388
11693SOL    HW235658   7.950   6.947   0.596 -0.0037 -0.7518 -0.1488
11694SOL     OW35659   3.368   9.307   0.682  0.4786  0.8093  0.1675
11694SOL    HW135660   3.294   9.363   0.659 -0.5303 -0.0698  1.1214
11694SOL    HW235661   3.422   9.361   0.740 -0.3173  0.9199  0.8222
11695SOL     OW35662   7.456   6.843   9.696 -0.0066  0.2445  0.3021
11695SOL    HW135663   7.428   6.830   9.605  1.4151 -0.3960 -0.0750
11695SOL    HW235664   7.487   6.934   9.698  0.5943  0.0527 -0.0428
11696SOL     OW35665   5.724   0.685   0.226  0.1065 -0.1129  0.0030
11696SOL    HW135666   5.674   0.730   0.157 -0.6616  0.3151  0.8232
11696SOL    HW235667   5.716   0.742   0.302  0.9750 -0.5720  0.4479
11697SOL     OW35668   9.329   7.561   4.879  0.6442 -0.1143  0.8270
11697SOL    HW135669   9.409   7.585   4.832  0.8146 -2.1867 -0.0469
11697SOL    HW235670   9.259   7.603   4.830  0.7669 -2.6293 -1.7459
11698SOL     OW35671   3.825   0.956   7.931  0.4464 -0.2177  0.0739
11698SOL    HW135672   3.853   0.957   8.023 -1.0275  2.1656  0.6058
11698SOL    HW235673   3.839   0.866   7.902 -1.4309 -1.7699  3.4315
11699SOL     OW35674   1.147   5.751   3.407  0.8429  0.4491  0.2691
11699SOL    HW135675   1.145   5.697   3.486 -1.8673 -0.7378 -0.5078
11699SOL    HW235676   1.155   5.689   3.335  0.3232  1.2943 -0.5376
11700SOL     OW35677   7.625   1.139   7.487  0.1336  0.1422  0.3117
11700SOL    HW135678   7.691   1.177   7.429  0.5658  0.7889  1.2161
11700SOL    HW235679   7.541   1.156   7.443  0.4751  0.3788 -0.2517
11701SOL     OW35680   2.566   0.909   8.198 -0.5035  0.1143 -0.2707
11701SOL    HW135681   2.533   0.903   8.287  1.3039  1.8596  0.5917
11701SOL    HW235682   2.500   0.959   8.150 -0.6710  0.6691  0.5346
11702SOL     OW35683   7.213   3.219   5.721  0.5202  0.1630  0.1883
11702SOL    HW135684   7.264   3.255   5.648  1.3137 -0.8156  0.2417
11702SOL    HW235685   7.192   3.295   5.775  1.0911  0.7175 -0.3478
11703SOL     OW35686   7.025   3.398   2.795  0.4665  0.0505 -0.6821
11703SOL    HW135687   7.024   3.305   2.773  0.2941  0.5392 -2.9872
11703SOL    HW235688   6.934   3.426   2.788  0.2064  0.0960  1.7828
11704SOL     OW35689   7.030   4.806   9.031  0.0863 -0.0142 -0.0118
11704SOL    HW135690   7.024   4.874   8.964  0.4325 -0.3529 -0.3823
11704SOL    HW235691   7.106   4.832   9.084  0.8975 -0.7119 -0.8204
11705SOL     OW35692   1.501   7.708   5.882  0.5502 -0.0326  0.1137
11705SOL    HW135693   1.512   7.766   5.957  0.2578  0.9370 -0.5805
11705SOL    HW235694   1.407   7.690   5.879  0.5401  0.0570 -0.1118
11706SOL     OW35695   3.679   9.641   2.229  0.2087 -0.1410  0.6836
11706SOL    HW135696   3.705   9.643   2.321  0.1188 -1.1115  0.7412
11706SOL    HW235697   3.697   9.552   2.201 -1.7127 -0.4735  0.3460
11707SOL     OW35698   6.258   7.268   9.308  0.4608 -0.4770 -0.0515
11707SOL    HW135699   6.178   7.321   9.307  0.8464  0.1162 -1.2069
11707SOL    HW235700   6.251   7.213   9.229  1.5906  0.2113 -0.6570
11708SOL     OW35701   2.810   5.162   7.331 -0.0643 -0.5796  0.6153
11708SOL    HW135702   2.737   5.176   7.271 -0.0854 -0.9569  0.5492
11708SOL    HW235703   2.871   5.233   7.311  0.0543 -0.8647 -0.0471
11709SOL     OW35704   9.109   1.510   6.327  0.4172 -0.1274  0.1949
11709SOL    HW135705   9.055   1.486   6.402  1.8989  1.0912  1.7659
11709SOL    HW235706   9.049   1.552   6.266 -0.3473  2.0034  2.2635
11710SOL     OW35707   5.183   9.178   5.945 -0.2232 -0.6232  0.3265
11710SOL    HW135708   5.094   9.205   5.922  0.4044  0.8859 -0.5340
11710SOL    HW235709   5.234   9.194   5.866  1.2151  0.6419  1.4452
11711SOL     OW35710   7.339   0.051   2.909  0.2258  0.3300 -0.3235
11711SOL    HW135711   7.360   0.061   3.002 -0.9428  1.6105 -0.1722
11711SOL    HW235712   7.252   0.089   2.899 -0.4570 -1.4021 -1.6296
11712SOL     OW35713   3.265   7.323   8.364  0.1708 -0.2714 -0.1364
11712SOL    HW135714   3.262   7.403   8.416  1.4794  0.2380 -0.7851
11712SOL    HW235715   3.208   7.262   8.410 -2.9913  1.7957 -1.0239
11713SOL     OW35716   3.751   5.735   6.240 -0.2777  0.7631  0.5206
11713SOL    HW135717   3.815   5.703   6.175 -0.1383 -0.0759  1.0591
11713SOL    HW235718   3.674   5.757   6.188  0.2450  1.2215 -0.0724
11714SOL     OW35719   1.399   5.218   5.786  0.0578 -0.0879 -0.0347
11714SOL    HW135720   1.455   5.182   5.855  0.3583  2.3797  1.1270
11714SOL    HW235721   1.383   5.144   5.727  1.1766 -1.8770  1.7656
11715SOL     OW35722   6.125   4.099   1.200 -0.0069  0.4992  0.1667
11715SOL    HW135723   6.173   4.057   1.271  0.5522  1.0589  0.1278
11715SOL    HW235724   6.193   4.135   1.143 -0.4020 -0.9196 -1.2770
11716SOL     OW35725   2.925   2.503   0.895  0.0495  0.8827 -0.3597
11716SOL    HW135726   2.911   2.409   0.888  0.1597  0.7696  0.7868
11716SOL    HW235727   2.913   2.536   0.806  0.8031 -0.3182 -0.9280
11717SOL     OW35728   1.930   2.291   7.720 -0.6278  0.5281  0.0427
11717SOL    HW135729   1.906   2.329   7.804  1.0418 -0.4105  0.9946
11717SOL    HW235730   2.014   2.247   7.736  0.9018  2.1701 -2.6278
11718SOL     OW35731   9.921   6.445   1.088  0.0383 -0.2372 -0.1624
11718SOL    HW135732   9.969   6.527   1.083 -0.1362 -0.1612 -0.6221
11718SOL    HW235733   9.855   6.459   1.156 -0.6958  0.3769 -0.9784
11719SOL     OW35734   6.306   7.609   4.809 -0.1965  0.1059 -0.0925
11719SOL    HW135735   6.368   7.675   4.778 -0.2957  0.6769  0.8886
11719SOL    HW235736   6.330   7.530   4.761  0.6786  0.5556 -0.4234
11720SOL     OW35737   5.350   0.314   0.816 -0.2766 -0.0738 -0.0646
11720SOL    HW135738   5.282   0.248   0.798  0.5259 -0.7862 -0.5548
11720SOL    HW235739   5.400   0.319   0.735  0.5267  0.1193  0.4368
11721SOL     OW35740   5.771   0.831   4.184  0.3338  0.1012 -0.4335
11721SOL    HW135741   5.860   0.856   4.159  0.5290 -1.8501 -1.8812
11721SOL    HW235742   5.755   0.749   4.137 -2.4125  0.6525 -0.6037
11722SOL     OW35743   4.623   0.042   9.132 -0.0179  0.1759 -0.0865
11722SOL    HW135744   4.591   0.089   9.209 -0.2818 -1.1194  0.6229
11722SOL    HW235745   4.703   0.088   9.108 -0.6289  1.4138  0.1402
11723SOL     OW35746   3.723   9.914   4.653 -0.2058  0.2317  0.4093
11723SOL    HW135747   3.645   9.866   4.624  0.2020 -0.1624 -0.0502
11723SOL    HW235748   3.785   9.846   4.680 -1.2764  0.5680  4.2763
11724SOL     OW35749   4.073   1.649   1.417 -0.6534 -0.1008 -0.5147
11724SOL    HW135750   4.011   1.672   1.347  1.4491  1.8382 -1.8606
11724SOL    HW235751   4.154   1.626   1.372  0.2103 -0.7589  1.2480
11725SOL     OW35752   2.875   0.552   6.557 -0.1150  0.0671  0.2636
11725SOL    HW135753   2.958   0.557   6.605 -0.4517 -0.4574  0.9259
11725SOL    HW235754   2.861   0.459   6.542  1.1055  0.2895 -2.9388
11726SOL     OW35755   6.693   5.685   6.024  0.6774  0.1219 -0.4317
11726SOL    HW135756   6.754   5.681   5.950 -2.0344  3.5961 -3.2255
11726SOL    HW235757   6.657   5.597   6.031  2.4508 -0.7982 -1.9430
11727SOL     OW35758   8.440   7.266   9.662 -0.2099  0.6015 -0.1184
11727SOL    HW135759   8.489   7.348   9.655  2.0954 -0.4990  1.5781
11727SOL    HW235760   8.498   7.201   9.621 -0.8476 -0.5572  0.7670
11728SOL     OW35761   1.619   7.813   6.144 -0.4244  0.4252 -0.1379
11728SOL    HW135762   1.615   7.790   6.237 -1.2228  1.4740  0.0966
11728SOL    HW235763   1.573   7.896   6.138 -0.7434  0.1559 -1.5539
11729SOL     OW35764   5.698   7.206   9.141  0.0867 -0.0769 -0.0161
11729SOL    HW135765   5.711   7.111   9.145 -0.7513 -0.1488  2.0755
11729SOL    HW235766   5.781   7.240   9.106  0.8583 -1.4913  0.3503
11730SOL     OW35767   1.719   0.431   5.732  0.0362 -0.4371 -0.6102
11730SOL    HW135768   1.783   0.391   5.792 -0.4897  0.1630  0.3852
11730SOL    HW235769   1.726   0.525   5.749 -0.6817 -0.3199 -0.9224
11731SOL     OW35770   7.535   3.470   2.347  0.0616 -0.6323 -0.3144
11731SOL    HW135771   7.470   3.538   2.327 -1.3443 -1.1616  2.0460
11731SOL    HW235772   7.585   3.505   2.421  0.2373 -1.5750  0.0279
11732SOL     OW35773   3.594   3.033   3.236  0.1038  0.4414  0.1611
11732SOL    HW135774   3.545   2.959   3.200 -0.1262  0.7286 -0.1235
11732SOL    HW235775   3.676   3.035   3.187 -0.2403  0.8777 -0.4118
11733SOL     OW35776   4.023   7.119   6.522 -0.0495  0.8092  0.2138
11733SOL    HW135777   4.074   7.072   6.457 -1.6342 -0.7265  0.0188
11733SOL    HW235778   4.088   7.149   6.587  1.1663 -0.3839 -0.4210
11734SOL     OW35779   8.903   4.832   1.391 -0.8796  0.3556 -0.1577
11734SOL    HW135780   8.814   4.817   1.361 -1.5516  0.1610  1.7751
11734SOL    HW235781   8.898   4.825   1.486  0.6413  3.2134  0.2514
11735SOL     OW35782   1.997   4.650   0.050  0.4792 -0.4500 -0.2729
11735SOL    HW135783   1.989   4.691  -0.036  1.6510 -0.8190 -0.5858
11735SOL    HW235784   2.072   4.695   0.090 -0.7609  0.5291  1.0502
11736SOL     OW35785   5.012   3.646   5.643 -0.0207  0.6027 -0.1738
11736SOL    HW135786   5.103   3.658   5.673  1.1681 -0.7953 -2.8815
11736SOL    HW235787   4.987   3.731   5.607 -0.2227  1.2831  1.4544
11737SOL     OW35788   9.971   1.274   8.488  0.2768 -0.0303  0.1698
11737SOL    HW135789   9.912   1.209   8.449  0.2994  1.4813 -2.7002
11737SOL    HW235790   9.912   1.338   8.529  0.0161  0.1949 -0.5347
11738SOL     OW35791   5.759   3.023   3.911 -0.0694  0.4927 -0.1196
11738SOL    HW135792   5.667   3.005   3.930  0.0177  0.9085  0.7593
11738SOL    HW235793   5.771   2.995   3.820 -0.8220 -0.4314  0.0553
11739SOL     OW35794   2.707   8.642   0.726 -0.2073  0.2019 -0.0662
11739SOL    HW135795   2.630   8.691   0.699 -1.7168  0.6827  4.2706
11739SOL    HW235796   2.679   8.550   0.725  0.4656 -0.0372 -1.8678
11740SOL     OW35797   4.000   1.996   1.666 -0.0264  0.3823  0.8138
11740SOL    HW135798   4.054   1.920   1.646  0.9534  0.9289  1.3553
11740SOL    HW235799   4.062   2.068   1.679 -0.7481  0.6972  2.9659
11741SOL     OW35800   9.526   1.526   3.109 -0.1944 -1.0231  0.2173
11741SOL    HW135801   9.432   1.515   3.099 -0.2610  0.3859 -1.0240
11741SOL    HW235802   9.536   1.567   3.195 -0.5026 -3.0417  1.2910
11742SOL     OW35803   1.046   9.861   9.146  0.1678  0.0780  0.3123
11742SOL    HW135804   1.039   9.767   9.164  2.0762 -0.7771 -2.6076
11742SOL    HW235805   0.956   9.892   9.147 -1.1323 -2.8728 -3.1286
11743SOL     OW35806   9.789   3.989   1.370 -0.3776  0.0755  0.0424
11743SOL    HW135807   9.882   3.967   1.369 -1.0725 -3.7282 -1.3484
11743SOL    HW235808   9.772   4.029   1.285 -0.0960  0.2913  0.0893
11744SOL     OW35809   1.519   0.312   6.005 -0.0104  0.1666  0.3176
11744SOL    HW135810   1.590   0.249   5.996  0.4601  0.5726  1.1650
11744SOL    HW235811   1.560   0.397   5.991 -0.5154  0.3443 -0.1271
11745SOL     OW35812   1.020   9.844   8.415 -0.2505 -0.1659  0.2767
11745SOL    HW135813   0.984   9.895   8.343 -1.0514 -1.8902 -0.6133
11745SOL    HW235814   0.973   9.876   8.493  0.6311  1.7125  0.1036
11746SOL     OW35815   7.560   8.133   5.661 -0.1508 -0.1621 -0.1752
11746SOL    HW135816   7.605   8.057   5.626 -0.5149 -0.3124 -0.3228
11746SOL    HW235817   7.467   8.109   5.661 -0.1368 -0.3366  1.2941
11747SOL     OW35818   1.442   1.790   6.741  0.2876 -0.2561 -0.6227
11747SOL    HW135819   1.503   1.857   6.712  0.2263 -0.1735 -0.5616
11747SOL    HW235820   1.376   1.838   6.791  0.4961 -0.4222 -0.1833
11748SOL     OW35821   0.064   2.289   3.601 -0.3106 -0.5359  0.0069
11748SOL    HW135822  -0.007   2.288   3.537  1.9937 -0.8567 -2.8056
11748SOL    HW235823   0.039   2.356   3.664 -2.5733  0.1427 -1.4721
11749SOL     OW35824   2.773   4.222   1.430  0.0721  0.1604  0.6586
11749SOL    HW135825   2.686   4.187   1.410 -0.3016  0.4058  1.7801
11749SOL    HW235826   2.756   4.310   1.463  0.8541  0.6863 -0.2858
11750SOL     OW35827   9.910   9.854   8.517 -0.4612  0.3086 -0.1816
11750SOL    HW135828   9.910   9.770   8.563 -1.3069  0.0762 -0.5951
11750SOL    HW235829  10.001   9.866   8.490  0.2372  0.7985  2.1314
11751SOL     OW35830   9.485   6.461   9.814  0.3285  0.6595 -0.3692
11751SOL    HW135831   9.392   6.441   9.803  0.5887 -0.3046 -0.9551
11751SOL    HW235832   9.487   6.534   9.876 -0.9143  1.9158 -1.7291
11752SOL     OW35833   3.820   3.641   2.434  0.5251  0.3711  0.2325
11752SOL    HW135834   3.818   3.547   2.451 -0.5081  0.2523 -0.4228
11752SOL    HW235835   3.846   3.649   2.343 -0.7450  0.6236 -0.1354
11753SOL     OW35836   5.352   1.848   9.775 -0.1105 -0.0885 -0.2595
11753SOL    HW135837   5.441   1.828   9.749 -0.6410 -0.7823 -1.6460
11753SOL    HW235838   5.302   1.769   9.752 -1.2006  0.5479 -0.1542
11754SOL     OW35839   7.189   8.417   8.859 -0.0222 -0.4777 -0.4242
11754SOL    HW135840   7.232   8.394   8.942  0.4384 -0.8520 -0.7619
11754SOL    HW235841   7.218   8.350   8.797  0.4730  0.3753 -1.1480
11755SOL     OW35842   2.987   0.175   0.478 -0.1178 -0.1232  0.4276
11755SOL    HW135843   3.018   0.113   0.544  0.7841  0.8108  0.8853
11755SOL    HW235844   2.924   0.124   0.426  1.5414 -1.8256 -0.0165
11756SOL     OW35845   9.474   5.004   0.107 -0.0355 -0.0853 -0.2074
11756SOL    HW135846   9.454   4.919   0.146  0.9053  0.2812  1.1395
11756SOL    HW235847   9.461   5.066   0.178  2.0828  0.5646 -0.3306
11757SOL     OW35848   9.344   5.037   2.806 -0.6220  0.3759 -0.1261
11757SOL    HW135849   9.273   5.093   2.775 -0.7265  0.2941 -0.0332
11757SOL    HW235850   9.309   4.995   2.884 -0.3221  0.6580  0.1648
11758SOL     OW35851   6.634   9.364   2.050 -0.6320 -0.1666  0.4554
11758SOL    HW135852   6.715   9.333   2.090  0.7379  1.9931 -0.4391
11758SOL    HW235853   6.572   9.293   2.062  1.4773 -2.0313  0.9085
11759SOL     OW35854   6.151   2.434   1.639 -0.2499 -0.1297  0.4626
11759SOL    HW135855   6.228   2.490   1.638 -0.6994  0.6477  2.8391
11759SOL    HW235856   6.111   2.447   1.553  0.1051  2.6304  0.6130
11760SOL     OW35857   4.013   9.730   5.905  0.2058  0.5071  0.0979
11760SOL    HW135858   4.035   9.795   5.972 -1.1070  0.6854  0.3811
11760SOL    HW235859   3.981   9.783   5.831  1.0497  0.2767 -0.4506
11761SOL     OW35860   0.399   7.182   4.413  0.0302 -0.5684  0.3725
11761SOL    HW135861   0.482   7.220   4.386  0.0214  0.0040  1.1306
11761SOL    HW235862   0.366   7.138   4.334  0.0479  0.9585 -0.5247
11762SOL     OW35863   3.915   1.917   9.532 -0.2661  0.0065  0.2116
11762SOL    HW135864   3.911   1.839   9.587  0.5624 -0.5319 -0.4521
11762SOL    HW235865   3.831   1.960   9.545 -0.1770 -0.2199  1.6977
11763SOL     OW35866   8.748   7.591   7.828  0.1842 -0.4537  0.1641
11763SOL    HW135867   8.825   7.615   7.777  0.6372 -1.9711  0.0801
11763SOL    HW235868   8.721   7.507   7.792 -2.0342  0.4086 -0.3588
11764SOL     OW35869   5.877   5.986   2.881 -0.2322 -0.4609 -0.2512
11764SOL    HW135870   5.798   5.951   2.839 -0.4827  0.7895 -0.8778
11764SOL    HW235871   5.848   6.018   2.966 -0.5795  0.6870 -0.7853
11765SOL     OW35872  -0.027   7.169   6.049  0.1135 -0.3704  0.2255
11765SOL    HW135873   0.016   7.254   6.060 -3.1585  1.6853 -1.2608
11765SOL    HW235874   0.023   7.125   5.981  0.8032  1.2233 -0.3456
11766SOL     OW35875   9.282   3.708   7.805 -0.2619 -0.3436 -0.1346
11766SOL    HW135876   9.253   3.625   7.842  1.1486 -0.4878  0.7526
11766SOL    HW235877   9.329   3.683   7.725 -1.4830 -0.2179 -0.9046
11767SOL     OW35878   2.964   6.274   7.352 -0.0387 -0.5413 -0.2055
11767SOL    HW135879   2.936   6.338   7.418 -2.3613 -0.6627 -0.9922
11767SOL    HW235880   3.022   6.323   7.294  1.8758 -0.3721  1.7423
11768SOL     OW35881   9.888   9.738   1.499  0.0710  0.3877  0.4095
11768SOL    HW135882   9.944   9.675   1.543  1.0800  0.2700 -0.9802
11768SOL    HW235883   9.866   9.697   1.416 -0.9340  1.0278  0.3419
11769SOL     OW35884   5.358   6.778   7.941  0.3885 -0.0738  0.0327
11769SOL    HW135885   5.421   6.718   7.900  0.9585  0.4864  0.0736
11769SOL    HW235886   5.399   6.802   8.024  0.7346  1.3021 -0.5042
11770SOL     OW35887   6.064   4.624   9.252 -0.1071  0.0696 -0.0064
11770SOL    HW135888   6.095   4.624   9.342 -1.0726 -0.4938  0.3435
11770SOL    HW235889   6.078   4.534   9.222 -0.9977 -0.0922  0.0320
11771SOL     OW35890   9.907   2.883   6.165 -0.2576  0.2162 -0.5138
11771SOL    HW135891   9.875   2.795   6.186 -1.4875  0.6400 -0.5684
11771SOL    HW235892   9.951   2.912   6.245  2.0291 -1.2265 -1.1418
11772SOL     OW35893   3.648   8.042   1.577 -0.1477 -0.2010 -0.2895
11772SOL    HW135894   3.738   8.072   1.566 -0.1762  0.0336  0.1008
11772SOL    HW235895   3.594   8.118   1.556 -0.2377 -0.1620  0.0749
11773SOL     OW35896   0.052   1.437   5.069  1.1378  0.1596 -0.5438
11773SOL    HW135897   0.127   1.446   5.011  0.3332 -1.0836 -1.8392
11773SOL    HW235898  -0.024   1.440   5.011  0.0283  2.9236  0.8641
11774SOL     OW35899   8.315   5.933   7.807 -0.1804  0.0797 -0.3760
11774SOL    HW135900   8.272   5.897   7.884  1.1027 -0.2190  0.2193
11774SOL    HW235901   8.387   5.986   7.841  0.0075  0.4834 -1.3497
11775SOL     OW35902   7.868   3.043   1.913 -0.4578 -0.0170 -0.5067
11775SOL    HW135903   7.786   3.080   1.881 -0.2361  0.3693 -0.6274
11775SOL    HW235904   7.916   3.018   1.834 -0.6856 -0.7473 -0.4256
11776SOL     OW35905   2.899   0.081   7.922 -0.0786  0.2097 -0.1868
11776SOL    HW135906   2.854   0.050   8.000  0.7737  2.1910  1.1882
11776SOL    HW235907   2.866   0.170   7.909  1.7218  0.8809 -0.4720
11777SOL     OW35908   8.930   6.402   3.353  0.3935 -0.2266 -0.4364
11777SOL    HW135909   8.955   6.310   3.364 -0.0904 -0.4170 -0.8828
11777SOL    HW235910   8.835   6.399   3.342  0.0527  0.5249  1.8386
11778SOL     OW35911   2.931   8.334   4.902  0.8799 -0.1193 -0.0688
11778SOL    HW135912   2.924   8.259   4.844  0.4723  0.5976 -0.9699
11778SOL    HW235913   2.911   8.299   4.989  2.8184 -1.4854 -0.1005
11779SOL     OW35914   8.738   6.741   8.740  0.3439 -0.0666 -0.4957
11779SOL    HW135915   8.666   6.796   8.709 -0.9773 -1.2066  0.4142
11779SOL    HW235916   8.756   6.772   8.828  0.5895 -0.1627 -0.5097
11780SOL     OW35917   3.171   4.240   3.867 -0.6935 -0.0147  0.6219
11780SOL    HW135918   3.142   4.303   3.933 -1.9622 -0.3225  0.3874
11780SOL    HW235919   3.255   4.274   3.836 -1.5342  1.7888  0.2131
11781SOL     OW35920   4.815   6.932   9.537  0.3059  0.0339 -0.4244
11781SOL    HW135921   4.878   6.982   9.590  0.6049 -2.1784  1.4995
11781SOL    HW235922   4.735   6.930   9.590 -0.4110  0.2763 -1.4645
11782SOL     OW35923   6.028   7.451   1.945  0.3578  0.2953  0.3576
11782SOL    HW135924   6.124   7.449   1.950  0.3589  0.1889  0.3196
11782SOL    HW235925   6.000   7.487   2.029  0.4730  1.4307 -0.0775
11783SOL     OW35926   9.104   8.091   1.894  0.3894 -0.1058 -0.1093
11783SOL    HW135927   9.099   8.137   1.810 -0.2621  0.8991  0.4640
11783SOL    HW235928   9.041   8.136   1.950  1.2250 -0.4084  1.0988
11784SOL     OW35929   9.017   8.729   3.147  0.2772  0.5860 -0.0918
11784SOL    HW135930   9.003   8.675   3.070 -0.0951  0.7930 -0.1729
11784SOL    HW235931   9.020   8.819   3.114  0.4649  0.6498  0.0919
11785SOL     OW35932   5.020   3.304   4.778  0.1628  0.1595  0.0103
11785SOL    HW135933   5.080   3.285   4.850  0.6174 -2.3486 -0.9147
11785SOL    HW235934   5.076   3.335   4.707 -0.3482  3.2159  0.8198
11786SOL     OW35935   3.709   4.059   8.959  0.3389  0.3094 -0.9399
11786SOL    HW135936   3.795   4.103   8.958  0.5364 -0.0725 -1.0599
11786SOL    HW235937   3.721   3.983   8.902 -0.1898  0.4584 -1.2534
11787SOL     OW35938   7.543   1.679   5.703  0.3097  0.9515  0.2022
11787SOL    HW135939   7.464   1.655   5.750 -0.1465  2.8422  0.4727
11787SOL    HW235940   7.614   1.662   5.765  0.0281  0.2390  0.3339
11788SOL     OW35941   1.065   2.363   0.183 -0.0623 -0.1770  0.3827
11788SOL    HW135942   1.103   2.410   0.109 -1.7804 -0.8632 -0.9959
11788SOL    HW235943   1.132   2.299   0.207  0.5167  0.0288 -0.6126
11789SOL     OW35944   7.071   4.152   2.749 -0.0333 -0.6347 -0.0739
11789SOL    HW135945   7.165   4.158   2.731  0.0262 -0.2228  0.3756
11789SOL    HW235946   7.064   4.158   2.844 -0.4344 -1.7180 -0.0123
11790SOL     OW35947   8.093   4.755   0.499  0.4051 -0.6832  0.2954
11790SOL    HW135948   8.154   4.740   0.427 -1.6033  0.7191 -1.8267
11790SOL    HW235949   8.022   4.692   0.484 -0.7416  0.5993  0.1298
11791SOL     OW35950   8.136   7.146   2.147  0.0495 -0.1371 -0.3608
11791SOL    HW135951   8.087   7.213   2.196  0.5688 -0.3700  0.5044
11791SOL    HW235952   8.201   7.196   2.098 -0.4347  0.0961 -0.7755
11792SOL     OW35953   4.142   5.420   2.211 -0.2684  0.1605 -0.1672
11792SOL    HW135954   4.088   5.377   2.277  0.7431 -1.9468 -0.6078
11792SOL    HW235955   4.080   5.467   2.155 -1.4854 -0.9060  0.2385
11793SOL     OW35956   6.605   2.113   6.266 -0.4391  0.5491  0.1973
11793SOL    HW135957   6.545   2.067   6.207 -1.4376  2.1909 -0.1403
11793SOL    HW235958   6.608   2.059   6.345 -0.8495 -0.5343 -0.5089
11794SOL     OW35959   2.718   4.341   0.806  0.2806  0.1121 -0.0361
11794SOL    HW135960   2.701   4.415   0.747  0.8860 -0.0154 -0.3700
11794SOL    HW235961   2.680   4.265   0.761  0.8951 -0.0145 -0.3453
11795SOL     OW35962   9.701   9.898   4.793 -0.2278 -0.3872 -0.8357
11795SOL    HW135963   9.620   9.925   4.837 -0.8906 -1.6376 -1.2423
11795SOL    HW235964   9.741   9.980   4.765  0.3871  0.5532  2.3079
11796SOL     OW35965   5.463   9.252   8.184 -0.2909  0.3518 -0.2401
11796SOL    HW135966   5.536   9.191   8.192 -0.2003  0.4538 -0.2756
11796SOL    HW235967   5.433   9.265   8.274 -0.7917 -0.3203 -0.3012
11797SOL     OW35968   8.888   3.995   4.291  0.0358  0.2109 -0.0755
11797SOL    HW135969   8.847   3.917   4.329 -0.1064  0.1373 -0.3754
11797SOL    HW235970   8.824   4.026   4.227  1.1918 -0.9682 -1.9209
11798SOL     OW35971   9.093   3.080   3.213  0.5646 -0.0697  0.0159
11798SOL    HW135972   9.024   3.142   3.235  0.4037 -0.2994  0.1645
11798SOL    HW235973   9.084   3.010   3.278  0.5632 -0.3852 -0.3205
11799SOL     OW35974   4.006   8.591   1.795  0.0510 -0.0114  0.5460
11799SOL    HW135975   4.048   8.650   1.733 -1.3413 -1.4773 -1.9829
11799SOL    HW235976   3.959   8.648   1.855 -0.5145  1.5189 -1.2563
11800SOL     OW35977   5.513   4.344   4.812  0.4197 -0.4068 -0.2753
11800SOL    HW135978   5.428   4.386   4.799  0.3603 -0.5693 -0.4247
11800SOL    HW235979   5.513   4.272   4.749  0.6042 -0.5021 -0.1662
11801SOL     OW35980   4.892   4.732   6.308  0.2030 -0.6206  0.0023
11801SOL    HW135981   4.937   4.816   6.294 -0.0257 -0.3882  0.6067
11801SOL    HW235982   4.862   4.706   6.221  0.1913 -0.0197 -0.1800
11802SOL     OW35983   7.678   8.648   8.891  0.5976 -0.6674  0.4092
11802SOL    HW135984   7.702   8.588   8.820 -0.1287 -1.0098  0.4453
11802SOL    HW235985   7.697   8.599   8.971  1.4036 -0.2867  0.4566
11803SOL     OW35986   3.854   1.293   1.752 -0.2700  0.5993  0.1859
11803SOL    HW135987   3.844   1.382   1.719 -2.9109  0.2204 -0.2342
11803SOL    HW235988   3.941   1.266   1.720 -0.4547  2.1394 -1.8414
11804SOL     OW35989   1.152   1.164   2.238 -0.3575 -0.3965  0.1439
11804SOL    HW135990   1.097   1.150   2.315  0.0854  1.4235  0.8476
11804SOL    HW235991   1.101   1.223   2.183  0.7462  1.1868  0.7346
11805SOL     OW35992   3.912   0.258   9.347 -0.5172 -0.3431  0.3751
11805SOL    HW135993   3.885   0.344   9.315 -2.2902 -1.1194 -0.3514
11805SOL    HW235994   3.940   0.211   9.269 -2.0897 -1.2823  0.3377
11806SOL     OW35995   3.947   3.215   3.445  0.2830  0.3080 -0.6203
11806SOL    HW135996   3.899   3.208   3.362 -0.3724  0.7202 -0.2873
11806SOL    HW235997   4.033   3.247   3.420 -0.0902  0.9766 -1.0954
11807SOL     OW35998   6.540   7.978   3.510  0.3482 -0.2450  0.0142
11807SOL    HW135999   6.519   8.028   3.432  1.2614 -0.8928 -0.6584
11807SOL    HW236000   6.600   8.033   3.559 -0.5134  0.3199  0.4591
11808SOL     OW36001   9.392   2.963   0.257  0.0699 -0.4217 -0.0942
11808SOL    HW136002   9.386   2.944   0.163  1.7571  1.1713 -0.5797
11808SOL    HW236003   9.308   2.936   0.292 -0.5457 -1.2184 -2.0344
11809SOL     OW36004   0.681   2.630   5.007 -0.7260  0.0936 -0.0706
11809SOL    HW136005   0.772   2.600   5.011 -0.8588 -0.5063 -1.0845
11809SOL    HW236006   0.632   2.554   4.974 -1.3166  0.9362 -1.2210
11810SOL     OW36007   8.815   4.432   7.681 -0.0563  0.2715 -0.2265
11810SOL    HW136008   8.742   4.460   7.626 -0.5285  0.1831  0.3457
11810SOL    HW236009   8.893   4.455   7.631 -0.4351  1.8909 -0.1225
11811SOL     OW36010   9.606   6.367   0.963 -0.2585  0.0583  0.0224
11811SOL    HW136011   9.602   6.271   0.957 -0.9904  0.1417 -1.2268
11811SOL    HW236012   9.698   6.386   0.981  0.5379 -0.7656 -2.7658
11812SOL     OW36013   7.605   8.339   7.170 -0.2756 -0.3662  0.0079
11812SOL    HW136014   7.601   8.422   7.123 -1.0162 -0.6892 -0.5184
11812SOL    HW236015   7.520   8.332   7.214 -0.1157 -0.7136  0.2641
11813SOL     OW36016   8.822   4.837   1.662 -0.1021 -0.3016  1.0105
11813SOL    HW136017   8.774   4.920   1.658 -2.4593 -1.6014  0.0612
11813SOL    HW236018   8.823   4.815   1.755 -2.9582 -1.0052  0.9710
11814SOL     OW36019   9.038   9.732   8.565 -0.3752 -0.3795 -0.1557
11814SOL    HW136020   9.104   9.717   8.632 -0.8394  1.0328  0.6518
11814SOL    HW236021   8.957   9.748   8.613 -0.6603  0.9433 -1.0108
11815SOL     OW36022   5.733   5.016   1.088 -0.4675 -0.0862 -0.5065
11815SOL    HW136023   5.667   5.082   1.069 -1.3685 -0.3560  1.4519
11815SOL    HW236024   5.803   5.063   1.132  0.1490  0.0002 -1.5478
11816SOL     OW36025   2.555   4.127   3.658  0.2115 -0.3494 -0.2272
11816SOL    HW136026   2.525   4.208   3.617 -0.2673 -0.7443 -0.6733
11816SOL    HW236027   2.634   4.152   3.705  0.9510  0.0625 -1.6381
11817SOL     OW36028   2.151   3.046   7.668 -0.5470 -0.0945 -0.3674
11817SOL    HW136029   2.080   3.062   7.606  1.9900  0.0111 -3.5104
11817SOL    HW236030   2.212   2.990   7.620  1.7718  0.2944  1.9239
11818SOL     OW36031   5.548   2.166   4.023  0.0162 -0.9191  0.4744
11818SOL    HW136032   5.536   2.259   4.040  1.2354 -0.8876  1.3303
11818SOL    HW236033   5.507   2.122   4.097  1.5099 -0.9537  1.3096
11819SOL     OW36034   0.262   7.755   1.019  0.5648 -0.5767  0.4172
11819SOL    HW136035   0.277   7.847   0.997 -1.1594 -0.0495  1.2272
11819SOL    HW236036   0.343   7.727   1.061  1.5556  0.2074 -0.9126
11820SOL     OW36037   2.301   1.063   0.902 -0.5335 -0.5563 -0.2966
11820SOL    HW136038   2.308   0.971   0.875  1.1024 -0.0388 -1.8383
11820SOL    HW236039   2.248   1.104   0.833  0.9277  0.1320 -1.0637
11821SOL     OW36040   8.054   7.578   0.640  0.2126  0.4107  0.0436
11821SOL    HW136041   7.974   7.631   0.638  0.0863  0.2119 -0.4319
11821SOL    HW236042   8.032   7.501   0.587  1.1911  1.0447 -1.3509
11822SOL     OW36043   3.755   0.167   4.173 -0.4536  0.3816 -0.2108
11822SOL    HW136044   3.734   0.163   4.079 -2.0249  1.2508  0.0609
11822SOL    HW236045   3.685   0.118   4.215 -0.0414  0.4265  0.5454
11823SOL     OW36046   7.848   2.143   0.017 -1.6627 -0.0433  0.3426
11823SOL    HW136047   7.823   2.062   0.061 -1.5486 -0.6185 -0.6224
11823SOL    HW236048   7.816   2.132  -0.073 -1.5507  0.9338  0.1768
11824SOL     OW36049   5.830   9.316   6.090 -1.0158 -0.5804  0.3331
11824SOL    HW136050   5.884   9.288   6.164  0.2352  0.5077 -0.1238
11824SOL    HW236051   5.865   9.267   6.016  0.3342  1.1378 -0.2270
11825SOL     OW36052   1.013   6.782   0.281 -0.7580 -0.2250  0.1085
11825SOL    HW136053   1.103   6.798   0.252 -0.7080  1.3190  0.9763
11825SOL    HW236054   0.994   6.693   0.254  1.2788 -0.8261  0.5046
11826SOL     OW36055   1.147   8.973   3.260  0.1064  0.0163 -0.4567
11826SOL    HW136056   1.130   8.969   3.166 -1.7293 -0.0949 -0.1494
11826SOL    HW236057   1.086   9.040   3.292  0.4186 -0.2468  0.7146
11827SOL     OW36058   7.135   4.849   7.657 -0.0990 -0.3516  0.1889
11827SOL    HW136059   7.129   4.924   7.597  1.3293 -1.1073 -0.9938
11827SOL    HW236060   7.164   4.886   7.740 -3.4348  0.9132  0.9448
11828SOL     OW36061   7.443   8.839   7.981  0.3199 -0.2636  0.3782
11828SOL    HW136062   7.374   8.773   7.988 -0.3443  0.4520  0.7074
11828SOL    HW236063   7.523   8.789   7.965 -0.5080 -1.0387 -1.7590
11829SOL     OW36064   6.728   6.338   0.384 -0.2080  0.1264 -0.2334
11829SOL    HW136065   6.661   6.269   0.388 -0.7545  0.6873  0.6695
11829SOL    HW236066   6.704   6.398   0.455  0.8472  0.7149 -0.3659
11830SOL     OW36067   1.043   5.090   2.452  0.0808  0.3020  0.0502
11830SOL    HW136068   1.004   5.166   2.497 -0.8407 -0.4446  0.5669
11830SOL    HW236069   1.130   5.082   2.490 -0.2554  0.3921  0.8614
11831SOL     OW36070   5.872   1.219   8.577  0.6082 -0.0033 -0.0256
11831SOL    HW136071   5.892   1.199   8.669  0.0027  0.4188  0.1992
11831SOL    HW236072   5.914   1.303   8.561  0.4013  0.0996 -0.0282
11832SOL     OW36073   0.287   6.228   4.843  0.6033 -0.0429  0.3732
11832SOL    HW136074   0.309   6.313   4.804 -0.8275  0.6983  1.0901
11832SOL    HW236075   0.244   6.180   4.772 -0.1759  0.5232  0.4534
11833SOL     OW36076   7.719   4.291   4.742  0.0093 -0.2846  0.3100
11833SOL    HW136077   7.630   4.256   4.736  0.1745 -0.6047 -0.3615
11833SOL    HW236078   7.773   4.227   4.695  0.7489 -0.6316  1.5760
11834SOL     OW36079   3.859   9.375   9.255  0.2357 -0.4683  0.2228
11834SOL    HW136080   3.787   9.436   9.242 -0.6153 -0.3027  4.3484
11834SOL    HW236081   3.831   9.295   9.211 -1.4428  0.2873 -0.1476
11835SOL     OW36082   9.161   5.910   5.561  0.4961  0.0076 -0.1792
11835SOL    HW136083   9.224   5.857   5.513 -1.0330 -2.6469  0.5627
11835SOL    HW236084   9.089   5.851   5.581 -1.0518  2.2150  1.3193
11836SOL     OW36085   5.671   0.910   6.472  0.2040 -0.3068  0.1800
11836SOL    HW136086   5.761   0.878   6.466  0.3302  0.0241  0.2851
11836SOL    HW236087   5.678   1.005   6.461  0.0976 -0.0322  2.1753
11837SOL     OW36088   7.434   4.485   1.432 -0.6298  0.3810  0.7031
11837SOL    HW136089   7.466   4.402   1.469  1.3903  0.9785  0.3989
11837SOL    HW236090   7.509   4.521   1.385 -2.0660  1.4113 -0.9290
11838SOL     OW36091   4.510   3.227   5.197 -0.0610 -0.1207 -0.1127
11838SOL    HW136092   4.560   3.291   5.248 -1.1678  0.6464  0.0504
11838SOL    HW236093   4.420   3.259   5.200 -0.8915 -2.3421  0.9786
11839SOL     OW36094   7.130   8.937   0.507 -0.4476  0.4908  0.3903
11839SOL    HW136095   7.164   8.983   0.430 -2.2329  1.3433  0.0397
11839SOL    HW236096   7.096   9.006   0.563  2.2459  0.0310  2.8015
11840SOL     OW36097   1.266   7.146   4.882  0.2273  0.2704 -0.2705
11840SOL    HW136098   1.249   7.232   4.843 -1.0871 -0.2504 -0.8897
11840SOL    HW236099   1.350   7.157   4.927  0.7628  1.4849 -1.4822
11841SOL     OW36100   9.482   2.454   8.127  0.7602 -0.4419 -0.4083
11841SOL    HW136101   9.421   2.382   8.143 -1.0904  1.3066  0.9702
11841SOL    HW236102   9.441   2.505   8.057 -0.0391  1.3554  1.2708
11842SOL     OW36103   6.469   5.511   1.767 -0.7209 -0.1746 -0.0334
11842SOL    HW136104   6.469   5.494   1.861 -0.6599 -0.6602 -0.1170
11842SOL    HW236105   6.452   5.425   1.727 -1.3325  0.1348 -0.4505
11843SOL     OW36106   2.986   1.069   6.208  0.4959  0.1864 -0.4680
11843SOL    HW136107   2.896   1.102   6.210 -0.2338 -1.5838  2.1500
11843SOL    HW236108   2.979   0.985   6.162  0.8577  0.1577 -0.4714
11844SOL     OW36109   8.857   1.686   7.495 -0.2144  0.3580 -0.6413
11844SOL    HW136110   8.834   1.668   7.404  0.1703  0.4821 -0.7654
11844SOL    HW236111   8.808   1.621   7.545  0.2060 -0.2431 -0.9988
11845SOL     OW36112   3.412   9.395   4.357  0.1746  0.2017 -0.7574
11845SOL    HW136113   3.382   9.314   4.313  2.1746 -0.2165 -1.4423
11845SOL    HW236114   3.477   9.431   4.298  1.2976  0.8668  0.8307
11846SOL     OW36115   1.424   6.781   3.890  0.3477 -0.3106 -0.3634
11846SOL    HW136116   1.392   6.735   3.812 -1.7543  0.0106  0.2361
11846SOL    HW236117   1.428   6.873   3.863  2.3952 -0.5254 -0.9030
11847SOL     OW36118   5.691   9.550   7.812  0.1301 -0.0588 -0.0235
11847SOL    HW136119   5.703   9.555   7.907  0.8236  0.0182 -0.1082
11847SOL    HW236120   5.666   9.459   7.795  1.0204 -0.3467  0.1372
11848SOL     OW36121   4.808   9.806   6.532  0.8973 -0.3596 -0.0601
11848SOL    HW136122   4.807   9.711   6.524  0.7112 -0.2727 -1.3051
11848SOL    HW236123   4.826   9.822   6.625 -0.1181 -1.6013  0.3910
11849SOL     OW36124   9.441   5.239   7.551  0.3932 -0.0626 -0.0498
11849SOL    HW136125   9.496   5.199   7.618  0.3451 -1.0029 -0.5628
11849SOL    HW236126   9.395   5.166   7.510 -0.3215  0.5949 -0.4489
11850SOL     OW36127   4.320   3.716   6.520  0.3619  0.0503  0.2374
11850SOL    HW136128   4.365   3.761   6.449 -2.7564  1.7925 -0.8356
11850SOL    HW236129   4.292   3.633   6.482  0.0833  0.2783 -0.0561
11851SOL     OW36130   1.044   9.768   0.485 -0.1215 -0.2071  0.3092
11851SOL    HW136131   1.125   9.720   0.465 -0.4540  0.2987 -2.9231
11851SOL    HW236132   0.984   9.702   0.519  1.2224 -0.8307  1.6080
11852SOL     OW36133   6.707   4.347   7.731 -0.2692 -0.6353  0.8783
11852SOL    HW136134   6.708   4.259   7.768  0.2120 -0.7497  0.6066
11852SOL    HW236135   6.774   4.395   7.780  1.5147 -1.2207 -0.8046
11853SOL     OW36136   4.169   8.489   1.017 -0.1212  0.3371  0.5307
11853SOL    HW136137   4.245   8.542   0.994 -1.2283  1.0230 -1.8838
11853SOL    HW236138   4.096   8.551   1.017 -1.0924 -0.7660 -0.0550
11854SOL     OW36139   5.818   5.111   0.688  0.6248  0.0838  0.0962
11854SOL    HW136140   5.844   5.137   0.776 -1.7707 -0.2491  0.9926
11854SOL    HW236141   5.786   5.021   0.698  1.0692 -0.2598 -1.2942
11855SOL     OW36142   9.401   5.563   8.145  0.1157  0.1217  0.1874
11855SOL    HW136143   9.485   5.576   8.190  1.1842 -0.8235 -1.4252
11855SOL    HW236144   9.343   5.628   8.184  1.1399 -0.2057  2.4361
11856SOL     OW36145   4.014   3.472   3.123  0.3855  0.1256 -0.4226
11856SOL    HW136146   3.924   3.473   3.157  0.3114 -3.3062 -0.1107
11856SOL    HW236147   4.004   3.462   3.028  0.4773  0.6445 -0.4912
11857SOL     OW36148   8.081   5.971   2.223 -0.1605  0.2383 -0.1637
11857SOL    HW136149   8.112   5.880   2.225 -0.1006  0.2516 -0.4962
11857SOL    HW236150   8.141   6.017   2.283  0.2013  0.1803 -0.4741
11858SOL     OW36151   8.647   0.065   8.650  0.1687  0.7400  0.2192
11858SOL    HW136152   8.585   0.017   8.705 -1.4598  2.0727 -0.3926
11858SOL    HW236153   8.710   0.101   8.712  0.0406 -0.1676  0.9084
11859SOL     OW36154   0.893   6.975   1.307  0.5685  0.0135 -0.2506
11859SOL    HW136155   0.976   6.970   1.259  2.0760 -0.4778  2.2589
11859SOL    HW236156   0.879   6.886   1.339  0.3425  0.5906  1.3241
11860SOL     OW36157   5.067   9.799   0.098  0.0958  0.1067  0.1127
11860SOL    HW136158   5.121   9.744   0.154  1.4455  0.3951 -0.8469
11860SOL    HW236159   5.067   9.885   0.141  0.0252 -0.0044  0.3380
11861SOL     OW36160   6.085   4.645   8.796  0.1317 -0.2987  0.1224
11861SOL    HW136161   6.173   4.681   8.803 -0.1748  0.6267 -0.4921
11861SOL    HW236162   6.051   4.648   8.885  1.0410 -1.5824  0.5450
11862SOL     OW36163   5.982   1.837   4.314 -0.1108  0.5793 -0.2379
11862SOL    HW136164   5.984   1.864   4.406  0.5994  1.1162 -0.4031
11862SOL    HW236165   5.889   1.820   4.296 -0.1496 -0.5221  0.8487
11863SOL     OW36166   5.728   6.317   7.889  0.5169  0.3006 -0.4762
11863SOL    HW136167   5.738   6.412   7.883  2.5162  0.2706  1.2090
11863SOL    HW236168   5.804   6.282   7.842  0.2907 -0.4345 -0.3057
11864SOL     OW36169   2.149   0.243   9.426  0.0260  0.0353  0.2888
11864SOL    HW136170   2.068   0.275   9.464  0.9506  0.2112  2.2280
11864SOL    HW236171   2.181   0.315   9.373 -1.1184 -0.0789 -0.5893
11865SOL     OW36172   9.853   4.940   7.675 -0.1216  0.3749  0.0573
11865SOL    HW136173   9.817   4.877   7.613  0.0101 -0.4624  0.8001
11865SOL    HW236174   9.779   4.963   7.732  0.1230 -0.1487  0.6087
11866SOL     OW36175   1.585   7.911   1.542 -0.5673  0.0086  0.3938
11866SOL    HW136176   1.550   7.853   1.610 -1.8301  1.1870  0.8119
11866SOL    HW236177   1.636   7.854   1.485 -0.2781 -1.1860  1.7814
11867SOL     OW36178   4.487   9.037   2.319 -0.1376  0.3965  0.4846
11867SOL    HW136179   4.501   9.085   2.401  0.9793 -0.0025  0.5405
11867SOL    HW236180   4.498   9.102   2.251  0.3184  0.4426  0.6010
11868SOL     OW36181   0.719   2.734   1.923  0.2228 -0.3229  0.1574
11868SOL    HW136182   0.706   2.669   1.992  1.5304  0.7236  1.4567
11868SOL    HW236183   0.789   2.697   1.869  0.6659 -0.2118  0.6424
11869SOL     OW36184   0.130   9.081   8.732 -0.2924 -0.7169  0.4097
11869SOL    HW136185   0.217   9.103   8.699  0.7493 -0.9662  2.7401
11869SOL    HW236186   0.147   9.026   8.809 -2.5641 -1.7856  0.2254
11870SOL     OW36187   1.834   5.474   6.733  0.1334  0.2288  0.5016
11870SOL    HW136188   1.811   5.489   6.642 -3.0765 -1.9672  0.7913
11870SOL    HW236189   1.921   5.434   6.729 -0.6341 -1.4224 -1.7911
11871SOL     OW36190   7.086   9.586   8.446  0.2060 -0.0181 -0.4630
11871SOL    HW136191   7.098   9.517   8.512  1.5039  0.1790 -0.4633
11871SOL    HW236192   7.173   9.600   8.410  0.1202  2.0627 -0.0287
11872SOL     OW36193   1.499   6.527   4.805  0.8503 -0.1969  0.0524
11872SOL    HW136194   1.481   6.484   4.721 -1.2773 -1.8999  1.2777
11872SOL    HW236195   1.569   6.475   4.844  1.0953 -0.0650 -0.2121
11873SOL     OW36196   8.482   8.400   6.532  0.1020  0.5737 -0.0044
11873SOL    HW136197   8.466   8.353   6.450  0.1859  2.0628 -0.9050
11873SOL    HW236198   8.460   8.336   6.601  3.0955 -1.8473 -1.0731
11874SOL     OW36199   3.733   7.396   8.924  0.0411 -0.1650  0.5207
11874SOL    HW136200   3.662   7.422   8.865  1.1207 -0.0308 -0.7605
11874SOL    HW236201   3.689   7.360   9.001 -1.5254  3.2574  1.4057
11875SOL     OW36202   0.280   9.761   5.871 -0.1916 -0.3032 -0.3182
11875SOL    HW136203   0.322   9.840   5.905  0.8884 -0.4069 -1.3763
11875SOL    HW236204   0.186   9.777   5.884 -0.2862  2.5130 -3.1868
11876SOL     OW36205   2.863   7.921   3.131 -0.8711  0.4635  0.5239
11876SOL    HW136206   2.801   7.974   3.181 -2.3335 -0.4681 -0.2372
11876SOL    HW236207   2.816   7.897   3.051  0.7065  0.2522 -0.3882
11877SOL     OW36208   9.325   0.918   2.777  0.2306 -0.2562  0.6763
11877SOL    HW136209   9.231   0.920   2.796  0.4165 -2.3708  2.2332
11877SOL    HW236210   9.337   0.983   2.708 -2.0530  1.4155  1.7174
11878SOL     OW36211   8.633   5.027   3.446  0.1802  0.2799  0.1466
11878SOL    HW136212   8.719   5.007   3.482 -0.4484 -1.4772  0.7410
11878SOL    HW236213   8.573   4.968   3.491 -1.2287  0.8773 -0.8660
11879SOL     OW36214   8.004   0.441   1.071  0.5593  0.2271  0.1648
11879SOL    HW136215   8.049   0.373   1.120 -0.1501 -0.6919 -0.4164
11879SOL    HW236216   7.927   0.463   1.125  1.1365  1.0633  0.6698
11880SOL     OW36217   1.237   5.429   7.666 -0.1842 -0.6197  0.0646
11880SOL    HW136218   1.268   5.362   7.726  1.1250  0.1600  0.2786
11880SOL    HW236219   1.157   5.392   7.628  0.9207 -2.6287 -0.4006
11881SOL     OW36220   3.093   7.692   7.502  0.0449  0.4080  0.5275
11881SOL    HW136221   3.094   7.596   7.503 -0.3223  0.3955  2.0933
11881SOL    HW236222   3.144   7.718   7.578 -0.6724  1.4290  0.6894
11882SOL     OW36223   1.899   5.210   2.800  0.1420 -0.3868  0.3524
11882SOL    HW136224   1.944   5.286   2.836 -0.1397  0.4437 -0.9941
11882SOL    HW236225   1.903   5.145   2.870 -0.1459  1.0528  1.7737
11883SOL     OW36226   5.034   7.757   6.510  0.1237  0.1417  0.4260
11883SOL    HW136227   5.039   7.661   6.510 -1.1497  0.0407  1.3503
11883SOL    HW236228   4.967   7.777   6.576 -0.8033  1.6030 -0.9019
11884SOL     OW36229   4.092   0.051   7.119  0.1838  0.2839 -0.5001
11884SOL    HW136230   4.030  -0.020   7.136 -0.5713  1.0891  0.1572
11884SOL    HW236231   4.062   0.124   7.174  1.4534  0.8365 -0.5056
11885SOL     OW36232   7.782   9.674   0.090 -0.0591 -0.1517  0.4482
11885SOL    HW136233   7.850   9.676   0.023 -0.1386  0.2317  0.3783
11885SOL    HW236234   7.778   9.582   0.117  0.0887 -0.2772  0.0492
11886SOL     OW36235   6.966   7.470   0.298  0.5046 -0.1645 -0.4216
11886SOL    HW136236   6.977   7.555   0.255  2.9549 -0.0279  0.3411
11886SOL    HW236237   7.002   7.482   0.386 -0.8824 -1.4962  0.3853
11887SOL     OW36238   0.508   3.030   6.624  0.2655  0.1395  0.0538
11887SOL    HW136239   0.535   3.070   6.706  2.4602  1.9646 -1.4308
11887SOL    HW236240   0.465   2.949   6.650  0.2989  0.9453  2.9958
11888SOL     OW36241   4.683   5.530   5.937 -0.2792 -0.0514  0.2427
11888SOL    HW136242   4.740   5.542   6.013 -2.5778 -0.1916  2.0918
11888SOL    HW236243   4.670   5.618   5.902 -0.1219  0.1624  0.7115
11889SOL     OW36244   6.068   2.475   4.056  0.5943 -0.3251 -0.4069
11889SOL    HW136245   6.052   2.401   4.115 -1.2374  0.3040 -0.0508
11889SOL    HW236246   6.098   2.546   4.113  1.3250 -0.4668 -0.6055
11890SOL     OW36247   9.538   9.343   9.993 -0.5813 -0.3653  0.3032
11890SOL    HW136248   9.491   9.405   9.938  1.5759 -0.5346 -1.9355
11890SOL    HW236249   9.513   9.257   9.960  0.2657 -0.4849 -0.0742
11891SOL     OW36250   2.277   0.874   9.446  0.3489  0.0557  0.1190
11891SOL    HW136251   2.272   0.823   9.526 -0.1614 -0.9630 -0.5358
11891SOL    HW236252   2.318   0.957   9.472  1.3657 -0.7485  1.1743
11892SOL     OW36253   1.914   8.169   0.453  0.0973  0.0567 -0.4124
11892SOL    HW136254   1.889   8.078   0.468  0.9611 -0.4235 -1.6895
11892SOL    HW236255   2.009   8.167   0.447  0.3387  1.4251  1.7881
11893SOL     OW36256   9.840   0.261   9.385 -0.0940  0.1800 -0.0776
11893SOL    HW136257   9.884   0.325   9.442 -1.8399  0.2662  1.2302
11893SOL    HW236258   9.857   0.293   9.296 -0.3152  2.0791  0.5181
11894SOL     OW36259   1.342   1.265   3.572  0.0206 -0.0431 -0.0017
11894SOL    HW136260   1.351   1.170   3.569 -0.0342 -0.0270 -2.3954
11894SOL    HW236261   1.376   1.289   3.658 -0.3342 -2.2422  0.8289
11895SOL     OW36262   0.566   9.808   6.810 -0.5129 -0.3158  0.2501
11895SOL    HW136263   0.651   9.763   6.817 -0.8126 -0.9822 -0.2574
11895SOL    HW236264   0.503   9.746   6.846 -0.7194  0.4435  1.2490
11896SOL     OW36265   7.725   2.772   0.046 -0.3070  0.3175 -0.1270
11896SOL    HW136266   7.804   2.814   0.079 -0.4882  1.6635 -1.2939
11896SOL    HW236267   7.727   2.684   0.083 -0.1263  1.4422  2.7598
11897SOL     OW36268   7.348   7.144   7.684 -0.7043  0.6270  0.0897
11897SOL    HW136269   7.361   7.144   7.778 -0.0982 -0.6113  0.0290
11897SOL    HW236270   7.386   7.062   7.654 -2.6404  0.0429 -0.9951
11898SOL     OW36271   5.885   1.867   4.920 -0.0543  0.8766  0.6440
11898SOL    HW136272   5.820   1.845   4.853  0.9719  2.1256 -0.8524
11898SOL    HW236273   5.960   1.811   4.899 -0.3511 -0.0005  1.8758
11899SOL     OW36274   8.294   9.507   2.700 -0.1153  0.8560  0.3513
11899SOL    HW136275   8.357   9.553   2.644 -0.5626 -1.4344 -2.2603
11899SOL    HW236276   8.342   9.431   2.733 -0.7492  0.5247  0.5177
11900SOL     OW36277   9.528   2.281   0.573 -0.2781  0.2544  0.0549
11900SOL    HW136278   9.599   2.224   0.603  1.4610  0.5465 -3.0611
11900SOL    HW236279   9.491   2.236   0.497 -1.0574  1.7582 -0.5102
11901SOL     OW36280   9.295   5.706   3.973  0.1887  0.9280 -0.0457
11901SOL    HW136281   9.330   5.617   3.982 -1.4964  0.1084 -1.0840
11901SOL    HW236282   9.339   5.756   4.042  2.2729 -0.3397 -0.3647
11902SOL     OW36283   7.508   2.489   4.732 -0.0610  0.1005 -0.7958
11902SOL    HW136284   7.591   2.451   4.704 -0.3879 -2.1333  1.0261
11902SOL    HW236285   7.500   2.465   4.824 -0.8975  3.6637  0.2260
11903SOL     OW36286   5.413   2.276   7.877 -0.8127 -0.3691 -0.3441
11903SOL    HW136287   5.409   2.181   7.886  0.2874 -0.4925 -1.0605
11903SOL    HW236288   5.452   2.306   7.959  0.2109 -0.6751 -0.7020
11904SOL     OW36289   6.773   5.890   0.630 -0.3531 -0.3866 -0.2194
11904SOL    HW136290   6.866   5.880   0.611 -0.3679 -1.0291  0.0143
11904SOL    HW236291   6.733   5.809   0.597 -0.7699 -0.2879  0.0406
11905SOL     OW36292   1.527   8.297   4.605  0.2337 -0.1622  0.2805
11905SOL    HW136293   1.548   8.386   4.634 -0.1071  0.3384 -0.9616
11905SOL    HW236294   1.583   8.282   4.530 -1.2302 -0.1632 -0.8628
11906SOL     OW36295   9.240   3.912   6.147  0.2676 -0.8528  0.3603
11906SOL    HW136296   9.158   3.944   6.109  0.3485 -0.9153  0.1373
11906SOL    HW236297   9.212   3.850   6.214  0.1312 -0.8424  0.3128
11907SOL     OW36298   4.814   9.731   1.181 -0.1539  0.0069 -0.3189
11907SOL    HW136299   4.741   9.781   1.220 -0.2059 -1.6494  1.9245
11907SOL    HW236300   4.772   9.658   1.136 -0.0015 -2.1950  2.7869
11908SOL     OW36301   1.713   9.670   8.232 -0.0302 -0.5332 -0.2819
11908SOL    HW136302   1.765   9.692   8.310  1.0231  0.0108 -1.1174
11908SOL    HW236303   1.652   9.603   8.263 -0.1495  0.2013  1.1989
11909SOL     OW36304   8.439   1.893   2.613  0.0836  0.2605  0.4464
11909SOL    HW136305   8.421   1.803   2.585 -3.0527  1.0505 -0.5893
11909SOL    HW236306   8.418   1.895   2.706  1.2922 -0.3058  0.7412
11910SOL     OW36307   6.807   4.344   4.353  0.6781  0.3950 -0.1786
11910SOL    HW136308   6.732   4.287   4.337 -0.0117  0.4852  2.2961
11910SOL    HW236309   6.785   4.427   4.311  0.6235 -0.3804 -1.7455
11911SOL     OW36310   1.726   7.650   0.941 -0.0086 -0.1453  0.4645
11911SOL    HW136311   1.671   7.728   0.947  1.2294  0.7358  0.7199
11911SOL    HW236312   1.710   7.604   1.023 -0.7899 -0.1995  0.2911
11912SOL     OW36313   6.436   4.742   5.513 -0.8110 -0.0469 -0.1295
11912SOL    HW136314   6.368   4.679   5.539  0.2914 -0.2660  2.4919
11912SOL    HW236315   6.483   4.762   5.594  1.5829  0.9345 -1.6479
11913SOL     OW36316   9.398   3.275   6.568  0.4060 -0.3782  0.2822
11913SOL    HW136317   9.350   3.214   6.511  0.3081  0.9004 -1.0530
11913SOL    HW236318   9.437   3.219   6.635 -1.1260 -1.7137  0.1242
11914SOL     OW36319   0.966   2.460   3.381 -0.1785  0.2017  0.5451
11914SOL    HW136320   0.989   2.547   3.348 -1.6617  0.8727  1.1634
11914SOL    HW236321   1.037   2.404   3.352 -0.4225  1.1095 -2.1033
11915SOL     OW36322   0.160   0.358   6.729  0.1467 -0.0962 -0.3480
11915SOL    HW136323   0.243   0.406   6.726  0.7638 -1.1215 -0.0021
11915SOL    HW236324   0.156   0.321   6.817 -1.2287  0.8592  0.0337
11916SOL     OW36325   5.126   0.818   8.596 -0.2150 -0.2700  0.0119
11916SOL    HW136326   5.086   0.900   8.623  0.3051  0.4201 -1.2064
11916SOL    HW236327   5.070   0.750   8.632 -0.3080  0.6048  1.5737
11917SOL     OW36328   1.798   6.141   2.215  0.1402  0.0712 -0.2581
11917SOL    HW136329   1.847   6.174   2.290  0.0365  1.2787 -0.6896
11917SOL    HW236330   1.706   6.147   2.242  0.1366 -0.2240 -0.2036
11918SOL     OW36331   8.672   1.361   7.067  0.1093 -0.2805 -0.2119
11918SOL    HW136332   8.733   1.315   7.010 -1.2457 -2.0247 -0.3311
11918SOL    HW236333   8.649   1.297   7.134 -0.6355  0.7474  0.5491
11919SOL     OW36334   3.649   3.241   3.399  0.1362 -0.2847  0.2367
11919SOL    HW136335   3.591   3.235   3.474 -0.2149 -0.2463 -0.0270
11919SOL    HW236336   3.626   3.165   3.345  0.8100 -0.6594  0.4606
11920SOL     OW36337   1.344   6.943   7.500 -0.0653  0.4464 -0.3319
11920SOL    HW136338   1.399   6.998   7.555 -0.2401  2.0378 -1.6939
11920SOL    HW236339   1.368   6.966   7.411 -2.2202  0.4638 -0.9651
11921SOL     OW36340   9.889   7.577   9.554  0.0542  0.1392 -0.0016
11921SOL    HW136341   9.886   7.490   9.593 -0.6693  0.3133  0.3514
11921SOL    HW236342   9.947   7.627   9.611  0.2976 -0.0453 -0.0828
11922SOL     OW36343   3.056   8.182   0.941  0.0171 -0.3674 -0.6523
11922SOL    HW136344   3.095   8.253   0.891  0.1010 -0.9288 -1.4101
11922SOL    HW236345   3.110   8.106   0.921  0.0258 -0.6108  0.2726
11923SOL     OW36346   9.342   7.366   9.040  0.3045  0.1989 -0.1573
11923SOL    HW136347   9.360   7.384   8.947 -0.6249 -0.9500 -0.5947
11923SOL    HW236348   9.353   7.450   9.083 -0.9672  1.1617 -1.5972
11924SOL     OW36349   6.873   3.955   8.262 -0.0929  0.1606  0.3119
11924SOL    HW136350   6.896   4.014   8.190  0.1649  0.3242  0.5292
11924SOL    HW236351   6.780   3.936   8.247 -0.5092  1.5867  0.9215
11925SOL     OW36352   4.428   7.270   1.398 -0.0510  0.7353  0.9056
11925SOL    HW136353   4.507   7.315   1.429  0.3734  1.0467 -0.5288
11925SOL    HW236354   4.421   7.193   1.455  0.2414  1.6534  2.2271
11926SOL     OW36355   3.689   3.306   2.446  0.3378  0.3092 -0.0832
11926SOL    HW136356   3.717   3.365   2.377  0.0160 -0.3828 -0.8345
11926SOL    HW236357   3.597   3.329   2.461  0.7879  1.3867  1.1126
11927SOL     OW36358   0.142   0.646   2.068  0.3309 -0.0683 -0.1551
11927SOL    HW136359   0.160   0.684   1.982 -0.9198  0.6287 -0.1352
11927SOL    HW236360   0.052   0.673   2.088  1.0101  0.8876  1.9448
11928SOL     OW36361   1.441   0.460   8.591 -0.3273  0.1795  0.2944
11928SOL    HW136362   1.459   0.476   8.499 -0.7238 -0.0805  0.1686
11928SOL    HW236363   1.469   0.370   8.606 -0.1093  0.2765  0.4676
11929SOL     OW36364   5.939   4.845   8.564  0.2189 -0.2568 -0.3184
11929SOL    HW136365   5.924   4.785   8.491 -0.0331  0.6881 -1.0741
11929SOL    HW236366   6.034   4.859   8.565  0.2599 -0.5425 -0.2424
11930SOL     OW36367   4.087   2.266   1.692  0.3868 -0.5685  0.0035
11930SOL    HW136368   4.029   2.341   1.681  0.6959 -0.6131 -2.3036
11930SOL    HW236369   4.175   2.304   1.702  0.5036 -0.5811 -0.8718
11931SOL     OW36370   5.049   8.703   5.917  0.0097  0.1620  0.2157
11931SOL    HW136371   5.007   8.660   5.992  0.4870 -0.7731 -0.0392
11931SOL    HW236372   5.111   8.764   5.955  0.5194 -0.5819  0.5845
11932SOL     OW36373   7.487   1.543   5.136  0.1254  0.5324  0.4214
11932SOL    HW136374   7.446   1.603   5.199 -1.5302 -1.2366  1.1229
11932SOL    HW236375   7.482   1.590   5.053 -1.7230  1.1675  0.8296
11933SOL     OW36376   5.553   3.859   9.362 -0.4346 -0.0400 -0.1635
11933SOL    HW136377   5.480   3.832   9.418 -1.4438  0.7871 -1.0447
11933SOL    HW236378   5.524   3.941   9.322  0.3760 -0.4537 -1.6620
11934SOL     OW36379   3.972   8.457   1.396  0.7598  0.1042  0.0528
11934SOL    HW136380   3.972   8.552   1.388 -0.2208 -0.0261 -2.0698
11934SOL    HW236381   4.054   8.438   1.443 -0.1532  2.0675  2.7073
11935SOL     OW36382   2.859   9.238   8.423 -0.1636  0.2147 -0.0017
11935SOL    HW136383   2.933   9.182   8.399 -0.5923 -0.5448  0.4110
11935SOL    HW236384   2.785   9.203   8.373 -0.4779  0.3012  0.3969
11936SOL     OW36385   1.629   8.851   8.574  0.3874 -0.3881  0.9064
11936SOL    HW136386   1.537   8.876   8.566  0.5789  0.8764  2.1750
11936SOL    HW236387   1.629   8.769   8.622 -0.1531 -1.6604 -1.1517
11937SOL     OW36388   5.172   4.202   7.498  0.2394  0.3188  0.0909
11937SOL    HW136389   5.176   4.288   7.457 -0.4038 -0.3831 -1.5421
11937SOL    HW236390   5.128   4.217   7.581  0.9035  1.6870  0.2167
11938SOL     OW36391   2.573   4.474   5.539 -0.8765 -0.5130 -0.1634
11938SOL    HW136392   2.489   4.428   5.543 -0.7973 -0.7081 -0.6985
11938SOL    HW236393   2.639   4.405   5.544 -0.7561 -0.4390 -0.6682
11939SOL     OW36394   9.171   5.608   0.335 -0.2976 -0.1331  0.0002
11939SOL    HW136395   9.175   5.567   0.248 -1.2791 -0.0205 -0.1128
11939SOL    HW236396   9.122   5.546   0.388 -0.7711  0.3533  0.1388
11940SOL     OW36397   2.325   5.195   9.429  0.6757  0.1411  0.2439
11940SOL    HW136398   2.276   5.263   9.383  1.2984  0.2702 -0.2419
11940SOL    HW236399   2.259   5.135   9.462  0.2326 -0.0826 -1.0206
11941SOL     OW36400   1.462   7.301   7.382 -0.7050  0.6689  0.1742
11941SOL    HW136401   1.455   7.376   7.322 -1.3479 -1.3726 -2.4869
11941SOL    HW236402   1.536   7.323   7.439 -0.5933  3.1005 -0.7700
11942SOL     OW36403   6.349   8.299   5.371  0.2769 -0.8065 -0.4495
11942SOL    HW136404   6.425   8.256   5.332  1.1249 -0.1334  0.4112
11942SOL    HW236405   6.274   8.250   5.338  1.0983 -1.6623 -1.0953
11943SOL     OW36406   6.002   1.919   6.245 -0.4803 -0.1488 -0.5548
11943SOL    HW136407   5.964   1.920   6.333 -1.1697  0.5987 -0.8448
11943SOL    HW236408   6.064   1.991   6.244  0.0131 -0.5660 -0.4843
11944SOL     OW36409   3.082   8.167   7.304 -0.5147 -0.0628 -0.1701
11944SOL    HW136410   2.991   8.164   7.277 -0.2143 -0.5314 -1.1577
11944SOL    HW236411   3.085   8.115   7.384 -0.9254 -0.9153 -0.7005
11945SOL     OW36412   5.465   7.315   9.054  0.4384  0.4134 -0.4777
11945SOL    HW136413   5.532   7.273   9.108  0.5850  0.7139 -0.4249
11945SOL    HW236414   5.462   7.262   8.975 -1.3183 -1.3763  0.6666
11946SOL     OW36415   0.192   5.723   1.731  0.2631  0.4389  0.1463
11946SOL    HW136416   0.150   5.709   1.645  0.5167 -0.3021  0.1350
11946SOL    HW236417   0.266   5.662   1.731  1.0023  1.3212  0.4038
11947SOL     OW36418   0.083   9.734   4.898 -0.4670  0.1260 -0.5738
11947SOL    HW136419   0.137   9.795   4.949  0.4570 -0.3084 -1.0122
11947SOL    HW236420   0.011   9.788   4.865  1.2382  1.4581 -2.3926
11948SOL     OW36421   8.813   3.905   1.142 -0.3411 -0.4645  0.2847
11948SOL    HW136422   8.908   3.900   1.136 -0.2729  1.3916 -1.0621
11948SOL    HW236423   8.785   3.815   1.161  1.6596 -1.0199  0.8002
11949SOL     OW36424   8.359   2.114   2.490 -0.1125 -0.2193  0.3465
11949SOL    HW136425   8.440   2.148   2.453  0.1736 -1.7779 -0.5400
11949SOL    HW236426   8.383   2.028   2.525 -1.1889 -0.3299  0.8511
11950SOL     OW36427   4.296   6.346   9.760 -0.2159  0.7714 -0.2223
11950SOL    HW136428   4.314   6.439   9.749  0.1128  0.6297 -0.9805
11950SOL    HW236429   4.201   6.339   9.763 -0.2479  1.0957 -0.4984
11951SOL     OW36430   0.552   9.273   0.427 -0.0821  0.0577 -0.3007
11951SOL    HW136431   0.574   9.365   0.411  1.5994  0.1868  2.3130
11951SOL    HW236432   0.460   9.275   0.453  0.0909  1.0827  0.2814
11952SOL     OW36433   9.948   9.835   5.654  0.2102 -0.3822  0.6235
11952SOL    HW136434   9.903   9.898   5.597  0.2881 -0.9438 -0.0735
11952SOL    HW236435   9.966   9.884   5.734 -0.0059  0.3900  0.2129
11953SOL     OW36436   7.776   7.153   7.160  0.1801 -0.2164 -0.0965
11953SOL    HW136437   7.706   7.218   7.161 -1.3479 -1.7311  2.2724
11953SOL    HW236438   7.731   7.069   7.168  2.1829 -1.4684 -1.1060
11954SOL     OW36439   8.985   7.557   1.609 -0.3503 -0.3356 -0.2152
11954SOL    HW136440   8.999   7.480   1.554  0.9076 -0.2395 -0.0585
11954SOL    HW236441   8.937   7.618   1.553 -2.3623 -1.5948  0.0016
11955SOL     OW36442   9.431   5.507   0.566  0.2896 -0.0849 -0.6514
11955SOL    HW136443   9.425   5.466   0.479  1.1275  0.4255 -0.9628
11955SOL    HW236444   9.343   5.543   0.582  0.3254  0.4806 -1.6328
11956SOL     OW36445   4.447   7.492   7.069  0.2414 -0.6258 -0.6887
11956SOL    HW136446   4.500   7.419   7.039 -0.0097 -1.9743  1.8415
11956SOL    HW236447   4.364   7.451   7.097 -0.1307  0.6862  0.2219
11957SOL     OW36448   2.776   2.765   7.347  0.0290  0.0984 -0.6044
11957SOL    HW136449   2.779   2.846   7.398 -0.6551  0.7858 -1.6214
11957SOL    HW236450   2.689   2.729   7.365 -0.0675  0.1412 -0.9865
11958SOL     OW36451   7.602   7.329   2.430 -0.1394  0.2515 -0.1308
11958SOL    HW136452   7.666   7.397   2.413 -1.1744  1.3539  0.2632
11958SOL    HW236453   7.563   7.353   2.514 -0.6144 -0.7520 -0.0494
11959SOL     OW36454   6.690   6.353   5.356  0.0231 -0.3942 -0.3019
11959SOL    HW136455   6.739   6.428   5.391  0.8434 -0.5527 -1.0814
11959SOL    HW236456   6.610   6.351   5.408  1.5275 -1.1163  2.1165
11960SOL     OW36457   3.304   3.119   0.859 -0.3939 -0.2329  0.0818
11960SOL    HW136458   3.353   3.038   0.870  1.6062  0.5533 -2.0628
11960SOL    HW236459   3.223   3.093   0.815 -0.3478 -1.1851  0.5353
11961SOL     OW36460   2.753   5.807   7.578  0.2093 -0.0452  0.0862
11961SOL    HW136461   2.725   5.866   7.508  1.5530  1.4435  0.7656
11961SOL    HW236462   2.689   5.821   7.648 -0.6679 -0.9527 -0.4952
11962SOL     OW36463   0.279   7.486   0.821  0.5122  0.2344  0.3245
11962SOL    HW136464   0.330   7.527   0.891 -0.3439  0.3627  0.9039
11962SOL    HW236465   0.191   7.523   0.832  0.4778  0.6109 -1.1262
11963SOL     OW36466   3.251   8.732   0.877 -0.1941  0.2587  0.1621
11963SOL    HW136467   3.270   8.825   0.877 -0.0877  0.3663  3.7476
11963SOL    HW236468   3.162   8.725   0.841 -0.1000  1.6632 -0.3964
11964SOL     OW36469   3.474   2.074   0.183 -0.4554  0.0164 -0.1916
11964SOL    HW136470   3.467   2.059   0.277 -1.5163  2.6952  0.2539
11964SOL    HW236471   3.567   2.065   0.164  0.1148  1.6171  1.5903
11965SOL     OW36472   3.273   8.455   7.976 -0.3457  0.1255 -0.0789
11965SOL    HW136473   3.306   8.465   7.887  0.1059 -0.2124  0.0479
11965SOL    HW236474   3.201   8.393   7.968 -1.5397  1.4996 -0.4852
11966SOL     OW36475   8.115   0.909   3.240 -0.0414 -0.3899 -0.0239
11966SOL    HW136476   8.075   0.936   3.323  1.1597  0.6184  0.2647
11966SOL    HW236477   8.060   0.949   3.173  0.7297  1.4845  0.3776
11967SOL     OW36478   2.352   5.279   6.762  0.2504 -0.2851 -0.1179
11967SOL    HW136479   2.299   5.201   6.749 -0.0793  0.1102 -1.1678
11967SOL    HW236480   2.442   5.249   6.748  0.0472 -0.2629 -1.6518
11968SOL     OW36481   6.536   4.031   8.594  0.3045  0.1412 -0.7060
11968SOL    HW136482   6.477   4.088   8.544  0.0937  0.3093 -0.2685
11968SOL    HW236483   6.597   4.092   8.636  0.3162  0.0162 -0.5425
11969SOL     OW36484   8.504   2.361   9.322 -0.3239  0.1297  0.2851
11969SOL    HW136485   8.506   2.340   9.229  0.9489  0.7059  0.1544
11969SOL    HW236486   8.507   2.276   9.366 -1.3618 -0.1585 -0.1918
11970SOL     OW36487   5.674   0.888   8.457 -0.0585 -0.0539  0.1331
11970SOL    HW136488   5.585   0.863   8.435 -0.5613  1.6478  0.0711
11970SOL    HW236489   5.665   0.949   8.530  0.8774  1.5017 -0.9770
11971SOL     OW36490   3.282   4.485   2.673  0.7498  0.1620  0.6903
11971SOL    HW136491   3.229   4.419   2.629 -0.3688 -0.2354  2.5230
11971SOL    HW236492   3.225   4.562   2.678  1.0910  0.4028  0.9187
11972SOL     OW36493   0.116   2.881   1.404  0.1106 -0.1201  0.0419
11972SOL    HW136494   0.181   2.821   1.367  0.6583 -1.1961  2.5838
11972SOL    HW236495   0.165   2.936   1.464 -1.0509  0.1634  0.7638
11973SOL     OW36496   7.966   5.016   1.141  0.1854 -0.1713 -0.6532
11973SOL    HW136497   8.051   4.983   1.170  0.2585 -0.5987 -1.3566
11973SOL    HW236498   7.980   5.111   1.131  0.0708  0.0546  1.0124
11974SOL     OW36499   8.294   0.003   3.173  0.6854 -0.5136  0.3689
11974SOL    HW136500   8.255   0.083   3.209 -0.2262 -0.0423 -1.5347
11974SOL    HW236501   8.367  -0.017   3.232  1.8562  2.5185  0.1148
11975SOL     OW36502   7.907   5.817   4.136  0.2737  0.3239  0.3968
11975SOL    HW136503   7.816   5.848   4.144  0.0289  0.4508 -2.0004
11975SOL    HW236504   7.932   5.792   4.225 -1.9570  0.6954  1.1967
11976SOL     OW36505   2.742   0.559   1.375  0.2960  0.1157  0.2369
11976SOL    HW136506   2.758   0.643   1.417 -0.5990  0.3890  0.0594
11976SOL    HW236507   2.658   0.571   1.330  1.1341 -0.2022 -1.5074
11977SOL     OW36508   3.048   7.605   9.516  0.5592  0.3391  0.1544
11977SOL    HW136509   3.043   7.653   9.599  0.8893  1.3068 -0.3610
11977SOL    HW236510   3.112   7.655   9.464  1.3521 -1.0023 -0.2013
11978SOL     OW36511   8.642   5.766   9.920  0.2429 -0.0591 -0.5152
11978SOL    HW136512   8.727   5.732   9.892  0.2647 -1.3081  0.9763
11978SOL    HW236513   8.655   5.792  10.011 -1.1712 -1.1146  0.0274
11979SOL     OW36514   7.694   3.627   0.417  0.0528 -0.1059  0.1282
11979SOL    HW136515   7.754   3.701   0.425  0.7765 -0.6255 -0.3580
11979SOL    HW236516   7.708   3.575   0.496 -0.5237  0.3128  0.5151
11980SOL     OW36517   3.186   2.152   6.141 -0.3513 -0.1554  0.5300
11980SOL    HW136518   3.188   2.196   6.056 -0.3624 -0.3970  0.4029
11980SOL    HW236519   3.251   2.083   6.134  1.6928  1.5352  1.6815
11981SOL     OW36520   9.382   1.733   4.913 -0.3120 -0.3318  0.3999
11981SOL    HW136521   9.332   1.652   4.906 -0.6445 -0.0112 -1.5785
11981SOL    HW236522   9.461   1.716   4.862  0.2546  0.1245  1.1259
11982SOL     OW36523   9.630   4.172   6.389  0.3256  0.1354  0.5293
11982SOL    HW136524   9.651   4.249   6.441 -0.0087  0.3660  0.3228
11982SOL    HW236525   9.563   4.201   6.328  1.4426  0.1422 -0.7398
11983SOL     OW36526   1.528   0.841   7.747 -0.2751 -0.0364  0.1690
11983SOL    HW136527   1.468   0.910   7.775  1.7475  1.9932 -0.1815
11983SOL    HW236528   1.612   0.865   7.787  0.6651 -1.9088 -0.5713
11984SOL     OW36529   6.725   9.928   7.696 -0.2668 -0.2113  0.4884
11984SOL    HW136530   6.643   9.955   7.737 -2.2248 -1.6440 -2.1386
11984SOL    HW236531   6.741   9.994   7.629  0.4215 -0.2735  0.5872
11985SOL     OW36532   4.383   0.695   3.894  0.4130  0.1989  0.1457
11985SOL    HW136533   4.463   0.706   3.843 -0.6055 -0.5639 -1.7093
11985SOL    HW236534   4.312   0.721   3.835 -0.7181  1.3630  1.9011
11986SOL     OW36535   3.635   1.740   3.198  0.0224  0.1864 -0.2476
11986SOL    HW136536   3.684   1.702   3.125  0.7821  1.3549 -0.3656
11986SOL    HW236537   3.658   1.685   3.273  0.0328 -0.4097 -0.6812
11987SOL     OW36538   9.663   7.213   0.233 -0.0424 -0.8408  0.8547
11987SOL    HW136539   9.641   7.290   0.181 -2.2548 -0.4944  2.2135
11987SOL    HW236540   9.669   7.142   0.169 -0.6966 -0.0608 -0.0928
11988SOL     OW36541   7.220   1.480   7.415  0.5804  0.3072  0.0473
11988SOL    HW136542   7.213   1.547   7.347  1.9612 -1.2125 -1.6733
11988SOL    HW236543   7.271   1.523   7.484  0.6794  1.3223 -0.6303
11989SOL     OW36544   8.650   0.674   6.482 -0.3763  0.4405  0.2079
11989SOL    HW136545   8.568   0.670   6.433 -0.4185 -0.2880  0.3258
11989SOL    HW236546   8.656   0.588   6.525 -0.4729  1.1287  1.6713
11990SOL     OW36547   8.263   0.945   5.262 -0.1169  0.5145 -0.5432
11990SOL    HW136548   8.196   0.888   5.223 -0.4995  0.0405  0.7376
11990SOL    HW236549   8.231   0.961   5.351  2.2957 -1.1729  0.7402
11991SOL     OW36550   3.160   4.468   0.266 -0.5567  0.0268 -0.4812
11991SOL    HW136551   3.204   4.405   0.210  0.6194 -0.4785  0.9540
11991SOL    HW236552   3.178   4.553   0.225  1.7202 -0.1703 -0.0216
11992SOL     OW36553   8.319   4.158   2.910 -0.1739 -0.4368  0.4131
11992SOL    HW136554   8.292   4.232   2.857 -0.4486 -1.4047 -0.8221
11992SOL    HW236555   8.392   4.192   2.963 -0.0293  0.5992 -0.4292
11993SOL     OW36556   9.716   4.029   9.106  0.0878  0.2054  0.1321
11993SOL    HW136557   9.745   4.051   9.018  0.9176 -0.4902  0.2252
11993SOL    HW236558   9.710   4.114   9.151  1.8192  0.3951  0.0625
11994SOL     OW36559   2.917   1.437   3.460  0.1312  0.0941 -0.3642
11994SOL    HW136560   2.823   1.423   3.468  0.4445 -1.1963  2.4778
11994SOL    HW236561   2.954   1.349   3.458  1.3156  0.5785 -1.5036
11995SOL     OW36562   0.609   9.095   3.691  0.5450 -0.1447 -0.9779
11995SOL    HW136563   0.624   9.186   3.714  2.8735 -0.7564  0.3135
11995SOL    HW236564   0.675   9.077   3.623  1.3058 -1.2700  0.0196
11996SOL     OW36565   5.084   1.031   2.106 -0.6089 -0.0458  0.1663
11996SOL    HW136566   5.053   0.957   2.159  0.1897 -0.1879  0.4504
11996SOL    HW236567   5.173   1.048   2.137 -1.6724  2.8309  2.0359
11997SOL     OW36568   0.730   7.231   2.109  0.1754 -0.0134  0.5934
11997SOL    HW136569   0.792   7.303   2.097 -0.4317  0.3086 -0.8671
11997SOL    HW236570   0.647   7.265   2.077 -1.0734 -0.0984  3.4467
11998SOL     OW36571   7.976   5.745   7.524 -0.4469 -0.1590 -1.0048
11998SOL    HW136572   8.026   5.664   7.527 -1.3883 -0.7173  0.8588
11998SOL    HW236573   7.925   5.739   7.443  0.4110 -0.8402 -1.5026
11999SOL     OW36574   5.627   4.663   3.945  0.1167 -0.0537  0.0606
11999SOL    HW136575   5.537   4.694   3.956  0.7372  1.5100  1.1239
11999SOL    HW236576   5.619   4.568   3.938 -1.7167  0.1401 -1.2332
12000SOL     OW36577   3.579   8.615   8.054 -0.7763  0.4907  0.1268
12000SOL    HW136578   3.545   8.612   7.964 -0.9971  2.1395  0.1220
12000SOL    HW236579   3.650   8.550   8.054 -0.9414  0.2668 -1.1603
12001SOL     OW36580   5.067   7.802   1.062 -0.2204 -0.6919  0.8376
12001SOL    HW136581   4.980   7.778   1.029 -0.4670 -1.5100  2.0052
12001SOL    HW236582   5.056   7.806   1.157  0.8133  0.1160  0.9467
12002SOL     OW36583   7.880   5.427   5.812  0.5110  0.1669  0.2275
12002SOL    HW136584   7.906   5.370   5.885  2.9336  0.9492  0.0598
12002SOL    HW236585   7.819   5.489   5.850 -1.9950 -2.2741  0.4845
12003SOL     OW36586   7.847   0.221   8.295 -0.4210  0.1673  0.0180
12003SOL    HW136587   7.876   0.152   8.235 -0.0192  0.2444  0.1219
12003SOL    HW236588   7.757   0.241   8.267  0.1359  0.9844 -1.2713
12004SOL     OW36589   4.044   7.914   6.563 -0.3337  0.0678  0.4332
12004SOL    HW136590   4.043   7.896   6.469 -3.0049  0.7305  0.2505
12004SOL    HW236591   4.118   7.974   6.575  1.0225 -1.2229 -0.9253
12005SOL     OW36592   1.113   1.642   1.597 -0.5173  0.2075  0.3016
12005SOL    HW136593   1.126   1.668   1.688  1.3828 -2.4765  0.9403
12005SOL    HW236594   1.201   1.636   1.560 -1.2124  0.6538 -1.5814
12006SOL     OW36595   1.622   0.299   1.457 -0.5674 -0.4564  0.4546
12006SOL    HW136596   1.656   0.336   1.375 -0.0308  0.5832  1.1367
12006SOL    HW236597   1.529   0.322   1.457 -0.3797  0.3092  0.5562
12007SOL     OW36598   8.299   0.123   0.522  0.1789  0.3591  0.0302
12007SOL    HW136599   8.288   0.117   0.617 -0.8178 -0.5044 -0.1230
12007SOL    HW236600   8.386   0.086   0.506 -0.3842 -1.1990  0.4496
12008SOL     OW36601   5.617   2.341   6.830  0.3847 -0.6078 -0.0438
12008SOL    HW136602   5.555   2.332   6.903 -1.9103  2.1650 -1.4593
12008SOL    HW236603   5.700   2.308   6.866 -1.0875 -1.3465  3.0873
12009SOL     OW36604   5.999   1.352   1.006  0.3709 -0.0212  0.0201
12009SOL    HW136605   6.092   1.331   1.013  0.0833 -1.3352  0.1315
12009SOL    HW236606   5.971   1.367   1.097  0.0958 -1.4145  0.1835
12010SOL     OW36607   2.865   1.993   2.335  0.6388 -0.1906  0.3361
12010SOL    HW136608   2.794   1.949   2.383  0.5590 -0.2965  0.1268
12010SOL    HW236609   2.884   1.934   2.262  0.5167  0.1351  0.0376
12011SOL     OW36610   3.621   9.030   2.044 -0.3413 -0.3887 -0.2209
12011SOL    HW136611   3.576   8.991   1.970 -1.7048  1.0227 -0.1793
12011SOL    HW236612   3.709   9.049   2.012 -0.0185 -2.3383 -0.5904
12012SOL     OW36613   5.297   8.828   6.920  0.4126 -0.2446  0.3668
12012SOL    HW136614   5.318   8.741   6.887  0.5506 -0.2172  0.3847
12012SOL    HW236615   5.281   8.880   6.841 -0.0437 -0.3815  0.3669
12013SOL     OW36616   5.143   7.713   5.864 -0.1281 -0.5004 -0.1699
12013SOL    HW136617   5.085   7.768   5.812 -0.3437  0.4424  1.0261
12013SOL    HW236618   5.136   7.748   5.953  1.4610 -1.0464  0.1957
12014SOL     OW36619   1.152   2.865   4.618 -0.0287 -1.0359 -0.6634
12014SOL    HW136620   1.175   2.808   4.692  0.4258 -0.6923 -0.5344
12014SOL    HW236621   1.237   2.893   4.583 -0.2388  0.5450  0.0350
12015SOL     OW36622   5.865   7.287   8.108  0.3703 -0.1875 -0.6811
12015SOL    HW136623   5.792   7.240   8.066  2.1461 -1.3236 -2.7236
12015SOL    HW236624   5.927   7.218   8.131  1.7578  0.9145 -0.9923
12016SOL     OW36625   6.722   5.282   9.698 -0.2330  0.3293  0.3900
12016SOL    HW136626   6.755   5.220   9.763 -0.0024  1.7249  1.6461
12016SOL    HW236627   6.631   5.256   9.684 -1.0944  1.4650  3.1815
12017SOL     OW36628   0.934   7.787   4.568 -0.1586  0.0282  0.2627
12017SOL    HW136629   0.955   7.695   4.551 -1.2529 -0.2015  0.0464
12017SOL    HW236630   0.974   7.835   4.496  1.7445 -0.0779  1.1791
12018SOL     OW36631   0.195   6.237   8.454  0.2921  0.8754  0.6512
12018SOL    HW136632   0.276   6.188   8.444 -0.3320 -0.3940  1.4201
12018SOL    HW236633   0.177   6.274   8.367  1.0601  0.1566  0.1771
12019SOL     OW36634   8.915   8.065   1.598  0.2918 -0.4130  0.2636
12019SOL    HW136635   8.894   7.979   1.633  1.0410  0.0950  2.0343
12019SOL    HW236636   8.998   8.089   1.639  0.0168  1.2224 -0.0647
12020SOL     OW36637   0.041   9.593   3.689 -0.1255  0.5963  0.0017
12020SOL    HW136638   0.132   9.564   3.685  0.3130  1.9870 -0.8809
12020SOL    HW236639   0.044   9.674   3.739 -0.4471  2.0499 -2.2014
12021SOL     OW36640   4.004   4.460   1.628  0.0472 -0.0025 -0.4370
12021SOL    HW136641   4.056   4.528   1.585  1.4813 -0.3016  0.7381
12021SOL    HW236642   4.067   4.391   1.648 -1.0598 -0.9358 -0.0788
12022SOL     OW36643   1.040   8.968   7.353 -0.1642 -0.0982 -0.1628
12022SOL    HW136644   1.059   8.877   7.376  0.6460 -0.0597 -0.6190
12022SOL    HW236645   0.967   8.993   7.409 -2.5006 -1.9742 -2.1467
12023SOL     OW36646   5.749   3.965   6.336  0.1844 -0.5016  0.6334
12023SOL    HW136647   5.687   4.038   6.339 -1.7729 -1.9292 -1.5825
12023SOL    HW236648   5.727   3.912   6.413 -0.3242 -0.2476  0.6684
12024SOL     OW36649   6.384   9.227   0.535  0.0009 -0.6696  0.5229
12024SOL    HW136650   6.457   9.287   0.524  1.1176 -1.6638  2.1614
12024SOL    HW236651   6.373   9.187   0.448  0.1864  0.7860 -0.1975
12025SOL     OW36652   4.088   6.941   4.326  1.1010  0.3872 -0.2777
12025SOL    HW136653   4.004   6.976   4.295  0.8996 -0.0543 -0.2402
12025SOL    HW236654   4.152   6.969   4.261  0.7328 -0.2774 -0.9415
12026SOL     OW36655   1.628   5.711   9.641  0.5747 -0.0021 -0.3501
12026SOL    HW136656   1.673   5.786   9.602  0.3202  0.5894  0.4883
12026SOL    HW236657   1.556   5.693   9.580  0.6589  0.4061 -0.5763
12027SOL     OW36658   6.846   2.284   0.633  0.1817 -0.4362 -0.2482
12027SOL    HW136659   6.886   2.198   0.646 -0.6914 -0.8932 -0.4820
12027SOL    HW236660   6.793   2.273   0.553 -0.5088  0.0980  0.1251
12028SOL     OW36661   3.461   9.100   5.454 -0.8802  0.3354 -0.4511
12028SOL    HW136662   3.465   9.152   5.374 -0.4364  0.8177 -0.1238
12028SOL    HW236663   3.478   9.010   5.425  2.0196  0.8215 -0.6170
12029SOL     OW36664   3.817   9.178   1.410 -0.4227  0.1829 -0.2795
12029SOL    HW136665   3.878   9.178   1.336 -0.9252 -0.1299 -0.6975
12029SOL    HW236666   3.762   9.255   1.396  1.3064  1.8364  1.3194
12030SOL     OW36667   9.150   5.620   9.393 -1.0900 -0.5196 -0.4254
12030SOL    HW136668   9.160   5.526   9.411 -0.5287 -0.4701 -0.4767
12030SOL    HW236669   9.238   5.651   9.374 -1.2372  0.0697 -0.1828
12031SOL     OW36670   2.712   8.642   3.132  0.5079 -0.4365 -0.2724
12031SOL    HW136671   2.804   8.633   3.155  1.4079  0.4260 -3.1098
12031SOL    HW236672   2.668   8.571   3.178  2.6340 -1.1029  0.8523
12032SOL     OW36673   1.703   5.877   7.264  0.1527  0.5784  0.5847
12032SOL    HW136674   1.724   5.787   7.288  0.7873  0.9754  1.5864
12032SOL    HW236675   1.765   5.899   7.194  0.6540  0.5339  1.0025
12033SOL     OW36676   0.416   2.471   6.222 -0.5029  0.0308  0.3519
12033SOL    HW136677   0.354   2.415   6.174  0.0280 -0.3800  0.1363
12033SOL    HW236678   0.393   2.459   6.314  0.6442 -1.8551  0.4530
12034SOL     OW36679   8.573   2.772   6.392 -0.0317  0.0680  0.0832
12034SOL    HW136680   8.533   2.808   6.313  1.6725  0.1658 -0.7909
12034SOL    HW236681   8.511   2.793   6.462 -1.0174  1.0549 -1.0359
12035SOL     OW36682   9.295   4.309   0.428  0.5415  0.1511  0.1396
12035SOL    HW136683   9.224   4.349   0.478 -1.8019 -1.1989 -1.8644
12035SOL    HW236684   9.362   4.377   0.423 -0.1949  1.1902  2.8370
12036SOL     OW36685   0.427   5.767   7.249 -0.5984  0.7768  0.2462
12036SOL    HW136686   0.423   5.740   7.157 -2.3795 -1.5100  0.8832
12036SOL    HW236687   0.338   5.797   7.270 -0.1787  1.4308  1.1745
12037SOL     OW36688   0.982   6.466   0.998  0.7249 -0.3380  0.0948
12037SOL    HW136689   0.961   6.430   0.912  0.8351  1.0607 -0.5412
12037SOL    HW236690   0.952   6.399   1.060 -0.6538 -0.7435 -0.9720
12038SOL     OW36691   9.154   1.328   4.401 -0.6052 -0.4732 -0.1901
12038SOL    HW136692   9.181   1.419   4.390  0.2996 -0.6465  0.5183
12038SOL    HW236693   9.058   1.330   4.394 -0.5623  0.4701 -0.5522
12039SOL     OW36694   1.064   3.675   1.849  0.1634  0.1374  0.3852
12039SOL    HW136695   1.059   3.770   1.838  0.2270  0.0489 -0.4819
12039SOL    HW236696   1.025   3.640   1.769  1.9971 -0.5680 -0.2460
12040SOL     OW36697   5.695   7.819   6.607 -0.5317 -0.5150  0.5544
12040SOL    HW136698   5.744   7.796   6.528 -2.1475 -0.3269 -0.5332
12040SOL    HW236699   5.715   7.749   6.669 -1.8923 -2.5607 -1.1882
12041SOL     OW36700   9.610   4.958   2.744  0.1357  0.2173  0.2203
12041SOL    HW136701   9.518   4.957   2.771 -0.9934  0.0022 -3.1061
12041SOL    HW236702   9.659   4.977   2.824 -2.8096  0.7033  2.0537
12042SOL     OW36703   0.527   5.294   8.980  0.3102 -0.0983 -0.6657
12042SOL    HW136704   0.546   5.203   8.960 -0.0111 -0.4535  0.5420
12042SOL    HW236705   0.432   5.298   8.986  0.2554  0.5463 -1.6749
12043SOL     OW36706   3.299   5.843   3.907 -0.6601  0.0088  0.0327
12043SOL    HW136707   3.271   5.933   3.921 -0.1551  0.0336  0.9766
12043SOL    HW236708   3.248   5.813   3.832 -1.8263  0.6389  0.5591
12044SOL     OW36709   1.749   2.806   7.953  0.3493 -0.3423  0.2855
12044SOL    HW136710   1.786   2.745   8.017 -0.2422 -1.4441 -0.3908
12044SOL    HW236711   1.745   2.755   7.871  1.0607  1.0172 -0.6415
12045SOL     OW36712   0.779   7.003   1.035 -0.8725 -0.8151  0.3781
12045SOL    HW136713   0.849   7.059   1.001 -1.6669  0.1805  0.3255
12045SOL    HW236714   0.819   6.917   1.042  0.4043 -0.2439  0.4914
12046SOL     OW36715   9.355   1.231   6.030 -0.3824  0.6429  0.1680
12046SOL    HW136716   9.276   1.192   5.992 -1.8129  1.7056  1.8405
12046SOL    HW236717   9.395   1.160   6.081  0.0866 -0.0607 -1.1565
12047SOL     OW36718   1.748   4.993   5.097 -0.0303  0.2414  0.4253
12047SOL    HW136719   1.734   4.965   5.007  1.5934  1.4174 -0.2388
12047SOL    HW236720   1.810   4.929   5.133  0.8479  0.8660  0.0594
12048SOL     OW36721   2.183   3.207   8.276  0.4600  0.1066  0.0429
12048SOL    HW136722   2.268   3.187   8.314  0.3584  1.5167  1.0938
12048SOL    HW236723   2.190   3.178   8.185  0.8971 -2.8783  0.9156
12049SOL     OW36724   9.920   6.234   9.199 -0.0190  0.0988 -0.4891
12049SOL    HW136725   9.862   6.247   9.124  0.3354  1.7471 -0.5076
12049SOL    HW236726  10.008   6.246   9.163  0.1742  0.4974  0.1068
12050SOL     OW36727   7.237   8.786   9.826 -0.0164  0.2354 -0.2360
12050SOL    HW136728   7.320   8.814   9.864 -0.2053  0.0806  0.2993
12050SOL    HW236729   7.172   8.804   9.894 -0.2911 -0.5184 -0.2852
12051SOL     OW36730   0.311   0.451   1.453  0.7119 -0.1250 -0.2593
12051SOL    HW136731   0.228   0.500   1.450  1.8303  2.0077  1.0283
12051SOL    HW236732   0.349   0.463   1.366 -0.0490 -0.6521 -0.6788
12052SOL     OW36733   2.681   3.654   2.866 -0.5515 -0.2756  0.2031
12052SOL    HW136734   2.674   3.658   2.962 -0.7238  0.4605  0.1706
12052SOL    HW236735   2.704   3.564   2.847 -0.5626 -0.4406  0.9416
12053SOL     OW36736   7.008   4.782   4.310 -0.0192  0.4006 -0.1513
12053SOL    HW136737   7.098   4.804   4.285 -0.2098  0.1389 -1.1015
12053SOL    HW236738   6.961   4.776   4.227 -0.8506  0.2376  0.3220
12054SOL     OW36739   5.605   0.136   2.977  0.3484 -0.5949  0.0567
12054SOL    HW136740   5.684   0.085   2.956  1.0729  0.3291  0.4600
12054SOL    HW236741   5.639   0.219   3.010 -0.8153  0.3219 -0.9917
12055SOL     OW36742   1.113   6.089   1.218  0.2338  0.3408  0.0260
12055SOL    HW136743   1.037   6.146   1.202 -0.7310 -0.9786 -0.3012
12055SOL    HW236744   1.080   6.000   1.202  2.0108 -0.2307 -0.7127
12056SOL     OW36745   3.155   9.074   6.317  0.1807  0.2372 -0.5636
12056SOL    HW136746   3.171   8.981   6.331  1.5926  0.6906  1.1085
12056SOL    HW236747   3.215   9.098   6.246  0.4165  0.0550 -0.4255
12057SOL     OW36748   2.975   7.344   6.421 -0.1738 -0.7063 -0.4113
12057SOL    HW136749   2.964   7.272   6.483 -0.7523  0.3261  0.7280
12057SOL    HW236750   2.889   7.353   6.379 -0.5149  0.1953  0.4517
12058SOL     OW36751   2.603   5.675   6.224  0.0826 -0.1266 -0.4349
12058SOL    HW136752   2.612   5.751   6.166  1.8375  0.9532  1.1269
12058SOL    HW236753   2.682   5.623   6.207 -1.4887 -2.1514 -2.0930
12059SOL     OW36754   3.851   1.993   4.654 -0.1452 -0.2132  0.0897
12059SOL    HW136755   3.796   2.071   4.651  0.5361  0.4889  2.9881
12059SOL    HW236756   3.940   2.026   4.661  0.2770 -1.2787 -0.0223
12060SOL     OW36757   6.291   6.430   0.744  0.0152 -0.4403  0.2651
12060SOL    HW136758   6.330   6.516   0.760 -0.5382  0.4680 -2.6565
12060SOL    HW236759   6.232   6.444   0.670 -1.6673 -2.9449  1.0168
12061SOL     OW36760   2.299   9.678   2.001  0.3474 -0.0214  0.1576
12061SOL    HW136761   2.373   9.698   2.058  0.8363 -0.5636 -0.2705
12061SOL    HW236762   2.298   9.582   1.997  0.1179  0.0051 -0.4796
12062SOL     OW36763   1.878   9.708   7.992  0.1232 -0.2525  0.2039
12062SOL    HW136764   1.826   9.682   7.915  0.2449  1.2099 -0.4220
12062SOL    HW236765   1.814   9.744   8.053  0.3580  1.8034 -0.6794
12063SOL     OW36766   4.307   8.501   6.476 -0.6281  0.0684 -0.4570
12063SOL    HW136767   4.332   8.431   6.537 -1.5755  0.5478  0.5174
12063SOL    HW236768   4.299   8.457   6.392  2.8269 -0.2273 -0.7507
12064SOL     OW36769   8.195   2.929   9.957 -0.6119  0.1667  0.2893
12064SOL    HW136770   8.147   2.849   9.978 -0.3281  0.0096  0.3302
12064SOL    HW236771   8.131   2.999   9.973 -1.4820 -0.1530 -1.5013
12065SOL     OW36772   2.831   5.085   0.596  0.5861  0.5533  0.3025
12065SOL    HW136773   2.908   5.102   0.542  0.7075 -2.0559 -0.5100
12065SOL    HW236774   2.866   5.045   0.676  0.1712  0.8326  0.6279
12066SOL     OW36775   4.185   0.864   4.569 -0.1067 -0.6511 -0.3392
12066SOL    HW136776   4.279   0.882   4.569 -0.1953  0.2270  2.5702
12066SOL    HW236777   4.173   0.804   4.495  2.5711 -0.1320 -1.3306
12067SOL     OW36778   8.647   7.888   0.603  0.6637 -0.2271 -0.0239
12067SOL    HW136779   8.708   7.941   0.551  0.4848  0.6483  0.6312
12067SOL    HW236780   8.615   7.822   0.543  1.4463 -0.0288 -0.6728
12068SOL     OW36781   4.900   1.798   7.440  0.1459 -0.4055 -0.2049
12068SOL    HW136782   4.820   1.831   7.480 -0.1614 -1.5352  0.1505
12068SOL    HW236783   4.872   1.722   7.388  0.9504 -0.7019 -0.2268
12069SOL     OW36784   2.930   2.291   2.676 -0.0978  0.0716 -0.0054
12069SOL    HW136785   2.929   2.318   2.767  2.0587  0.8109 -0.1282
12069SOL    HW236786   2.920   2.196   2.678 -0.5909  0.1374  0.9508
12070SOL     OW36787   2.218   2.195   3.996  0.3851  0.5310  0.6624
12070SOL    HW136788   2.276   2.119   3.991  0.5973  0.7619 -0.7882
12070SOL    HW236789   2.192   2.200   4.088  0.9259 -0.8759  0.9050
12071SOL     OW36790   5.109   5.579   0.912  0.0048  0.6780 -0.4501
12071SOL    HW136791   5.117   5.672   0.933  0.4514  0.7707 -1.0029
12071SOL    HW236792   5.180   5.536   0.960  2.1508  1.1114 -3.0088
12072SOL     OW36793   2.962   8.552   6.663  0.4357  0.1378 -0.0536
12072SOL    HW136794   2.910   8.593   6.594  1.1726  0.8129 -0.2304
12072SOL    HW236795   3.001   8.475   6.621 -0.4566 -0.4119  0.1006
12073SOL     OW36796   8.259   5.238   9.603  0.6153  0.0644 -0.2920
12073SOL    HW136797   8.173   5.197   9.617  0.8553  0.0149  1.2123
12073SOL    HW236798   8.240   5.316   9.551 -0.1571 -0.6674 -1.1421
12074SOL     OW36799   0.645   0.930   4.856 -0.2383 -0.3381 -0.0244
12074SOL    HW136800   0.704   0.859   4.832  1.0094  1.2175 -1.9502
12074SOL    HW236801   0.561   0.888   4.875  0.6087 -2.3314 -0.5161
12075SOL     OW36802   2.312   4.335   2.344 -0.1161  0.5667  0.0241
12075SOL    HW136803   2.386   4.396   2.346  1.0912 -0.8660  1.6776
12075SOL    HW236804   2.294   4.317   2.436  2.2062 -4.5242 -0.2138
12076SOL     OW36805   6.588   1.873   3.268  0.3184 -0.0722 -0.6410
12076SOL    HW136806   6.594   1.955   3.317 -0.8131  0.1967 -0.9278
12076SOL    HW236807   6.526   1.892   3.197 -0.3834 -1.3156 -0.3874
12077SOL     OW36808   5.212   3.842   5.188 -0.5121 -0.0933  0.1982
12077SOL    HW136809   5.190   3.880   5.102  0.1061 -0.2820 -0.0489
12077SOL    HW236810   5.129   3.842   5.236 -1.2016 -1.3595 -0.9302
12078SOL     OW36811   1.599   0.042   2.444 -0.5302 -0.6589  0.6771
12078SOL    HW136812   1.571  -0.028   2.385  0.8881 -2.1667  1.7099
12078SOL    HW236813   1.621  -0.003   2.526  1.3737  0.8470  1.0537
12079SOL     OW36814   8.626   6.209   0.033  0.1229 -0.1315 -0.3924
12079SOL    HW136815   8.661   6.297   0.049  1.0175 -0.1555 -1.9817
12079SOL    HW236816   8.668   6.181  -0.048 -1.6970 -1.2083 -1.0415
12080SOL     OW36817   2.489   7.962   7.605 -0.6740 -0.4175  0.1946
12080SOL    HW136818   2.546   7.885   7.598  0.3183  0.2010  1.1588
12080SOL    HW236819   2.446   7.951   7.689  0.2144  0.5434  0.7990
12081SOL     OW36820   5.975   8.153   8.522  0.0251  0.2346 -0.1498
12081SOL    HW136821   5.898   8.209   8.536  0.5220  0.9841 -0.3618
12081SOL    HW236822   6.022   8.195   8.450 -0.4026 -1.3219 -1.4179
12082SOL     OW36823   2.708   7.846   8.555  0.0573 -0.1257  0.0335
12082SOL    HW136824   2.768   7.884   8.491  0.5311 -1.8671 -0.6001
12082SOL    HW236825   2.674   7.922   8.603  0.3690  1.1585 -1.6664
12083SOL     OW36826   4.514   8.833   9.693 -0.5595 -0.2663 -0.6855
12083SOL    HW136827   4.451   8.880   9.638 -0.0353 -1.6463 -2.5567
12083SOL    HW236828   4.581   8.801   9.632  1.1751 -0.1380  1.0407
12084SOL     OW36829   1.308   2.471   3.820  0.0747 -0.4179 -0.0332
12084SOL    HW136830   1.231   2.520   3.851  1.0421  0.5072  1.0039
12084SOL    HW236831   1.382   2.528   3.841  0.9548 -0.5515 -2.4846
12085SOL     OW36832   1.918   1.976   9.270 -0.4848  0.4023 -0.2786
12085SOL    HW136833   1.846   2.025   9.230 -2.1548 -0.3969  1.5351
12085SOL    HW236834   1.892   1.884   9.259  0.6296  0.0673 -0.1863
12086SOL     OW36835   0.626   7.259   4.209 -0.1213  0.0335  0.1444
12086SOL    HW136836   0.652   7.216   4.128 -0.7646 -0.5533  0.2403
12086SOL    HW236837   0.672   7.343   4.207  0.3601 -0.2345 -0.5238
12087SOL     OW36838   2.404   0.562   1.469 -0.0016  0.3033  0.0627
12087SOL    HW136839   2.311   0.581   1.456 -0.0275  0.9750  1.1988
12087SOL    HW236840   2.438   0.637   1.518  0.9634 -0.3142  0.3612
12088SOL     OW36841   8.998   8.391   2.843  0.2956  0.9001  0.2882
12088SOL    HW136842   9.009   8.304   2.803 -0.7145  0.9501 -0.1364
12088SOL    HW236843   8.940   8.376   2.918 -0.0298  1.2330  0.1064
12089SOL     OW36844   1.803   9.196   6.395 -0.2937 -0.2613  0.9760
12089SOL    HW136845   1.745   9.212   6.321 -0.7264  4.3732  2.0037
12089SOL    HW236846   1.777   9.110   6.428 -2.6432 -0.8143 -1.9012
12090SOL     OW36847   8.093   0.567   9.427 -0.7415  0.7694 -0.3547
12090SOL    HW136848   8.161   0.627   9.398  0.0993  0.2539  0.5005
12090SOL    HW236849   8.140   0.499   9.475 -1.8304  0.2326 -0.0216
12091SOL     OW36850   2.175   6.105   9.857  0.8463 -0.1166  0.0277
12091SOL    HW136851   2.105   6.156   9.899  1.1717 -1.3197  2.2054
12091SOL    HW236852   2.128   6.045   9.799  0.0429 -0.7431  1.2788
12092SOL     OW36853   6.977   6.179   1.970 -0.2627 -0.6147 -0.2825
12092SOL    HW136854   6.892   6.220   1.987 -0.7412 -0.9746 -1.6421
12092SOL    HW236855   7.041   6.237   2.010 -1.0153  0.8354 -1.1077
12093SOL     OW36856   4.573   9.716   8.787  0.5074 -0.3490 -0.2581
12093SOL    HW136857   4.562   9.668   8.869 -0.9351 -1.7528 -1.1917
12093SOL    HW236858   4.639   9.667   8.739  0.6743 -0.0785 -0.3047
12094SOL     OW36859   6.954   2.367   5.472 -0.1653  0.6842  0.7129
12094SOL    HW136860   7.004   2.419   5.409  0.2399 -0.1583  0.3217
12094SOL    HW236861   6.863   2.395   5.459  0.1709  2.1352  1.3436
12095SOL     OW36862   0.671   0.546   5.018 -0.1662  0.4568 -0.2100
12095SOL    HW136863   0.735   0.616   5.022 -0.0138  0.3826 -1.0559
12095SOL    HW236864   0.717   0.469   5.051 -0.2989  0.7276  0.6098
12096SOL     OW36865   8.941   1.355   4.066 -0.1900 -0.4641 -0.0959
12096SOL    HW136866   8.897   1.322   4.145  2.1731  0.4329  1.7014
12096SOL    HW236867   9.001   1.286   4.041  1.2967  0.4415  0.8122
12097SOL     OW36868   9.436   6.081   7.371 -0.1410 -0.0403  0.7391
12097SOL    HW136869   9.356   6.112   7.328 -0.2371 -1.7498 -0.4348
12097SOL    HW236870   9.408   6.060   7.460 -0.6972  0.5482  0.7127
12098SOL     OW36871   1.711   2.112   9.160 -0.0269  0.1784  0.1728
12098SOL    HW136872   1.699   2.168   9.083 -1.2316  1.1069  0.9984
12098SOL    HW236873   1.660   2.154   9.229 -0.7430 -1.7881  0.9236
12099SOL     OW36874   2.870   3.726   3.422  1.1467  0.8709  0.0572
12099SOL    HW136875   2.949   3.672   3.433  0.1809 -0.5606  0.1712
12099SOL    HW236876   2.826   3.721   3.506  1.0586  1.8984  0.0807
12100SOL     OW36877   2.741   7.091   7.391 -0.9024  0.0343 -0.0647
12100SOL    HW136878   2.655   7.109   7.430  0.0960  0.2298  2.2074
12100SOL    HW236879   2.801   7.149   7.437  1.0875 -2.9641  1.4683
12101SOL     OW36880   1.836   3.567   6.295  0.3286 -0.0249  0.4068
12101SOL    HW136881   1.775   3.526   6.235  0.6539 -0.2337  0.2153
12101SOL    HW236882   1.919   3.570   6.247  0.6136 -0.2810  0.8730
12102SOL     OW36883   4.292   1.194   3.535 -0.1873 -0.6816 -0.4086
12102SOL    HW136884   4.309   1.251   3.460 -3.1393  0.9271 -0.0043
12102SOL    HW236885   4.325   1.244   3.610  0.7284 -1.2853 -0.3977
12103SOL     OW36886   8.731   1.502   1.139  0.5873  0.1432  1.2137
12103SOL    HW136887   8.652   1.455   1.113  0.2290 -0.3466  3.0763
12103SOL    HW236888   8.701   1.567   1.203  1.4272  1.3167  0.4631
12104SOL     OW36889   2.780   6.933   2.493 -0.3925 -0.2964 -0.3362
12104SOL    HW136890   2.812   6.987   2.566 -0.9389 -0.5455  0.0938
12104SOL    HW236891   2.852   6.932   2.430 -0.3078  0.7817 -0.2665
12105SOL     OW36892   7.813   1.009   2.665  0.1593  0.0123  0.8716
12105SOL    HW136893   7.805   1.044   2.754  0.5793 -1.6991  1.6392
12105SOL    HW236894   7.809   0.914   2.677  1.1832 -0.2822 -0.8477
12106SOL     OW36895   4.820   0.493   8.349  0.0370  0.0682 -0.6986
12106SOL    HW136896   4.816   0.583   8.316 -1.9040  0.4458  0.3932
12106SOL    HW236897   4.888   0.451   8.297 -0.7777  1.4491 -3.0262
12107SOL     OW36898   6.857   6.467   6.305  0.0389 -0.0220 -0.3469
12107SOL    HW136899   6.869   6.474   6.400  2.2698  2.8908 -0.7032
12107SOL    HW236900   6.781   6.523   6.286  0.8396  1.0522 -0.4457
12108SOL     OW36901   2.079   4.969   0.945 -0.4191 -0.2157  0.4299
12108SOL    HW136902   1.996   4.921   0.944 -1.0366  0.8142  0.9365
12108SOL    HW236903   2.074   5.024   1.024 -0.1664  1.4384 -0.6660
12109SOL     OW36904   8.865   5.393   6.785  0.6651  0.0324  0.3456
12109SOL    HW136905   8.800   5.413   6.852  0.0135 -1.2762  0.1364
12109SOL    HW236906   8.946   5.378   6.834  0.0437 -1.5657  0.9336
12110SOL     OW36907   8.251   1.953   3.237 -0.5579 -0.4194  0.2219
12110SOL    HW136908   8.218   1.875   3.193 -0.2352 -0.3639 -0.1216
12110SOL    HW236909   8.313   1.991   3.176  0.4388 -0.7339  1.0089
12111SOL     OW36910   4.991   4.026   7.924  0.1314  0.7548  0.4965
12111SOL    HW136911   4.947   4.066   7.849 -1.3476  1.3940  1.6436
12111SOL    HW236912   5.066   3.980   7.886 -1.5309 -0.4271 -1.5814
12112SOL     OW36913   5.768   8.317   2.162  0.0874  0.2435  0.1385
12112SOL    HW136914   5.748   8.231   2.200  0.9095 -0.4036 -0.8314
12112SOL    HW236915   5.683   8.349   2.129 -0.3047  0.0136  0.9087
12113SOL     OW36916   4.895   7.145   2.737 -0.6935  0.5131  0.2181
12113SOL    HW136917   4.979   7.180   2.708  0.2687 -0.6356  1.4828
12113SOL    HW236918   4.869   7.084   2.668  1.1013 -1.4772  1.1559
12114SOL     OW36919   7.448   2.603   7.331  0.3526 -0.0793  0.0795
12114SOL    HW136920   7.536   2.577   7.359  0.7669  1.3719  0.2535
12114SOL    HW236921   7.406   2.634   7.411 -0.0111  0.0114 -0.1459
12115SOL     OW36922   4.249   3.351   5.106 -0.3236  0.4775  0.5354
12115SOL    HW136923   4.201   3.288   5.160  0.3135 -1.6588 -1.2396
12115SOL    HW236924   4.243   3.316   5.018 -0.0630  3.0647 -0.5941
12116SOL     OW36925   6.509   7.907   8.075 -0.1583  0.1384  0.3266
12116SOL    HW136926   6.522   7.979   8.014 -0.6413  0.5675  0.7138
12116SOL    HW236927   6.549   7.938   8.157  1.3548 -0.8247 -0.0261
12117SOL     OW36928   5.486   1.150   2.436  0.4800  0.4211  0.2387
12117SOL    HW136929   5.497   1.208   2.511 -0.2076 -0.3889  0.9949
12117SOL    HW236930   5.403   1.105   2.453  0.9000 -0.6336 -0.4146
12118SOL     OW36931   3.329   7.824   2.080  0.0218  0.2592  0.2410
12118SOL    HW136932   3.245   7.869   2.088  0.6648  1.2952  1.5501
12118SOL    HW236933   3.369   7.861   2.001 -0.1853  0.7729  0.3701
12119SOL     OW36934   9.839   4.679   6.120  0.1238  0.0735  0.9135
12119SOL    HW136935   9.911   4.616   6.110  0.5352  0.4974  1.2143
12119SOL    HW236936   9.794   4.651   6.200  1.1330  0.9718  1.8230
12120SOL     OW36937   3.244   4.522   8.949  0.3521 -0.0073  0.1501
12120SOL    HW136938   3.201   4.474   9.020  0.5240 -0.8802 -0.3227
12120SOL    HW236939   3.334   4.533   8.979  0.0961  0.8344  0.6504
12121SOL     OW36940   5.286   6.542   5.707  0.2583  0.0658  0.1412
12121SOL    HW136941   5.279   6.638   5.713 -0.0231  0.1351 -0.9844
12121SOL    HW236942   5.374   6.527   5.673  0.0283 -0.0287 -0.4253
12122SOL     OW36943   6.508   6.644   4.535 -0.2024  0.2073 -0.3593
12122SOL    HW136944   6.515   6.559   4.492  0.7749  0.3086 -0.4168
12122SOL    HW236945   6.433   6.635   4.594  0.3338 -0.9227  0.1715
12123SOL     OW36946   9.513   7.980   6.678 -0.3217  0.3115  0.2119
12123SOL    HW136947   9.594   7.937   6.650 -0.6613 -0.9562  1.0917
12123SOL    HW236948   9.456   7.976   6.601  0.6579  1.8695 -0.6592
12124SOL     OW36949   6.261   8.905   1.016  0.2952  0.4187  0.7839
12124SOL    HW136950   6.351   8.893   1.046  0.2360 -0.8241  0.5232
12124SOL    HW236951   6.216   8.944   1.091  1.2267  1.8764  0.6303
12125SOL     OW36952   1.867   7.875   4.957  0.1266 -0.2530 -0.0876
12125SOL    HW136953   1.870   7.969   4.975 -3.0682 -0.2805  1.1837
12125SOL    HW236954   1.811   7.839   5.026  0.8253 -3.0271 -0.8521
12126SOL     OW36955   8.123   5.206   7.657  0.3941 -0.0270 -0.1239
12126SOL    HW136956   8.109   5.279   7.718  2.2567  0.9354 -0.7603
12126SOL    HW236957   8.163   5.138   7.711  0.4912  0.1849  0.0757
12127SOL     OW36958   6.928   7.424   2.733  0.1702  0.0231  0.5229
12127SOL    HW136959   6.865   7.467   2.792 -0.3034 -0.1560  0.1450
12127SOL    HW236960   6.876   7.364   2.681  0.5761  0.2656 -0.1682
12128SOL     OW36961   8.285   4.761   5.424 -0.4203 -0.1928  0.1026
12128SOL    HW136962   8.350   4.830   5.439 -0.2426 -0.3207 -0.0735
12128SOL    HW236963   8.336   4.685   5.396 -0.7027 -0.0447 -0.8603
12129SOL     OW36964   7.777   1.022   4.990  0.3651 -0.2691 -0.1136
12129SOL    HW136965   7.745   1.111   5.000  1.2890  0.1529 -0.8621
12129SOL    HW236966   7.761   1.000   4.898  0.4338 -0.7581 -0.0133
12130SOL     OW36967   0.268   2.203   6.834 -0.5823  0.2143  0.2599
12130SOL    HW136968   0.243   2.221   6.925  0.1939  0.7969  0.3726
12130SOL    HW236969   0.339   2.139   6.841 -0.5364  0.2440  0.0620
12131SOL     OW36970   0.892   1.583   0.792 -0.3322 -0.3937  0.2589
12131SOL    HW136971   0.856   1.552   0.875  0.6321  0.3198  0.9623
12131SOL    HW236972   0.819   1.575   0.730 -1.9498  1.5541  1.7721
12132SOL     OW36973   6.082   8.416   5.608 -0.1488 -0.4871 -0.1547
12132SOL    HW136974   6.065   8.351   5.677  1.4126 -1.5716 -0.7347
12132SOL    HW236975   5.999   8.424   5.562 -0.6732 -1.2460  0.6182
12133SOL     OW36976   6.033   8.421   1.467 -0.4825 -0.3773 -0.4811
12133SOL    HW136977   5.996   8.432   1.555  2.1419 -2.8372  1.0948
12133SOL    HW236978   6.096   8.493   1.459  0.9173 -1.4334  0.6597
12134SOL     OW36979   2.240   0.141   2.259 -0.1871  0.2245 -0.4149
12134SOL    HW136980   2.216   0.224   2.219 -2.0281  0.2351  0.6132
12134SOL    HW236981   2.177   0.078   2.225 -0.4817 -0.1913  0.8280
12135SOL     OW36982   3.628   7.567   4.003  0.9173  0.4780  0.4748
12135SOL    HW136983   3.659   7.598   4.089  0.6978  0.2788  0.6237
12135SOL    HW236984   3.553   7.622   3.984  1.6994  1.3601 -0.1537
12136SOL     OW36985   1.451   6.291   4.173 -0.1884 -0.1375  0.2289
12136SOL    HW136986   1.429   6.381   4.196  0.2223  0.0717 -0.1988
12136SOL    HW236987   1.545   6.292   4.157 -0.2131 -0.6020  0.0242
12137SOL     OW36988   0.410   6.866   1.695  0.0876 -0.5763  0.0504
12137SOL    HW136989   0.320   6.897   1.703 -0.4798 -2.0524 -0.4509
12137SOL    HW236990   0.460   6.923   1.754 -0.6866  2.0546 -1.6524
12138SOL     OW36991   0.574   5.622   4.958  0.5332  0.1899 -0.1711
12138SOL    HW136992   0.494   5.668   4.932  0.9458 -0.2421 -2.4124
12138SOL    HW236993   0.550   5.529   4.957  0.8456  0.1064 -0.0329
12139SOL     OW36994   9.920   1.741   9.479  0.1857  0.2544  0.7950
12139SOL    HW136995   9.909   1.668   9.418  1.5505 -0.1391  0.9970
12139SOL    HW236996   9.918   1.819   9.424  0.4396 -0.0434  0.3622
12140SOL     OW36997   9.095   7.779   8.548  0.0503  0.3222 -0.6638
12140SOL    HW136998   9.040   7.850   8.582 -0.3431 -0.5843  0.6673
12140SOL    HW236999   9.116   7.806   8.459 -1.7827  1.1322 -0.8963
12141SOL     OW37000   1.700   1.224   0.480  0.1875 -0.1627  0.1105
12141SOL    HW137001   1.767   1.180   0.533  1.1160  0.9381 -0.1241
12141SOL    HW237002   1.661   1.288   0.539  0.4087  0.2581 -0.2015
12142SOL     OW37003   9.961   5.165   8.283 -0.0769 -0.1066  0.4961
12142SOL    HW137004   9.873   5.186   8.313  0.0367  1.5222 -0.1975
12142SOL    HW237005  10.001   5.117   8.356 -0.4615  1.9965  2.2096
12143SOL     OW37006   1.041   3.149   8.914 -0.1359  0.8036  0.5499
12143SOL    HW137007   0.953   3.163   8.949 -0.5565  0.4798 -0.3429
12143SOL    HW237008   1.029   3.085   8.844  0.8930  0.3514  0.7710
12144SOL     OW37009   2.152   6.029   5.263  0.2414  0.1400  0.2707
12144SOL    HW137010   2.224   6.059   5.319  0.6815 -0.4043 -0.0027
12144SOL    HW237011   2.073   6.045   5.316  0.5712  0.5884  0.6347
12145SOL     OW37012   5.523   6.838   8.160 -0.4355  0.0263  0.3380
12145SOL    HW137013   5.528   6.895   8.237  1.4838 -1.4932  1.4460
12145SOL    HW237014   5.613   6.832   8.129 -0.6382 -1.9454 -0.0394
12146SOL     OW37015   7.825   3.913   9.539 -0.7931 -0.3004  0.7050
12146SOL    HW137016   7.756   3.846   9.537 -1.3972  0.1910 -3.3365
12146SOL    HW237017   7.794   3.981   9.479  2.0203  1.2446  0.8607
12147SOL     OW37018   3.136   8.577   0.311  0.4594 -0.3628  0.1197
12147SOL    HW137019   3.051   8.592   0.353  0.7490 -1.5936  1.2271
12147SOL    HW237020   3.198   8.628   0.362  0.5141 -0.2237 -0.0881
12148SOL     OW37021   0.216   2.830   4.719  0.1966  0.5239 -0.1198
12148SOL    HW137022   0.201   2.839   4.624  0.2279 -0.0426 -0.1824
12148SOL    HW237023   0.294   2.881   4.736  1.6446 -1.3142 -0.8441
12149SOL     OW37024   4.944   5.087   0.685 -0.0669  0.8297 -0.0195
12149SOL    HW137025   4.876   5.131   0.633  0.0131  1.0753  0.0824
12149SOL    HW237026   4.913   5.095   0.776  0.0751  0.9023  0.0225
12150SOL     OW37027   7.060   4.838   5.530 -0.5444  0.2465 -0.3566
12150SOL    HW137028   7.147   4.845   5.569 -0.7589 -0.2287  0.2210
12150SOL    HW237029   7.059   4.752   5.489  0.1970  1.3046 -2.7368
12151SOL     OW37030   0.322   5.120   4.499  0.1402  0.1154 -0.3652
12151SOL    HW137031   0.284   5.174   4.429  2.3256  0.0168 -1.6981
12151SOL    HW237032   0.374   5.181   4.551  2.0116 -0.4947 -1.4341
12152SOL     OW37033   8.094   2.655   4.622  0.6756 -0.4389  0.3639
12152SOL    HW137034   8.015   2.650   4.676 -1.3370 -1.8481 -2.4759
12152SOL    HW237035   8.128   2.743   4.640 -1.2048  0.0381  2.0833
12153SOL     OW37036   6.178   4.564   3.219  0.1060  0.0266  0.1169
12153SOL    HW137037   6.202   4.625   3.150  0.8446 -1.1006 -0.6418
12153SOL    HW237038   6.102   4.605   3.261  0.0226  1.0216 -0.9530
12154SOL     OW37039   6.071   0.329   5.736 -0.3776 -0.6411 -0.4929
12154SOL    HW137040   6.073   0.388   5.661 -1.1272  0.8548  0.6231
12154SOL    HW237041   6.135   0.365   5.797 -1.1513 -0.7197  0.3829
12155SOL     OW37042   4.809   7.502   6.523  0.0916  0.2627 -0.2105
12155SOL    HW137043   4.812   7.562   6.449 -0.7451  0.4572 -0.0904
12155SOL    HW237044   4.717   7.479   6.533  0.0372  0.9949  1.3521
12156SOL     OW37045   6.171  -0.022   1.943 -0.3909  0.4541  0.1767
12156SOL    HW137046   6.256   0.022   1.945 -0.1684  0.5552 -3.4402
12156SOL    HW237047   6.108   0.044   1.971  0.3747  1.7908 -1.0924
12157SOL     OW37048   7.278   6.473   5.756  0.6434 -0.1128 -0.3652
12157SOL    HW137049   7.321   6.450   5.838 -0.8150 -1.9595 -0.0767
12157SOL    HW237050   7.214   6.540   5.780 -0.1190 -0.9981  0.1185
12158SOL     OW37051   3.945   7.862   1.006  0.7316  0.8740 -0.1388
12158SOL    HW137052   3.896   7.910   1.073 -0.5347  1.5235 -1.4495
12158SOL    HW237053   4.036   7.870   1.032  0.2882  1.2621  1.3933
12159SOL     OW37054   1.287   0.065   8.400 -0.0155 -0.2401  0.3088
12159SOL    HW137055   1.296  -0.006   8.464  0.4532  0.1809  0.7158
12159SOL    HW237056   1.281   0.144   8.453 -3.1067 -0.1483 -0.0078
12160SOL     OW37057   9.772   2.366   1.782  0.0380 -0.8641 -0.3841
12160SOL    HW137058   9.854   2.410   1.806  0.0918 -1.0826 -0.1521
12160SOL    HW237059   9.729   2.425   1.721  0.8957 -1.2508 -1.3839
12161SOL     OW37060   6.248   0.877   1.397  0.1337  0.3363  0.0694
12161SOL    HW137061   6.246   0.972   1.383  0.6315  0.2647 -0.5354
12161SOL    HW237062   6.235   0.840   1.310 -0.8711 -0.1649  0.4218
12162SOL     OW37063   8.869   6.520   3.624 -0.0752 -0.3059  0.3147
12162SOL    HW137064   8.801   6.458   3.649 -0.0622 -0.1157  0.8453
12162SOL    HW237065   8.912   6.481   3.548 -0.4547 -0.6598  0.2843
12163SOL     OW37066   7.749   4.853   7.891  0.3860 -0.4121 -0.0759
12163SOL    HW137067   7.729   4.929   7.837 -2.3392 -0.1876  1.1008
12163SOL    HW237068   7.777   4.786   7.829 -0.2805  0.5667 -1.4820
12164SOL     OW37069   7.263   8.533   4.441  0.0635 -0.3327 -0.0469
12164SOL    HW137070   7.272   8.554   4.348 -0.8436  3.2596  0.5069
12164SOL    HW237071   7.177   8.492   4.448  0.8289 -2.1725 -0.9464
12165SOL     OW37072   9.348   6.968   2.048  0.3889 -0.1475  0.3945
12165SOL    HW137073   9.275   6.951   1.988  0.5561 -0.9927  0.4127
12165SOL    HW237074   9.320   7.044   2.099  0.2385  0.5787 -0.7394
12166SOL     OW37075   6.281   7.843   7.502  0.3271 -0.2836 -0.2604
12166SOL    HW137076   6.318   7.786   7.435  1.8434 -0.3406  0.5653
12166SOL    HW237077   6.312   7.806   7.585  0.5058  1.1225  0.3501
12167SOL     OW37078   4.949   4.628   3.895  0.2630 -0.3496 -0.5111
12167SOL    HW137079   4.933   4.638   3.989 -1.1254  0.1906 -0.7839
12167SOL    HW237080   4.931   4.536   3.876 -0.4065 -0.2443 -0.4087
12168SOL     OW37081   3.027   3.881   4.442 -0.6927  0.6297 -0.1904
12168SOL    HW137082   3.047   3.788   4.429  0.8018  0.6650  1.5619
12168SOL    HW237083   3.018   3.916   4.353  0.0307 -0.9176 -0.9054
12169SOL     OW37084   0.678   0.554   0.201  0.0819 -0.7363 -0.5708
12169SOL    HW137085   0.675   0.613   0.277  0.4396 -0.8523 -0.4625
12169SOL    HW237086   0.700   0.611   0.127  0.7486 -0.7733 -0.4139
12170SOL     OW37087   8.283   5.981   5.190  0.5033 -0.0792 -0.3084
12170SOL    HW137088   8.308   5.950   5.103 -0.1777 -0.9448 -0.2057
12170SOL    HW237089   8.195   5.945   5.204  0.3386  0.6079  0.4632
12171SOL     OW37090   3.082   9.048   8.630  0.5311 -0.0588 -0.0173
12171SOL    HW137091   2.997   9.011   8.608  1.5463 -2.1337 -0.6351
12171SOL    HW237092   3.068   9.092   8.715 -1.6965  1.8175 -1.2352
12172SOL     OW37093   0.409   8.082   4.268  0.0914  0.2964  0.4711
12172SOL    HW137094   0.354   8.006   4.287  0.2799  0.1311  0.3576
12172SOL    HW237095   0.350   8.157   4.276 -0.1832  0.1106  0.2159
12173SOL     OW37096   6.117   4.316   8.106  0.2655  0.2503 -0.5743
12173SOL    HW137097   6.167   4.235   8.114  0.5416  0.4667 -0.0818
12173SOL    HW237098   6.176   4.377   8.062  0.4251  0.4943 -0.0264
12174SOL     OW37099   3.958   4.304   7.260  0.0062 -0.5203 -0.9539
12174SOL    HW137100   3.975   4.216   7.293 -2.0325 -0.5279  0.2975
12174SOL    HW237101   4.013   4.361   7.314 -1.1068 -0.8021  0.5655
12175SOL     OW37102   1.838   1.693   8.177  0.9689 -0.1197 -0.1601
12175SOL    HW137103   1.930   1.719   8.179  1.1243 -0.6500  2.2521
12175SOL    HW237104   1.790   1.772   8.198  0.8241  0.2270 -1.7153
12176SOL     OW37105   6.567   9.359   5.785  0.6540  0.6579 -0.4542
12176SOL    HW137106   6.542   9.289   5.844  1.6668 -0.1929 -0.9918
12176SOL    HW237107   6.605   9.314   5.709  0.5109  1.7589 -1.2067
12177SOL     OW37108   5.400   9.747   2.344  0.1132  0.4800  0.7730
12177SOL    HW137109   5.428   9.696   2.268 -0.3741  0.9129  0.2962
12177SOL    HW237110   5.464   9.819   2.350 -0.1044  0.6962  0.5066
12178SOL     OW37111   5.054   9.703   8.710  0.0376 -0.0814 -0.8726
12178SOL    HW137112   5.075   9.668   8.624  0.1254 -2.7195  0.1490
12178SOL    HW237113   5.012   9.788   8.692 -0.9915 -1.0648 -3.5434
12179SOL     OW37114   2.274   3.706   9.629 -0.2396 -0.5726  0.0948
12179SOL    HW137115   2.335   3.716   9.556  0.5325 -1.8237  0.5388
12179SOL    HW237116   2.225   3.788   9.630 -0.8464 -0.8273 -2.3424
12180SOL     OW37117   3.272   6.255   6.588 -0.5660 -0.5324  0.0334
12180SOL    HW137118   3.243   6.339   6.553  1.0102 -0.1341 -0.4280
12180SOL    HW237119   3.266   6.195   6.513 -0.1468 -0.4271 -0.0881
12181SOL     OW37120   0.882   3.296   3.367  0.0158  0.6761 -0.4058
12181SOL    HW137121   0.846   3.365   3.312 -0.6912  2.0875  1.6749
12181SOL    HW237122   0.837   3.217   3.339 -0.7358  1.4394 -1.4495
12182SOL     OW37123   8.233   5.026   1.891 -0.6254 -0.0217  0.1196
12182SOL    HW137124   8.247   5.020   1.796  0.0844  0.0356  0.2138
12182SOL    HW237125   8.321   5.026   1.928 -0.8562  1.2558  0.7146
12183SOL     OW37126   1.949   4.181   5.756  0.8801 -0.2814 -0.0709
12183SOL    HW137127   1.859   4.209   5.772  0.2409 -1.2928 -1.6106
12183SOL    HW237128   2.000   4.221   5.826 -0.3986  2.1646 -0.4231
12184SOL     OW37129   4.894   7.964   3.216  0.1246 -0.1676  0.1319
12184SOL    HW137130   4.828   7.898   3.195 -0.0904  0.3015 -0.6924
12184SOL    HW237131   4.873   7.991   3.306 -0.6181 -0.2395 -0.0178
12185SOL     OW37132   8.452   6.481   4.169  0.6822 -0.0293  0.0935
12185SOL    HW137133   8.453   6.465   4.264  2.5353 -1.6077 -0.1416
12185SOL    HW237134   8.463   6.576   4.161  0.2205  0.1640  1.4474
12186SOL     OW37135   9.088   4.990   4.598  0.1439 -0.1421  0.5324
12186SOL    HW137136   9.016   5.039   4.559 -0.2147  0.4267  1.8739
12186SOL    HW237137   9.102   4.917   4.537 -2.0700 -0.7055  0.6075
12187SOL     OW37138   8.993   5.877   6.734  0.4567 -0.1093 -0.0996
12187SOL    HW137139   8.900   5.861   6.746  0.5156 -0.7004 -0.3880
12187SOL    HW237140   8.998   5.935   6.658  0.1674  2.4598  1.7217
12188SOL     OW37141   2.348   3.308   2.545 -0.0406  0.0479 -0.3627
12188SOL    HW137142   2.383   3.248   2.610  0.2518 -0.9131 -1.3717
12188SOL    HW237143   2.359   3.395   2.584  1.4418 -0.3976  0.2863
12189SOL     OW37144   9.185   8.310   1.258  0.2607 -0.2894 -0.7439
12189SOL    HW137145   9.102   8.276   1.289  0.4907  0.1330  0.3950
12189SOL    HW237146   9.167   8.400   1.234  0.5585  0.1088  0.4205
12190SOL     OW37147   0.917   0.161   9.244  0.1678 -0.7644  0.2636
12190SOL    HW137148   0.878   0.080   9.212  0.7642 -1.5410  1.4442
12190SOL    HW237149   0.961   0.198   9.167  0.8424 -2.1389 -0.0486
12191SOL     OW37150   8.724   3.248   5.694 -0.4233  0.1244  0.5808
12191SOL    HW137151   8.657   3.268   5.758 -1.4200 -2.3883  0.4381
12191SOL    HW237152   8.684   3.183   5.635  2.0699 -1.5442  0.5226
12192SOL     OW37153   9.106   2.104   2.479 -0.0257 -0.4882  0.2172
12192SOL    HW137154   9.191   2.118   2.436  0.0877  0.3430  0.7014
12192SOL    HW237155   9.041   2.126   2.412  0.1373  2.4683  0.9361
12193SOL     OW37156   6.482   9.127   6.385 -0.0419  0.0781  0.2167
12193SOL    HW137157   6.469   9.066   6.457 -1.9677 -1.3447 -1.2277
12193SOL    HW237158   6.562   9.096   6.342 -0.6325 -1.0826 -0.0972
12194SOL     OW37159   5.548   1.507   0.057 -0.4837  0.5127  0.1407
12194SOL    HW137160   5.616   1.511  -0.011 -0.6030  4.1464  0.0671
12194SOL    HW237161   5.542   1.596   0.090 -2.3349 -0.5890  3.1176
12195SOL     OW37162   9.393   1.357   2.443 -0.7985  0.2756  0.1755
12195SOL    HW137163   9.309   1.312   2.434 -0.8436  0.7148 -1.9213
12195SOL    HW237164   9.450   1.314   2.379 -0.1392  1.5668 -0.1277
12196SOL     OW37165   0.069   1.927   2.291 -0.3143  0.0333  0.2589
12196SOL    HW137166   0.051   1.842   2.250 -0.0859  0.3280 -0.4739
12196SOL    HW237167   0.162   1.942   2.274  0.0585 -0.3234  1.8379
12197SOL     OW37168   1.641   8.097   2.061  0.0172 -0.1655 -0.2259
12197SOL    HW137169   1.650   8.190   2.080  0.3450 -0.4805  1.3555
12197SOL    HW237170   1.549   8.077   2.076 -0.2964  0.0973 -1.6568
12198SOL     OW37171   3.356   0.775   7.579  0.2594 -0.0055 -0.5542
12198SOL    HW137172   3.394   0.741   7.499  0.4591  1.1862 -0.9838
12198SOL    HW237173   3.428   0.822   7.622  0.6425 -2.0340  1.1989
12199SOL     OW37174   6.925   0.988   4.980  0.2594 -0.3154 -0.2029
12199SOL    HW137175   6.977   1.028   5.050  0.6243 -1.1420  0.0158
12199SOL    HW237176   6.978   0.999   4.901 -0.6132  1.5471 -0.5849
12200SOL     OW37177   2.919   0.986   9.163 -0.3709 -0.5034 -0.2275
12200SOL    HW137178   2.965   1.043   9.225 -0.1696 -0.1724 -0.6695
12200SOL    HW237179   2.970   0.994   9.082  0.8158 -2.8039  0.2045
12201SOL     OW37180   0.105   2.126   6.314  0.2106 -0.0791 -0.0574
12201SOL    HW137181   0.093   2.032   6.308 -0.6500 -0.0809  1.2451
12201SOL    HW237182   0.116   2.143   6.408  1.6205  0.9837 -0.3776
12202SOL     OW37183   9.293   6.859   7.241 -0.1181  0.0380  0.5210
12202SOL    HW137184   9.256   6.850   7.154  1.0492  0.2473 -0.0137
12202SOL    HW237185   9.369   6.801   7.241  0.3766  0.6690  1.1120
12203SOL     OW37186   3.289   8.760   2.609 -0.1809 -0.3848  0.3187
12203SOL    HW137187   3.354   8.823   2.638 -0.7643  0.7259 -0.6986
12203SOL    HW237188   3.334   8.676   2.610  0.6412  0.0393  1.6063
12204SOL     OW37189   8.038   6.625   0.717  0.3371 -0.6951 -0.8203
12204SOL    HW137190   7.959   6.595   0.764 -0.9278  1.9103 -1.1084
12204SOL    HW237191   8.079   6.687   0.777  1.2953 -0.8007 -1.3472
12205SOL     OW37192   0.896   3.458   4.027  0.1707 -0.2958 -0.0699
12205SOL    HW137193   0.978   3.415   4.003 -0.0096  0.1459 -1.5292
12205SOL    HW237194   0.924   3.536   4.076  0.7180  0.4999 -1.5711
12206SOL     OW37195   5.963   5.652   1.790  1.2507  0.0808  0.0741
12206SOL    HW137196   6.059   5.654   1.783  1.3094 -1.0524  0.4126
12206SOL    HW237197   5.946   5.623   1.880  0.5712  1.7583  0.5181
12207SOL     OW37198   7.458   0.329   4.947  0.0498  0.2743  0.5382
12207SOL    HW137199   7.471   0.262   5.014 -0.4137 -1.4944 -1.0505
12207SOL    HW237200   7.371   0.364   4.964 -0.0811 -0.1890  0.8174
12208SOL     OW37201   0.649   3.171   2.692 -0.1990 -0.5795  0.1517
12208SOL    HW137202   0.683   3.261   2.688  0.4079 -0.7239  1.6595
12208SOL    HW237203   0.555   3.182   2.706  0.0982 -0.1405  2.0629
12209SOL     OW37204   6.602   0.114   7.355 -0.3676  0.4004  0.3913
12209SOL    HW137205   6.544   0.168   7.302 -0.5091  0.0661  0.2054
12209SOL    HW237206   6.606   0.158   7.440  1.9787  2.4875 -0.6498
12210SOL     OW37207   2.688   5.845   8.023  0.1150  0.1267  0.1744
12210SOL    HW137208   2.627   5.889   8.083 -0.6528  0.0770 -0.5461
12210SOL    HW237209   2.742   5.916   7.989  0.0831  0.2550  0.3850
12211SOL     OW37210   1.328   0.268   7.925  0.0254 -0.5046  0.6202
12211SOL    HW137211   1.236   0.271   7.953 -0.6186  1.0241 -1.4240
12211SOL    HW237212   1.333   0.193   7.866  0.1797 -0.7876  0.9910
12212SOL     OW37213   4.346   7.050   0.177 -0.0381 -0.2365  0.2386
12212SOL    HW137214   4.271   7.104   0.202 -1.3684 -1.6790 -0.4658
12212SOL    HW237215   4.414   7.072   0.241 -1.1032  0.9815  0.9973
12213SOL     OW37216   2.443   2.991   5.981  0.2359  0.0388 -0.8801
12213SOL    HW137217   2.378   2.945   6.034  1.5798  0.4577  1.3028
12213SOL    HW237218   2.527   2.972   6.025  1.2131  1.8766 -1.8287
12214SOL     OW37219   0.826   5.719   6.845 -0.1348  0.4235 -0.8854
12214SOL    HW137220   0.917   5.738   6.869  0.0251  1.7028 -2.3278
12214SOL    HW237221   0.820   5.623   6.849  1.1006  0.3586 -0.1719
12215SOL     OW37222   1.754   2.459   2.846  0.1120  0.0696 -0.2587
12215SOL    HW137223   1.733   2.511   2.923 -1.1762 -0.4720 -0.2165
12215SOL    HW237224   1.740   2.518   2.772  0.1628  0.2447 -0.1258
12216SOL     OW37225   8.519   7.228   3.544 -0.2018  0.2624 -0.0743
12216SOL    HW137226   8.570   7.194   3.619 -0.2242 -0.9257 -0.5744
12216SOL    HW237227   8.528   7.160   3.477 -3.3811 -0.5768  0.1885
12217SOL     OW37228   2.472   0.812   7.862 -0.5460 -0.0753 -0.0052
12217SOL    HW137229   2.454   0.883   7.923  0.3620 -0.3022  0.5531
12217SOL    HW237230   2.515   0.854   7.788 -0.9479  0.0937 -0.1460
12218SOL     OW37231   8.220   9.323   6.995  0.0089  0.1416 -0.1674
12218SOL    HW137232   8.278   9.251   6.969  0.7587  0.6655  0.0396
12218SOL    HW237233   8.277   9.386   7.039 -0.7474  0.5938  0.1853
12219SOL     OW37234   5.984   1.712   3.054  0.3208  0.4781 -0.1742
12219SOL    HW137235   6.005   1.805   3.045  1.8944  0.2274  0.6338
12219SOL    HW237236   5.945   1.705   3.141  1.5261  0.1798  0.3561
12220SOL     OW37237   0.320   6.684   9.483  0.9319  0.3656  0.3015
12220SOL    HW137238   0.268   6.685   9.402  1.4807  1.6968 -0.0603
12220SOL    HW237239   0.340   6.591   9.497  1.4205  0.1510 -1.4915
12221SOL     OW37240   2.503   8.768   0.606 -0.0977  0.9008 -0.0545
12221SOL    HW137241   2.440   8.834   0.633 -0.3438  0.4902  0.3873
12221SOL    HW237242   2.520   8.787   0.513 -1.3488  0.6235 -0.3584
12222SOL     OW37243   7.199   8.698   0.392  0.3125  0.0592 -0.6455
12222SOL    HW137244   7.152   8.774   0.427  0.3084 -0.2028 -0.0744
12222SOL    HW237245   7.150   8.622   0.425  2.6801 -0.3522  2.4100
12223SOL     OW37246   4.922   6.485   3.372 -0.1104 -0.1376  0.4609
12223SOL    HW137247   4.890   6.422   3.437  0.9534  0.2351  1.3758
12223SOL    HW237248   4.858   6.557   3.375  0.4228  0.3010  1.7808
12224SOL     OW37249   5.482   7.354   6.267 -0.0505  0.3696  0.6195
12224SOL    HW137250   5.510   7.300   6.193  0.4610 -1.6518  2.1931
12224SOL    HW237251   5.563   7.372   6.315 -0.5238  0.5856  1.3448
12225SOL     OW37252   3.604   7.719   1.053 -0.3280  0.0691  0.6821
12225SOL    HW137253   3.678   7.695   0.997 -0.3915  1.3352  0.0201
12225SOL    HW237254   3.536   7.749   0.992 -1.2156 -0.5735  1.3144
12226SOL     OW37255   5.737   5.235   5.389  0.8095 -1.1802  0.3138
12226SOL    HW137256   5.654   5.187   5.397  0.6792 -0.9276  0.4687
12226SOL    HW237257   5.802   5.166   5.376  0.4812 -1.3468 -0.5648
12227SOL     OW37258   6.370   2.138   8.672  0.6479 -0.0961 -0.3836
12227SOL    HW137259   6.409   2.179   8.596  2.4757  2.4270  1.7645
12227SOL    HW237260   6.292   2.190   8.691  1.8942  1.3085  1.1912
12228SOL     OW37261   9.945   4.619   0.154  0.0991  0.4042  0.1266
12228SOL    HW137262   9.878   4.686   0.149  0.4723  0.6960 -1.3285
12228SOL    HW237263  10.025   4.666   0.179  0.1279  0.3335  0.1682
12229SOL     OW37264   0.033   2.386   0.534 -0.0623 -0.6564  0.1468
12229SOL    HW137265   0.101   2.401   0.467 -1.5688 -0.6960 -1.4645
12229SOL    HW237266   0.066   2.312   0.585  0.9478 -0.9201 -0.8302
12230SOL     OW37267   7.387   1.463   2.801  0.2356  0.0159 -0.4442
12230SOL    HW137268   7.339   1.523   2.744 -1.0412 -0.9100 -0.3911
12230SOL    HW237269   7.399   1.385   2.748 -0.5574 -0.6805  0.3663
12231SOL     OW37270   3.458   0.428   7.832  0.5584 -0.1157 -0.5195
12231SOL    HW137271   3.499   0.367   7.771 -1.8398 -0.4425 -1.9077
12231SOL    HW237272   3.366   0.403   7.834  0.2411  0.8859  2.0771
12232SOL     OW37273   4.524   8.907   4.984  0.4535 -0.6277 -0.3326
12232SOL    HW137274   4.562   8.832   4.937 -0.5035 -1.2970 -0.0771
12232SOL    HW237275   4.592   8.974   4.982  1.1654 -1.3516 -0.9582
12233SOL     OW37276   9.362   0.503   3.088  0.6725 -0.3136  0.7116
12233SOL    HW137277   9.396   0.588   3.061 -2.0996  0.6768  0.0917
12233SOL    HW237278   9.383   0.445   3.015  0.2001  0.5018 -0.0912
12234SOL     OW37279   4.001   9.037   9.651  0.1568 -0.8280  0.2037
12234SOL    HW137280   3.965   8.957   9.612  0.1327 -1.5645  1.6862
12234SOL    HW237281   3.961   9.107   9.600 -0.8056 -1.7184 -0.3263
12235SOL     OW37282   4.514   4.096   9.496  0.5376  0.9204 -0.1881
12235SOL    HW137283   4.599   4.133   9.520  0.9535 -0.2954  0.2752
12235SOL    HW237284   4.532   4.005   9.476 -0.6565  0.6496 -0.1194
12236SOL     OW37285   9.372   9.475   3.179  0.4449 -0.7016  0.8134
12236SOL    HW137286   9.401   9.440   3.094  1.8106 -1.7875  1.6807
12236SOL    HW237287   9.452   9.482   3.231 -0.1168  1.6887  1.4424
12237SOL     OW37288   7.897   6.890   1.235  0.2780  0.1792 -0.7223
12237SOL    HW137289   7.876   6.947   1.161 -0.4150 -0.8142 -1.3174
12237SOL    HW237290   7.813   6.852   1.261  0.8147 -1.1483 -0.8438
12238SOL     OW37291   9.600   1.044   6.922 -0.6494 -0.0901  0.0190
12238SOL    HW137292   9.574   1.126   6.964  1.0831  0.6740 -0.3385
12238SOL    HW237293   9.568   1.053   6.832  0.9121  0.9382 -0.4780
12239SOL     OW37294   3.173   9.951   5.688 -0.2921 -0.0220  0.4338
12239SOL    HW137295   3.186  10.037   5.728 -1.4029  0.1173  0.5380
12239SOL    HW237296   3.257   9.906   5.698  0.5949  1.3830 -0.4507
12240SOL     OW37297   5.974   0.191   8.299 -0.0760 -0.2914 -0.2643
12240SOL    HW137298   5.955   0.107   8.339  0.0165 -0.8272 -1.2964
12240SOL    HW237299   5.942   0.256   8.361  1.3745 -1.0302  1.3430
12241SOL     OW37300   1.354   9.571   5.082 -0.2109 -0.0007 -0.3540
12241SOL    HW137301   1.441   9.577   5.121  0.7605  0.5588 -2.4805
12241SOL    HW237302   1.327   9.662   5.069 -1.0304 -0.1705  0.0496
12242SOL     OW37303   9.764   3.563   2.206  0.0931  0.4319 -0.0640
12242SOL    HW137304   9.818   3.566   2.285 -0.9717  1.3217  0.6547
12242SOL    HW237305   9.686   3.515   2.232 -0.7571  1.6804 -0.2364
12243SOL     OW37306   4.904   5.505   6.124 -0.6533 -0.2301  0.2135
12243SOL    HW137307   4.976   5.512   6.061 -0.2482 -0.3608  0.6637
12243SOL    HW237308   4.940   5.455   6.197 -1.4156 -0.9100  0.1380
12244SOL     OW37309   3.773   7.249   7.914 -0.2817 -0.1571 -0.0035
12244SOL    HW137310   3.854   7.294   7.892 -0.2777 -0.4799 -0.6786
12244SOL    HW237311   3.736   7.300   7.987  0.1443  0.4319 -0.1921
12245SOL     OW37312   4.087   7.699   0.034 -0.6034  0.2532  0.0069
12245SOL    HW137313   4.181   7.686   0.024 -0.8557 -1.2166 -0.7432
12245SOL    HW237314   4.079   7.762   0.106  0.9436  0.5954 -0.0793
12246SOL     OW37315   7.332   6.694   3.273 -0.0977 -0.2050 -0.0464
12246SOL    HW137316   7.259   6.675   3.213  0.0892  1.2943 -0.7877
12246SOL    HW237317   7.381   6.764   3.230  1.6671 -0.9978  0.5477
12247SOL     OW37318   2.170   2.670   9.528 -0.3281  0.0793 -0.5433
12247SOL    HW137319   2.141   2.611   9.458 -0.1800  1.2990 -1.6721
12247SOL    HW237320   2.123   2.752   9.511  0.8040  0.8513 -0.0638
12248SOL     OW37321   0.143   7.912   3.830  0.1790 -0.2945 -0.2766
12248SOL    HW137322   0.189   7.979   3.882 -1.3607  0.2639  0.4436
12248SOL    HW237323   0.189   7.911   3.746  0.4107  1.5029 -0.2168
12249SOL     OW37324   3.924   8.722   4.212  0.2323 -0.1193 -0.4517
12249SOL    HW137325   4.007   8.683   4.187 -0.1034 -1.0816 -0.1201
12249SOL    HW237326   3.860   8.681   4.153  0.0313  0.8515 -0.9241
12250SOL     OW37327   2.810   1.590   9.715  0.1593  0.2093 -0.0031
12250SOL    HW137328   2.816   1.566   9.808  0.1144  1.1008  0.2412
12250SOL    HW237329   2.824   1.508   9.668  0.5412 -0.1945  0.7899
12251SOL     OW37330   2.163   9.832   3.681  0.0635  0.0395  0.3485
12251SOL    HW137331   2.115   9.875   3.609  0.9708  0.1105 -0.2317
12251SOL    HW237332   2.255   9.843   3.657  0.3360 -1.1562  0.8251
12252SOL     OW37333   4.578   6.038   3.668  0.0347  0.0061  0.2752
12252SOL    HW137334   4.585   5.948   3.699 -1.8607  0.1383  1.1993
12252SOL    HW237335   4.539   6.031   3.581  0.3167 -0.0685  0.1514
12253SOL     OW37336   1.949   9.368   0.463  0.6611  0.3225  0.3536
12253SOL    HW137337   1.855   9.367   0.442  0.9752 -0.4772 -1.1070
12253SOL    HW237338   1.981   9.283   0.435  1.9100  0.7452  0.4508
12254SOL     OW37339   5.203   5.177   4.119 -0.1649  0.2122 -0.4080
12254SOL    HW137340   5.124   5.157   4.168 -0.3109  0.7285 -0.4259
12254SOL    HW237341   5.185   5.262   4.079  0.5848  0.5709 -0.0076
12255SOL     OW37342   6.002   9.550   4.194 -0.3276  0.2378 -0.6278
12255SOL    HW137343   6.017   9.464   4.233  0.8489 -0.7041 -2.9689
12255SOL    HW237344   5.910   9.549   4.168 -0.5014 -0.0216 -0.0226
12256SOL     OW37345   2.176   6.629   6.294 -0.0298 -0.2817  0.1250
12256SOL    HW137346   2.205   6.585   6.214  0.0528 -0.5870  0.3193
12256SOL    HW237347   2.243   6.607   6.359  0.2594  0.5128  0.1092
12257SOL     OW37348   7.675   4.326   6.930  0.2186  0.3491 -0.3787
12257SOL    HW137349   7.588   4.298   6.960  0.6567 -1.0179 -0.3491
12257SOL    HW237350   7.737   4.281   6.987  0.9653  2.0699  0.2398
12258SOL     OW37351   9.805   0.462   2.036 -0.3412 -0.0109 -0.5774
12258SOL    HW137352   9.807   0.453   1.941 -1.6733 -2.9962 -0.4472
12258SOL    HW237353   9.767   0.549   2.052 -0.0440  0.5609 -2.7338
12259SOL     OW37354   2.620   8.129   6.215  0.1931  0.2516 -0.4139
12259SOL    HW137355   2.698   8.119   6.161  2.2863  0.3715  2.3489
12259SOL    HW237356   2.580   8.042   6.216  0.9624 -0.1184 -0.9257
12260SOL     OW37357   3.854   3.281   8.648  0.3300  0.0784 -0.5610
12260SOL    HW137358   3.913   3.295   8.574  1.1236 -0.2324  0.0011
12260SOL    HW237359   3.848   3.366   8.690  2.4445 -0.4085  0.8682
12261SOL     OW37360   0.702   7.110   8.506  0.0576 -0.2676 -0.8136
12261SOL    HW137361   0.643   7.036   8.522  0.4644 -0.4017  0.1356
12261SOL    HW237362   0.715   7.150   8.592  1.6464 -0.4779 -0.9255
12262SOL     OW37363   1.780   5.331   5.669 -0.0828  0.1250 -0.0467
12262SOL    HW137364   1.723   5.406   5.686  1.5281  1.3697  0.1077
12262SOL    HW237365   1.805   5.340   5.577  2.0213  1.1911  0.5829
12263SOL     OW37366   5.998   6.641   1.539 -0.0739 -0.0204 -0.0670
12263SOL    HW137367   5.935   6.578   1.571  2.3236 -2.0160  1.0887
12263SOL    HW237368   5.963   6.726   1.567 -2.2084 -1.0092  0.4660
12264SOL     OW37369   0.088   1.824   4.666 -0.3368 -0.4698 -0.1482
12264SOL    HW137370   0.113   1.740   4.628 -1.6642 -1.5012  1.1367
12264SOL    HW237371   0.170   1.873   4.670  0.3636 -1.4312 -1.5031
12265SOL     OW37372   0.022   2.270   5.389  0.0936  0.9103 -0.1844
12265SOL    HW137373   0.068   2.229   5.463 -0.2934 -0.6742 -0.7979
12265SOL    HW237374  -0.058   2.218   5.378  0.0259  1.2746 -1.5705
12266SOL     OW37375   9.550   6.208   0.443 -0.3848 -0.0872 -0.0020
12266SOL    HW137376   9.543   6.279   0.506  1.3517 -0.1211  0.2720
12266SOL    HW237377   9.627   6.229   0.391  1.5889 -2.8617  1.5591
12267SOL     OW37378   4.860   3.143   9.374  0.3998  0.0873  0.0579
12267SOL    HW137379   4.766   3.143   9.357  0.6765 -0.0776 -1.6035
12267SOL    HW237380   4.874   3.221   9.429 -0.6529  0.2979  0.0528
12268SOL     OW37381   1.232   8.264   3.892  0.4442 -0.1647  0.6339
12268SOL    HW137382   1.320   8.292   3.867 -0.7860  1.5483 -2.1687
12268SOL    HW237383   1.173   8.320   3.842 -2.2753 -3.4818 -0.2883
12269SOL     OW37384   7.493   9.643   8.591  0.0418  0.0638  0.5847
12269SOL    HW137385   7.567   9.702   8.575 -0.9563  1.5213  1.2043
12269SOL    HW237386   7.455   9.672   8.673 -1.6837 -0.1582 -0.0832
12270SOL     OW37387   2.614   6.972   2.190 -0.3563 -0.3727  0.4571
12270SOL    HW137388   2.634   6.967   2.283  0.1319 -3.3083  0.2612
12270SOL    HW237389   2.597   6.882   2.163  1.0789  0.1350 -2.6388
12271SOL     OW37390   5.915   8.885   8.273 -0.0406  0.1482  0.7386
12271SOL    HW137391   5.910   8.790   8.288 -0.9244 -0.1768 -1.3598
12271SOL    HW237392   5.834   8.919   8.310 -0.3783 -0.1090  0.2384
12272SOL     OW37393   6.202   6.374   6.390  0.2539 -0.8434 -0.4564
12272SOL    HW137394   6.125   6.342   6.344  0.5796  0.5771 -2.1015
12272SOL    HW237395   6.269   6.307   6.374 -0.2969 -1.5289  0.0350
12273SOL     OW37396   2.813   4.249   9.239  0.1545  0.4014  0.4834
12273SOL    HW137397   2.816   4.248   9.144 -0.9880 -1.5298  0.4185
12273SOL    HW237398   2.786   4.338   9.262 -1.9088  0.2590 -1.1224
12274SOL     OW37399   8.281   7.870   1.678  0.0904 -0.5639 -0.2455
12274SOL    HW137400   8.340   7.938   1.712  0.7092 -1.2100 -0.0094
12274SOL    HW237401   8.195   7.895   1.710  0.3679 -0.0891  0.1478
12275SOL     OW37402   4.908   7.297   5.992  0.2745  0.3621 -0.1323
12275SOL    HW137403   4.977   7.231   5.990  0.1012  0.1364  0.7788
12275SOL    HW237404   4.841   7.260   6.050 -1.1333  0.0794 -1.8735
12276SOL     OW37405   5.090   3.876   9.652 -0.9664 -0.0513 -0.1677
12276SOL    HW137406   5.088   3.865   9.747  2.1567 -1.0539 -0.0944
12276SOL    HW237407   5.134   3.960   9.639 -0.2948 -0.4665 -0.6745
12277SOL     OW37408   5.020   6.369   6.912 -0.1439  0.1162  0.5194
12277SOL    HW137409   4.928   6.362   6.937 -0.3056 -1.7635 -0.4321
12277SOL    HW237410   5.061   6.413   6.987 -2.0406  2.5952  0.2471
12278SOL     OW37411   5.477   4.312   9.000 -0.5112  0.0557 -0.1630
12278SOL    HW137412   5.449   4.401   9.019 -0.1485  0.0626  0.3457
12278SOL    HW237413   5.565   4.305   9.037 -0.6132 -0.5719 -0.0204
12279SOL     OW37414   2.864   9.929   4.564 -0.2225 -0.1099  0.0498
12279SOL    HW137415   2.789   9.898   4.513 -1.3502 -0.4763  1.8636
12279SOL    HW237416   2.839  10.017   4.591  0.6967  0.3774 -0.6041
12280SOL     OW37417   2.982   2.408   6.391 -0.6818  0.1011  0.0120
12280SOL    HW137418   3.009   2.376   6.477 -0.6073  0.0067 -0.0460
12280SOL    HW237419   2.895   2.445   6.405 -0.0142  1.5641  0.4606
12281SOL     OW37420   8.566   1.863   7.593  0.1154  0.1754  0.1496
12281SOL    HW137421   8.589   1.782   7.638  0.7572  1.0298  1.4384
12281SOL    HW237422   8.650   1.896   7.560 -0.1427  0.3102 -0.3848
12282SOL     OW37423   1.458   8.185   8.316 -0.4757 -0.3402 -0.1184
12282SOL    HW137424   1.480   8.122   8.385  1.9378  0.2568 -0.2610
12282SOL    HW237425   1.463   8.134   8.235 -1.8156 -0.6911 -0.0007
12283SOL     OW37426   8.621   8.390   8.803 -0.3862 -0.3076 -0.0309
12283SOL    HW137427   8.641   8.476   8.766 -1.2231  0.7257  1.7671
12283SOL    HW237428   8.640   8.399   8.897  1.3160 -2.6805 -0.0685
12284SOL     OW37429   7.626   7.130   0.453  0.8076  0.5375 -0.1905
12284SOL    HW137430   7.652   7.130   0.361 -1.7198 -2.1314 -1.0598
12284SOL    HW237431   7.637   7.221   0.481  1.6775  1.4463 -3.1025
12285SOL     OW37432   5.951   2.191   1.447 -0.5442 -0.1087  0.4143
12285SOL    HW137433   5.906   2.113   1.477 -0.3554 -0.7499 -0.9019
12285SOL    HW237434   5.920   2.205   1.357  0.6803  0.3313  0.0261
12286SOL     OW37435   8.388   6.863   8.951 -0.3739 -0.1800  0.0435
12286SOL    HW137436   8.469   6.873   9.002 -0.2633 -0.7792 -0.0065
12286SOL    HW237437   8.328   6.817   9.010 -0.8645  0.7238  0.2686
12287SOL     OW37438   3.255   2.279   0.710 -0.1749  0.1697 -0.4487
12287SOL    HW137439   3.181   2.240   0.663 -0.2131  1.1121 -1.2022
12287SOL    HW237440   3.310   2.317   0.641  0.5207  0.3087  0.1725
12288SOL     OW37441   4.072   9.117   9.950 -0.5972 -0.8127 -0.5208
12288SOL    HW137442   4.000   9.179   9.959 -0.5857 -1.0082  1.1027
12288SOL    HW237443   4.068   9.090   9.858 -1.4713  0.5132 -0.9073
12289SOL     OW37444   0.520   8.613   1.511  0.6764 -0.4506  0.5468
12289SOL    HW137445   0.484   8.699   1.534  1.3386 -0.1538  0.5183
12289SOL    HW237446   0.461   8.579   1.445  0.4008 -0.0167  0.5636
12290SOL     OW37447   5.058   9.787   7.243 -0.2659 -0.2282  0.1935
12290SOL    HW137448   5.125   9.805   7.177 -0.8070 -1.0308 -0.6025
12290SOL    HW237449   5.072   9.853   7.311  1.4865 -0.5305  0.1670
12291SOL     OW37450   0.525   1.639   3.449 -0.2268  0.2402 -0.2968
12291SOL    HW137451   0.436   1.674   3.443 -0.7035 -0.6999  0.8037
12291SOL    HW237452   0.563   1.684   3.525 -0.8307 -1.4850  1.1052
12292SOL     OW37453   9.528   8.871   5.335  0.1843  0.5076  0.3092
12292SOL    HW137454   9.488   8.954   5.358 -1.1957  0.0905 -0.4599
12292SOL    HW237455   9.457   8.821   5.293  0.4747 -1.6952  2.2342
12293SOL     OW37456   5.674   3.733   2.536  0.0978 -0.7268 -0.1879
12293SOL    HW137457   5.600   3.761   2.591 -0.0412  1.4011 -1.3272
12293SOL    HW237458   5.749   3.734   2.594 -0.1043  1.1397  0.0992
12294SOL     OW37459   5.896   8.023   4.588 -0.2224 -0.3666  0.3767
12294SOL    HW137460   5.916   8.056   4.676  1.1499 -1.0369  0.3402
12294SOL    HW237461   5.935   8.086   4.529 -0.3653 -0.3835  0.2652
12295SOL     OW37462   5.047   3.338   6.968 -0.0852 -0.0575 -0.3926
12295SOL    HW137463   4.977   3.334   7.033  0.9217 -0.2422  0.7224
12295SOL    HW237464   5.097   3.416   6.990  0.2788 -0.1215 -0.9437
12296SOL     OW37465   2.138   8.105   3.005 -0.4191  0.7252 -0.0875
12296SOL    HW137466   2.124   8.053   3.084  1.1801  0.9164  0.3628
12296SOL    HW237467   2.096   8.189   3.025 -1.8566  0.0890 -0.2987
12297SOL     OW37468   5.045   8.063   2.466 -0.3191 -0.1238  0.3752
12297SOL    HW137469   4.958   8.099   2.449 -0.0261  0.5837  0.3094
12297SOL    HW237470   5.102   8.140   2.470  0.0240 -0.4401  2.1724
12298SOL     OW37471   8.298   3.975   6.916  0.5893 -0.6769  0.4362
12298SOL    HW137472   8.205   3.955   6.927  0.6830 -0.9436  0.7465
12298SOL    HW237473   8.321   3.936   6.831  0.4484 -0.7137  0.4152
12299SOL     OW37474   2.907   1.641   7.793 -0.2389 -0.0783 -0.2659
12299SOL    HW137475   2.934   1.733   7.801 -1.0313  0.1513 -0.1404
12299SOL    HW237476   2.916   1.606   7.882  0.8735 -0.3682 -0.4723
12300SOL     OW37477   2.441   7.252   3.224 -0.2847 -0.2732  0.0537
12300SOL    HW137478   2.488   7.229   3.304 -0.3921 -0.2135  0.1326
12300SOL    HW237479   2.482   7.197   3.156  0.5729  0.4839 -0.0632
12301SOL     OW37480   6.946   6.393   6.596  0.8426 -0.1003  0.1952
12301SOL    HW137481   7.001   6.471   6.609  0.6749  0.3166 -1.3678
12301SOL    HW237482   6.859   6.419   6.625  1.2246 -0.4295  1.7123
12302SOL     OW37483   5.348   7.543   2.141 -0.0056 -0.1892  0.5062
12302SOL    HW137484   5.374   7.458   2.176  1.2909 -0.4527 -0.9794
12302SOL    HW237485   5.261   7.558   2.178 -0.1934 -2.0626  0.9470
12303SOL     OW37486   6.810   5.025   8.809 -0.0864  0.2807  0.3557
12303SOL    HW137487   6.861   5.070   8.876  0.6541 -0.5618  0.3641
12303SOL    HW237488   6.782   4.943   8.850 -1.3606  0.6660  0.3144
12304SOL     OW37489   2.363   7.474   2.897 -0.2405  0.1223  0.1022
12304SOL    HW137490   2.378   7.479   2.803  0.1322  1.5761  0.2115
12304SOL    HW237491   2.443   7.435   2.932  0.1762  0.8357 -0.0513
12305SOL     OW37492   0.128   8.885   5.201 -0.0849  0.4384 -0.2680
12305SOL    HW137493   0.206   8.941   5.197 -0.1376  0.5590  0.3769
12305SOL    HW237494   0.055   8.945   5.184  0.0838 -0.0554 -3.2756
12306SOL     OW37495   4.939   5.339   7.771 -0.3386 -0.4541 -0.3769
12306SOL    HW137496   4.918   5.266   7.829 -0.5291  0.0734  0.2380
12306SOL    HW237497   4.933   5.303   7.683 -1.3584 -0.9413 -0.1202
12307SOL     OW37498   7.906   8.814   7.671 -0.0266 -0.0459  0.2490
12307SOL    HW137499   7.988   8.790   7.714  1.8861  0.2945 -2.8800
12307SOL    HW237500   7.851   8.849   7.741  2.2850 -0.7770  2.5652
12308SOL     OW37501   2.214   5.115   1.142 -0.0046  0.0801  0.0572
12308SOL    HW137502   2.284   5.176   1.118 -0.4843  0.6257  0.0295
12308SOL    HW237503   2.253   5.060   1.210  0.2169  0.8849  0.6015
12309SOL     OW37504   9.832   1.534   5.305  0.6352  0.2129  0.2498
12309SOL    HW137505   9.822   1.499   5.393 -0.5832  0.9074  0.4181
12309SOL    HW237506   9.864   1.461   5.252 -1.8477 -1.1897  0.5642
12310SOL     OW37507   4.289   5.874   0.797  0.0737  0.1835  0.1139
12310SOL    HW137508   4.310   5.942   0.733 -0.8594  0.6453  0.2959
12310SOL    HW237509   4.354   5.805   0.779  1.6514  1.4787  0.5583
12311SOL     OW37510   4.502   6.169   0.298  0.2382  0.6689 -0.2886
12311SOL    HW137511   4.433   6.233   0.315 -0.3476  0.1687 -0.7439
12311SOL    HW237512   4.518   6.174   0.204 -0.8424 -0.8488 -0.5986
12312SOL     OW37513   8.314   4.706   4.040  0.3736  0.5604  0.0091
12312SOL    HW137514   8.242   4.720   4.101 -0.6698 -0.5272 -0.9313
12312SOL    HW237515   8.389   4.684   4.096 -1.2769 -3.7321  0.9838
12313SOL     OW37516   8.817   6.868   9.326 -0.4438  0.4403  0.1384
12313SOL    HW137517   8.818   6.964   9.321  0.0442  0.4573  0.5279
12313SOL    HW237518   8.906   6.842   9.303 -0.7300  0.0436 -0.5378
12314SOL     OW37519   8.637   3.218   3.578 -0.1368 -0.5133 -0.2046
12314SOL    HW137520   8.670   3.298   3.537 -1.3697 -0.7463 -1.7483
12314SOL    HW237521   8.543   3.232   3.587 -0.1220 -1.1031  1.1861
12315SOL     OW37522   8.181   7.663   7.921  0.5278  0.1469 -0.3351
12315SOL    HW137523   8.142   7.594   7.868 -1.5987  1.4577 -0.5658
12315SOL    HW237524   8.257   7.691   7.871  1.4666 -1.9785 -0.2208
12316SOL     OW37525   5.633   4.866   9.672 -0.0322  0.2297  0.2640
12316SOL    HW137526   5.708   4.926   9.678  0.0188  0.0083  2.3626
12316SOL    HW237527   5.671   4.779   9.686 -0.3857 -0.1388 -0.9150
12317SOL     OW37528   3.526   5.599   6.584 -0.3346  0.5223  0.1537
12317SOL    HW137529   3.583   5.524   6.602 -0.7104  0.5751  1.6856
12317SOL    HW237530   3.586   5.672   6.570  0.0322 -0.0276 -1.2594
12318SOL     OW37531   2.889   8.274   5.171 -0.8240 -0.1380  0.5146
12318SOL    HW137532   2.883   8.316   5.257 -0.0536 -0.8475  0.9372
12318SOL    HW237533   2.954   8.204   5.183 -1.2963 -0.7681 -0.4337
12319SOL     OW37534   3.642   1.361   2.635 -0.3282 -0.0786  0.3211
12319SOL    HW137535   3.696   1.373   2.713 -1.0137 -0.9056  0.9453
12319SOL    HW237536   3.552   1.370   2.667 -0.6197 -0.6530 -0.3202
12320SOL     OW37537   9.880   9.501   8.037 -0.3302  0.7448 -0.6141
12320SOL    HW137538   9.795   9.459   8.048  0.3063 -0.2156  0.9972
12320SOL    HW237539   9.899   9.539   8.123  1.2611  0.1579 -0.6785
12321SOL     OW37540   2.036   5.474   5.971  0.8450  0.0361 -0.5376
12321SOL    HW137541   1.990   5.438   5.895  0.0261  0.8231 -0.4358
12321SOL    HW237542   2.098   5.406   5.997 -1.1384 -1.6084  0.0923
12322SOL     OW37543   1.106   3.889   4.579 -0.0497  0.1576 -0.2077
12322SOL    HW137544   1.104   3.894   4.675  0.7755  0.8715 -0.2185
12322SOL    HW237545   1.199   3.896   4.556 -0.1298 -1.0307 -1.0204
12323SOL     OW37546   4.632   0.463   8.896 -0.2996  0.2779  0.1534
12323SOL    HW137547   4.702   0.468   8.831  0.2059 -0.3391  0.6377
12323SOL    HW237548   4.605   0.554   8.909 -0.0407  0.4578 -0.5216
12324SOL     OW37549   8.546   4.265   3.076  0.3229  0.0930 -0.0969
12324SOL    HW137550   8.566   4.198   3.010  0.6466  0.3407 -0.2507
12324SOL    HW237551   8.629   4.309   3.092  0.2548  0.0154  0.5027
12325SOL     OW37552   4.543   7.966   8.397 -0.1553  0.3194 -0.2631
12325SOL    HW137553   4.464   7.922   8.365 -0.1206  1.2673 -1.7077
12325SOL    HW237554   4.605   7.959   8.325  0.4927  1.1110  0.2083
12326SOL     OW37555   9.296   5.124   0.695 -0.7685 -0.1051  0.0497
12326SOL    HW137556   9.370   5.152   0.642  0.3165 -1.5197  0.7528
12326SOL    HW237557   9.219   5.159   0.650  0.1827 -0.3548 -1.8438
12327SOL     OW37558   2.609   9.781   9.749 -0.1637 -0.1455  0.0227
12327SOL    HW137559   2.606   9.814   9.659 -0.0407 -1.2547 -0.4092
12327SOL    HW237560   2.522   9.744   9.763 -0.2170  0.1245  0.4068
12328SOL     OW37561   0.923   1.180   2.957  0.7297  0.3290  0.1667
12328SOL    HW137562   1.005   1.131   2.964 -0.0829 -1.0055  0.6228
12328SOL    HW237563   0.951   1.270   2.942  2.2888 -0.0092  0.8254
12329SOL     OW37564   3.243   2.543   3.331 -0.4267 -0.3809  0.0456
12329SOL    HW137565   3.214   2.560   3.421 -1.1620 -0.4024 -0.1739
12329SOL    HW237566   3.337   2.527   3.338  0.0124  2.0833  0.4808
12330SOL     OW37567   6.677   6.425   7.161  0.3388 -0.2870 -0.4297
12330SOL    HW137568   6.706   6.454   7.248  1.2170  1.1636 -1.1705
12330SOL    HW237569   6.596   6.474   7.146  1.0075  0.6790 -1.0400
12331SOL     OW37570   0.401   6.787   5.385 -0.1217 -0.2425 -0.4455
12331SOL    HW137571   0.478   6.738   5.357  0.4151  0.8868 -0.9906
12331SOL    HW237572   0.341   6.782   5.311  0.2261  0.5141 -0.7867
12332SOL     OW37573   2.653   9.356   9.629  0.1063 -0.5798 -0.0461
12332SOL    HW137574   2.728   9.300   9.645 -0.0671 -0.3176  1.8416
12332SOL    HW237575   2.687   9.445   9.640 -0.3628 -0.4451  0.3433
12333SOL     OW37576   2.689   1.598   7.231  0.1756  0.4474  0.2929
12333SOL    HW137577   2.674   1.688   7.204  1.3893  0.0183 -2.0437
12333SOL    HW237578   2.630   1.585   7.306 -0.9240  2.7674 -0.0932
12334SOL     OW37579   7.952   0.386   1.969  0.1893  0.0153 -0.1685
12334SOL    HW137580   7.958   0.330   2.047 -1.3972  1.0321  0.7278
12334SOL    HW237581   7.996   0.467   1.994 -0.9630  0.6194 -0.0394
12335SOL     OW37582   1.849   2.816   3.761 -0.2475 -0.1129  0.0575
12335SOL    HW137583   1.841   2.763   3.682 -0.1420  1.9030 -1.3845
12335SOL    HW237584   1.940   2.847   3.761 -0.9113  1.9991 -0.5129
12336SOL     OW37585   4.831   8.314   0.544  0.6072  0.1404 -0.3385
12336SOL    HW137586   4.848   8.281   0.456  0.9077 -0.5614 -0.0181
12336SOL    HW237587   4.809   8.407   0.531 -1.7640 -0.4842 -1.4288
12337SOL     OW37588   6.861   3.775   4.511 -0.3373  0.1905  0.0476
12337SOL    HW137589   6.930   3.815   4.458  1.0302  0.2103  1.7607
12337SOL    HW237590   6.818   3.713   4.451  0.5336  0.8580 -1.3230
12338SOL     OW37591   7.473   3.396   0.790  0.1210 -0.4642  0.1103
12338SOL    HW137592   7.420   3.381   0.868  0.5579  1.7269  0.9208
12338SOL    HW237593   7.537   3.326   0.790  1.0476  0.2659  2.6088
12339SOL     OW37594   9.858   5.195   9.763  0.2527  0.4358 -0.0245
12339SOL    HW137595   9.866   5.281   9.722 -0.2539 -0.1002 -1.2951
12339SOL    HW237596   9.763   5.179   9.766  0.3270  0.0983  0.5817
12340SOL     OW37597   9.500   3.390   3.905 -0.7077  0.0433  0.2451
12340SOL    HW137598   9.523   3.401   3.812 -0.8543  0.3566  0.2454
12340SOL    HW237599   9.512   3.296   3.921  3.3065  0.4988  0.9686
12341SOL     OW37600   6.422   5.780   2.248  0.0168  0.1990  0.1887
12341SOL    HW137601   6.457   5.711   2.303 -1.1960  0.6243  1.5457
12341SOL    HW237602   6.351   5.739   2.198 -0.0223  0.2215  0.2261
12342SOL     OW37603   7.030   8.696   6.802 -0.3036  0.7763  0.0149
12342SOL    HW137604   6.978   8.645   6.864 -0.1241  0.8384  0.2183
12342SOL    HW237605   7.057   8.633   6.736  0.9858  0.3166  0.9320
12343SOL     OW37606   5.242   9.936   7.800 -0.8200 -0.1235  0.3223
12343SOL    HW137607   5.225   9.868   7.735 -1.0264 -0.8585  1.1376
12343SOL    HW237608   5.324   9.909   7.843 -0.8653  0.1797  0.6019
12344SOL     OW37609   6.782   9.724   5.964  0.0751 -0.7604 -0.3367
12344SOL    HW137610   6.833   9.655   5.923  2.0929 -0.3707  1.3804
12344SOL    HW237611   6.847   9.784   6.000 -1.5866 -0.0146  1.5881
12345SOL     OW37612   3.200   7.335   3.752 -0.2933  0.0686 -0.4221
12345SOL    HW137613   3.114   7.331   3.710  0.2920 -1.2209 -1.5546
12345SOL    HW237614   3.214   7.428   3.771 -0.5060  0.7490 -3.2616
12346SOL     OW37615   3.710   9.193   9.100  0.2500 -0.3963  0.4176
12346SOL    HW137616   3.624   9.233   9.109  0.3425  0.1734 -1.0087
12346SOL    HW237617   3.693   9.099   9.094 -0.0650 -0.5180  2.4618
12347SOL     OW37618   2.084   2.985   0.658  0.6353 -0.4449  0.0462
12347SOL    HW137619   1.997   3.024   0.651  1.0766  0.5896  0.1275
12347SOL    HW237620   2.070   2.901   0.702 -0.1166  0.5661  1.8593
12348SOL     OW37621   4.681   7.509   1.034 -0.0340 -0.0506  0.0407
12348SOL    HW137622   4.632   7.427   1.029 -1.4893  0.6131  2.1779
12348SOL    HW237623   4.653   7.549   1.116  0.0093  2.9856 -1.2922
12349SOL     OW37624   3.154   0.570   7.543  0.1252 -0.1643 -0.6674
12349SOL    HW137625   3.091   0.635   7.513  0.1304  0.7599  1.2117
12349SOL    HW237626   3.233   0.620   7.562  0.9299 -1.0882 -1.4732
12350SOL     OW37627   4.364   1.273   6.349  0.9669  0.1658 -0.1468
12350SOL    HW137628   4.306   1.213   6.396 -1.9548  2.5388 -0.4593
12350SOL    HW237629   4.353   1.249   6.257  1.4835 -0.1467 -0.1348
12351SOL     OW37630   5.745   6.938   5.964 -0.2000  0.5447 -0.2271
12351SOL    HW137631   5.682   6.916   5.895  0.6212 -0.5191 -0.6734
12351SOL    HW237632   5.818   6.978   5.917 -0.6460  2.0276  0.3198
12352SOL     OW37633   4.268   3.729   9.517  0.2232  0.4434 -0.3816
12352SOL    HW137634   4.268   3.795   9.448  0.2765  0.9629  0.1146
12352SOL    HW237635   4.331   3.761   9.581  2.3642 -1.4428 -1.4014
12353SOL     OW37636   0.362   1.402   8.637  0.1173  0.0414 -0.4979
12353SOL    HW137637   0.413   1.478   8.668 -1.9688  0.4838  2.2288
12353SOL    HW237638   0.364   1.341   8.710 -1.8104 -0.6434 -0.9627
12354SOL     OW37639   5.278   9.931   0.806  0.1772 -0.1331  0.2615
12354SOL    HW137640   5.348   9.867   0.818 -0.1127 -0.7078 -0.9518
12354SOL    HW237641   5.200   9.879   0.792 -0.3311  0.5015  0.7059
12355SOL     OW37642   0.183   3.782   4.157 -0.3001 -0.1446 -0.1745
12355SOL    HW137643   0.219   3.694   4.168  1.0508  0.2676 -1.0041
12355SOL    HW237644   0.111   3.771   4.096 -1.5888 -0.9752  1.4186
12356SOL     OW37645   8.778   2.572   3.760 -0.2282  0.3286 -0.3752
12356SOL    HW137646   8.864   2.532   3.743 -0.5193 -0.3659 -0.2181
12356SOL    HW237647   8.745   2.527   3.837 -0.8633  0.3943 -0.6041
12357SOL     OW37648   6.238   2.062   7.063  0.2697 -0.2785  0.0212
12357SOL    HW137649   6.278   1.975   7.054  0.4174 -0.0292 -2.2346
12357SOL    HW237650   6.151   2.052   7.026  0.7184  0.7958 -1.4046
12358SOL     OW37651   9.240   4.053   5.186 -0.4026  0.4597  0.2644
12358SOL    HW137652   9.277   3.984   5.131  0.0556 -0.3645  1.5718
12358SOL    HW237653   9.274   4.134   5.148 -2.9018  0.2409 -2.8018
12359SOL     OW37654   2.719   1.180   6.201  0.7926  0.4201  0.7693
12359SOL    HW137655   2.639   1.230   6.184  0.6440  0.8972  2.6545
12359SOL    HW237656   2.760   1.225   6.275  1.5739 -1.2160  1.3856
12360SOL     OW37657   6.733   4.265   5.662  0.1007  0.3711 -0.0929
12360SOL    HW137658   6.757   4.210   5.587  0.4821  0.5893 -0.1360
12360SOL    HW237659   6.673   4.331   5.626  0.8201  0.8973 -0.3582
12361SOL     OW37660   9.742   7.143   0.696  0.0004 -0.3577  0.1891
12361SOL    HW137661   9.681   7.125   0.625 -0.0391  1.0604 -0.1576
12361SOL    HW237662   9.685   7.162   0.771 -0.0459  1.2722 -0.2093
12362SOL     OW37663   8.763   3.015   7.350  0.3655 -0.4643  0.7406
12362SOL    HW137664   8.813   3.061   7.417  1.7807 -1.8146  0.6659
12362SOL    HW237665   8.694   3.076   7.326 -0.1776  0.0905  3.3804
12363SOL     OW37666   1.807   0.091   3.573  0.6415  0.0301 -0.1336
12363SOL    HW137667   1.797   0.126   3.484 -0.8920  1.4286  0.5221
12363SOL    HW237668   1.838   0.002   3.561  0.2977  0.1293 -2.0818
12364SOL     OW37669   5.851   3.678   6.830 -0.7099 -0.3237 -0.2367
12364SOL    HW137670   5.854   3.691   6.735  0.9282  2.6749  0.1094
12364SOL    HW237671   5.922   3.732   6.864 -1.9408 -0.4277  2.7880
12365SOL     OW37672   2.044   7.998   0.181  0.1876 -0.2293  0.2316
12365SOL    HW137673   1.976   7.943   0.221 -0.3413 -1.5884 -2.3109
12365SOL    HW237674   1.997   8.071   0.142  0.3588 -0.3920 -0.2843
12366SOL     OW37675   1.617   3.989   6.719 -0.1027  0.0984  0.3529
12366SOL    HW137676   1.709   3.967   6.705 -0.3031 -0.5995  0.1208
12366SOL    HW237677   1.612   4.083   6.701  0.7514  0.3528  1.3188
12367SOL     OW37678   9.739   6.018   8.289 -0.2965 -0.3710  0.1270
12367SOL    HW137679   9.815   6.075   8.282 -0.3732 -0.2580  0.1924
12367SOL    HW237680   9.761   5.941   8.237 -1.1977  0.8119 -2.1797
12368SOL     OW37681   3.716   6.811   8.071 -0.5593  0.1146 -0.1677
12368SOL    HW137682   3.687   6.751   8.139 -1.6159  1.9343  1.0886
12368SOL    HW237683   3.700   6.764   7.989  0.4207 -2.0022  0.7801
12369SOL     OW37684   0.440   5.435   8.276  0.0815 -0.2907  0.2539
12369SOL    HW137685   0.502   5.378   8.321  0.2191 -0.9731 -0.7662
12369SOL    HW237686   0.354   5.407   8.307  0.1378 -1.1769 -0.3591
12370SOL     OW37687   4.461   5.259   4.974  0.4949 -0.5597 -0.0085
12370SOL    HW137688   4.387   5.305   4.935  0.3274 -0.9711 -0.1679
12370SOL    HW237689   4.533   5.273   4.912  0.3823 -0.7186 -0.1736
12371SOL     OW37690   9.334   2.113   0.010 -0.3871  0.2183  0.4381
12371SOL    HW137691   9.368   2.194   0.048  0.8041 -0.2933  0.4974
12371SOL    HW237692   9.411   2.065  -0.019 -1.1862  0.1011 -1.6918
12372SOL     OW37693   3.166   2.304   0.979  0.5207 -0.0194  0.3742
12372SOL    HW137694   3.141   2.396   0.978  1.5727  0.2819 -0.1815
12372SOL    HW237695   3.161   2.276   0.887  0.5729 -0.4099  0.4869
12373SOL     OW37696   2.531   9.076   2.312  0.3131  0.1035 -0.2915
12373SOL    HW137697   2.563   9.139   2.247 -1.8215  1.0156 -0.5413
12373SOL    HW237698   2.443   9.054   2.283  0.9707 -3.1026 -0.2294
12374SOL     OW37699   2.928   6.101   4.484 -0.0658  0.1586  0.8732
12374SOL    HW137700   2.974   6.028   4.526 -1.4783 -0.5023  1.3535
12374SOL    HW237701   2.963   6.103   4.395  0.1912 -0.9595  0.9260
12375SOL     OW37702   1.699   9.921   4.165 -0.2693  0.7044  0.2933
12375SOL    HW137703   1.667   9.880   4.246  1.0946 -0.8539  0.0943
12375SOL    HW237704   1.783   9.959   4.189  0.4979 -0.4221 -0.5408
12376SOL     OW37705   1.367   6.316   7.653  0.3020 -0.5036 -0.0845
12376SOL    HW137706   1.376   6.223   7.636 -0.5302 -0.4282 -1.0963
12376SOL    HW237707   1.348   6.354   7.567 -0.1294  0.4880  0.4257
12377SOL     OW37708   7.162   6.341   0.630  0.5399 -0.3264  0.5581
12377SOL    HW137709   7.255   6.321   0.618  0.3427 -1.1663  0.3435
12377SOL    HW237710   7.121   6.314   0.548  0.0543 -0.3058  0.7909
12378SOL     OW37711   0.735   9.871   9.526  0.2616  0.1989 -0.8911
12378SOL    HW137712   0.688   9.915   9.454 -0.5505  0.3461 -0.2885
12378SOL    HW237713   0.680   9.887   9.603  1.2622  0.2751 -0.1848
12379SOL     OW37714   1.982   8.322   7.299  0.3880  0.1628 -0.0332
12379SOL    HW137715   2.070   8.291   7.278  0.2010  0.3136 -1.1034
12379SOL    HW237716   1.931   8.302   7.221 -0.3579  0.7580  0.2941
12380SOL     OW37717   0.135   2.702   8.493 -0.3198  0.1932  0.1649
12380SOL    HW137718   0.225   2.670   8.487  0.0820  1.4719 -1.4344
12380SOL    HW237719   0.143   2.784   8.542 -0.5872  0.4076 -0.1506
12381SOL     OW37720   3.710   2.176   8.752 -0.2162  0.7017 -0.3188
12381SOL    HW137721   3.804   2.188   8.742 -0.3030  1.4998 -0.2607
12381SOL    HW237722   3.680   2.146   8.667 -0.0029  1.1034 -0.5359
12382SOL     OW37723   8.395   1.699   2.019  0.0600 -0.2713  0.1348
12382SOL    HW137724   8.411   1.749   1.939  0.3842 -0.1761  0.2592
12382SOL    HW237725   8.371   1.765   2.084  1.3609 -0.1674  0.5374
12383SOL     OW37726   3.714   8.842   0.304 -0.1410 -0.8651  0.3889
12383SOL    HW137727   3.627   8.882   0.305 -0.5468 -1.6989 -0.2825
12383SOL    HW237728   3.757   8.876   0.383 -1.9127 -2.2762  2.0602
12384SOL     OW37729   5.944   2.690   3.932  0.5871 -0.5988 -0.4991
12384SOL    HW137730   5.972   2.608   3.974 -0.7528 -1.0270 -0.3940
12384SOL    HW237731   5.932   2.667   3.840  0.6695 -0.3978 -0.5606
12385SOL     OW37732   6.328   2.966   4.956 -0.4671 -0.4971 -0.6398
12385SOL    HW137733   6.252   3.008   4.998 -0.6779 -2.5594  1.2055
12385SOL    HW237734   6.290   2.899   4.899 -0.1461 -2.9796  1.8623
12386SOL     OW37735   5.789   9.275   4.507 -0.0913  0.6583 -0.6178
12386SOL    HW137736   5.721   9.209   4.522 -1.3218  1.5080 -2.2507
12386SOL    HW237737   5.848   9.235   4.444  0.0316  0.5226 -0.4162
12387SOL     OW37738   4.534   3.572   1.225 -0.0043 -0.0488 -0.1622
12387SOL    HW137739   4.560   3.645   1.281  0.3119 -1.1302  1.1356
12387SOL    HW237740   4.438   3.575   1.225  0.0057  1.0932 -1.1360
12388SOL     OW37741   1.379   8.282   0.191 -0.7433  0.1091 -0.6244
12388SOL    HW137742   1.455   8.236   0.226 -0.9126 -1.2866 -2.0059
12388SOL    HW237743   1.305   8.248   0.240 -0.8014 -0.6950 -1.2584
12389SOL     OW37744   2.482   0.010   1.381 -0.1673  0.0359 -0.0222
12389SOL    HW137745   2.484   0.019   1.285  0.0079 -1.9103 -0.2555
12389SOL    HW237746   2.466   0.098   1.413  1.6848  1.0936 -1.7574
12390SOL     OW37747   4.409   8.285   9.069  0.3475  0.4525  0.4245
12390SOL    HW137748   4.383   8.300   9.160 -0.1671 -1.9106  0.7227
12390SOL    HW237749   4.335   8.319   9.018 -0.5915 -0.6169  1.0210
12391SOL     OW37750   3.226   7.913   6.332 -0.0145  0.2834 -0.1326
12391SOL    HW137751   3.229   7.893   6.426 -1.8295  0.0818 -0.0836
12391SOL    HW237752   3.159   7.981   6.323  0.9011  1.0834 -1.1731
12392SOL     OW37753   5.075   3.934   4.541 -0.6798 -0.4930  0.1188
12392SOL    HW137754   5.117   4.006   4.588 -0.6921  0.3843 -1.1659
12392SOL    HW237755   5.147   3.877   4.515 -0.3521  0.4979 -1.2268
12393SOL     OW37756   8.054   7.190   4.026  0.1556  0.4059  0.0633
12393SOL    HW137757   8.077   7.203   4.118  0.2310 -0.1951  0.1386
12393SOL    HW237758   7.987   7.255   4.008  1.9461  2.2719 -0.2005
12394SOL     OW37759   3.219   1.595   6.807  0.0330 -0.3845 -0.0535
12394SOL    HW137760   3.178   1.511   6.786 -0.6863 -0.2078  0.6038
12394SOL    HW237761   3.179   1.657   6.746  1.8095 -0.7756 -1.7348
12395SOL     OW37762   7.268   0.655   1.500  0.2536  0.0111  0.2782
12395SOL    HW137763   7.317   0.721   1.548  1.4295 -0.9726  0.4619
12395SOL    HW237764   7.194   0.633   1.557 -0.2261  1.2363  0.1566
12396SOL     OW37765   2.137   1.092   4.797 -0.6928  0.7355 -0.7102
12396SOL    HW137766   2.173   1.061   4.880 -1.2132  2.0424  0.0365
12396SOL    HW237767   2.213   1.114   4.744 -0.3541  0.6896 -0.2476
12397SOL     OW37768   7.662   0.158   0.010 -0.0346 -0.3431 -0.3875
12397SOL    HW137769   7.707   0.181   0.091 -0.8266 -1.4483  0.3990
12397SOL    HW237770   7.569   0.159   0.033 -0.2414 -1.2501 -1.1112
12398SOL     OW37771   8.696   4.610   8.584  0.6583  0.5807  0.7873
12398SOL    HW137772   8.764   4.575   8.526 -1.2176  1.7927 -2.4685
12398SOL    HW237773   8.615   4.573   8.551 -0.6353  2.1201  2.0457
12399SOL     OW37774   3.336   5.061   8.020 -0.5662  0.0461 -0.4138
12399SOL    HW137775   3.292   5.138   7.984 -1.9687  0.1373  1.3246
12399SOL    HW237776   3.418   5.055   7.972  0.4320  3.6545  0.5449
12400SOL     OW37777   5.109   0.705   6.359 -0.1279 -0.1332  0.6258
12400SOL    HW137778   5.042   0.744   6.302 -0.7496  1.3777  2.3021
12400SOL    HW237779   5.191   0.747   6.332 -0.7479  2.2954  2.2316
12401SOL     OW37780   3.356   4.483   4.361 -0.4631 -0.6830  0.0820
12401SOL    HW137781   3.398   4.523   4.438  1.0438 -0.0945 -0.9784
12401SOL    HW237782   3.328   4.558   4.308 -2.1211 -1.0797  0.3552
12402SOL     OW37783   1.499   6.229   1.995 -0.0833 -0.1017  0.5601
12402SOL    HW137784   1.460   6.311   2.027 -1.2170 -0.0528 -0.8147
12402SOL    HW237785   1.426   6.183   1.953  0.9843 -0.8397 -0.5534
12403SOL     OW37786   6.299   9.489   8.237  0.1909 -0.6161 -0.1447
12403SOL    HW137787   6.315   9.448   8.322 -1.2169 -2.5685 -0.7456
12403SOL    HW237788   6.373   9.461   8.183  0.3899 -0.4987  0.0651
12404SOL     OW37789   8.545   2.478   8.540  0.2927  0.0737 -1.1249
12404SOL    HW137790   8.489   2.531   8.597 -0.1163 -0.9139 -0.5882
12404SOL    HW237791   8.496   2.397   8.527  0.7055 -0.0026 -2.3078
12405SOL     OW37792   4.402   5.477   1.928  0.1803  0.6162  0.1273
12405SOL    HW137793   4.405   5.472   2.024  0.6225  0.0394  0.0919
12405SOL    HW237794   4.448   5.398   1.899  1.3537  1.5171 -0.5650
12406SOL     OW37795   2.619   4.438   4.174  0.0656  0.5546 -0.7327
12406SOL    HW137796   2.659   4.480   4.250  0.3829 -0.6030 -0.2234
12406SOL    HW237797   2.526   4.456   4.183  0.0920  0.3876 -0.0158
12407SOL     OW37798   3.445   6.181   0.360  0.0907  0.3629 -0.5918
12407SOL    HW137799   3.442   6.254   0.298  1.0389 -0.8230 -2.0928
12407SOL    HW237800   3.450   6.103   0.305 -3.6116 -1.1170  0.8481
12408SOL     OW37801   3.536   0.504   5.648  0.0471 -0.1542  0.5216
12408SOL    HW137802   3.497   0.564   5.711  0.4967 -0.3468  0.9801
12408SOL    HW237803   3.618   0.476   5.688 -1.4085 -3.2280  1.6073
12409SOL     OW37804   5.726  -0.029   3.397  0.3756 -0.0996  0.1751
12409SOL    HW137805   5.796   0.036   3.398 -1.0383  1.5333 -0.4853
12409SOL    HW237806   5.660   0.008   3.339 -0.3833 -2.3134 -0.4763
12410SOL     OW37807   6.455   2.378   9.832  0.4699 -0.4672  0.5686
12410SOL    HW137808   6.420   2.297   9.868 -1.8991 -0.2639 -0.9862
12410SOL    HW237809   6.426   2.446   9.894  0.7331 -0.6207  0.8571
12411SOL     OW37810   3.991   9.397   7.659  0.1130 -0.0006 -0.6658
12411SOL    HW137811   3.986   9.310   7.621  0.8203 -0.2227 -0.2704
12411SOL    HW237812   3.987   9.456   7.584 -0.1480 -0.3784 -0.9527
12412SOL     OW37813   0.566   8.579   0.060  0.0957 -0.0873  0.2109
12412SOL    HW137814   0.478   8.572   0.097 -0.1285 -0.3822 -0.3618
12412SOL    HW237815   0.552   8.617  -0.027  0.5827  0.3171  0.3048
12413SOL     OW37816   3.813   4.223   4.765 -0.5740 -0.4381  0.3318
12413SOL    HW137817   3.721   4.215   4.740 -0.3999  0.8773 -0.8627
12413SOL    HW237818   3.819   4.178   4.849 -2.5088  0.2603  0.8985
12414SOL     OW37819   6.727   8.719   4.149 -0.5098 -1.0004  0.2718
12414SOL    HW137820   6.682   8.789   4.100  1.5350  0.2311  0.0322
12414SOL    HW237821   6.719   8.642   4.093 -2.0114 -0.7533  0.0968
12415SOL     OW37822   1.866   0.399   9.887  0.0072 -0.0508  0.1935
12415SOL    HW137823   1.953   0.423   9.917  0.3046 -2.2497  1.2965
12415SOL    HW237824   1.858   0.306   9.908 -2.4661  0.0008 -0.2127
12416SOL     OW37825   4.426   0.070   6.829  0.4988 -1.0039 -0.3747
12416SOL    HW137826   4.521   0.065   6.814  0.5174 -2.3778  0.1022
12416SOL    HW237827   4.413   0.032   6.915 -0.2246  1.7570  0.8364
12417SOL     OW37828   0.500   2.900   6.394 -0.3673 -0.2214 -0.9952
12417SOL    HW137829   0.494   2.970   6.458  1.5383  0.5422 -1.5646
12417SOL    HW237830   0.553   2.832   6.436 -0.7040 -0.5499 -1.0891
12418SOL     OW37831   7.304   6.784   9.951  0.5260  0.2995 -0.1472
12418SOL    HW137832   7.331   6.840  10.023 -1.0545  0.1811  0.5788
12418SOL    HW237833   7.341   6.826   9.873  0.5855  1.5510  0.5269
12419SOL     OW37834   2.684   6.068   4.646 -0.5756  0.1858  0.5995
12419SOL    HW137835   2.632   6.146   4.629  0.6458  1.3376  1.9300
12419SOL    HW237836   2.757   6.074   4.584 -0.9103 -0.3565  0.1388
12420SOL     OW37837   8.591   9.777   1.365 -0.0479  0.0403  0.3677
12420SOL    HW137838   8.614   9.850   1.307 -0.7321  1.4699  1.8140
12420SOL    HW237839   8.495   9.774   1.363 -0.1627  0.9075  2.2718
12421SOL     OW37840   6.644   5.238   7.034  0.0857 -0.2566 -0.2402
12421SOL    HW137841   6.627   5.220   7.127  0.4206 -1.7168 -0.4247
12421SOL    HW237842   6.738   5.219   7.024 -0.1675 -1.1378 -1.0745
12422SOL     OW37843   0.297   7.092   8.641 -0.2199 -0.7223  0.0724
12422SOL    HW137844   0.211   7.079   8.600 -1.2656 -1.3763  2.2806
12422SOL    HW237845   0.301   7.023   8.708  2.0322 -0.6620  0.0584
12423SOL     OW37846   2.730   6.990   4.451 -0.2762 -1.0103 -0.1483
12423SOL    HW137847   2.717   6.938   4.531  1.1047 -0.0377  0.7611
12423SOL    HW237848   2.822   6.976   4.428  0.3774  1.5163  0.5621
12424SOL     OW37849   4.105   1.220   6.021  0.5228 -0.7058  0.3685
12424SOL    HW137850   4.131   1.292   5.964 -0.4250 -1.1361 -0.6446
12424SOL    HW237851   4.188   1.182   6.051  1.0458  1.0470  1.2929
12425SOL     OW37852   0.910   0.860   8.350  0.4564  0.0523  0.3715
12425SOL    HW137853   0.873   0.942   8.319  0.7204  0.5406  1.3093
12425SOL    HW237854   0.991   0.849   8.300 -0.6188 -0.7471 -1.2996
12426SOL     OW37855   1.507   7.291   7.873  0.1521 -0.0186  0.1514
12426SOL    HW137856   1.589   7.259   7.910  0.0769 -2.9148 -1.8167
12426SOL    HW237857   1.441   7.231   7.907 -0.3944 -0.6407 -1.8796
12427SOL     OW37858   6.626   0.854   1.639 -0.3705 -0.4135 -0.3863
12427SOL    HW137859   6.624   0.883   1.730 -2.3730  1.4680 -0.9193
12427SOL    HW237860   6.558   0.787   1.634 -0.8757  0.1026 -0.6304
12428SOL     OW37861   4.554   6.624   1.099  0.2900  0.1059  0.7667
12428SOL    HW137862   4.491   6.589   1.162 -0.7387  0.7323  0.1222
12428SOL    HW237863   4.529   6.716   1.088  1.2504  0.3377  0.3990
12429SOL     OW37864   2.590   8.348   5.467  0.2844 -0.2046  0.1619
12429SOL    HW137865   2.657   8.385   5.410  0.3670 -0.1157  0.3147
12429SOL    HW237866   2.639   8.312   5.541  0.1007  0.7779  0.7853
12430SOL     OW37867   7.925   2.919   6.067 -0.2033 -0.1544  0.6959
12430SOL    HW137868   7.858   2.959   6.012 -0.0253  0.9717  1.2685
12430SOL    HW237869   7.957   2.845   6.016 -2.6572 -1.4410  0.8368
12431SOL     OW37870   1.585   7.025   6.566 -0.3406  0.5716 -0.0780
12431SOL    HW137871   1.657   6.975   6.526 -0.8119 -1.8739  1.8664
12431SOL    HW237872   1.524   6.958   6.596 -1.3884  2.3882  2.0748
12432SOL     OW37873   9.734   7.531   0.432 -0.0159  0.3297  0.1435
12432SOL    HW137874   9.798   7.464   0.458  0.2138  0.7878  0.7973
12432SOL    HW237875   9.650   7.485   0.430  0.2356 -0.1259 -0.0695
12433SOL     OW37876   5.596   0.022   4.844  0.1051 -0.0277  0.0753
12433SOL    HW137877   5.608  -0.071   4.862 -0.2689 -0.1569 -0.3395
12433SOL    HW237878   5.682   0.061   4.862  0.2778 -0.4590  0.1911
12434SOL     OW37879   9.564   9.639   2.109 -0.1284  0.2245  0.2067
12434SOL    HW137880   9.550   9.654   2.016 -2.2731  2.0718  0.7295
12434SOL    HW237881   9.491   9.584   2.136 -0.8083  1.5464  1.1676
12435SOL     OW37882   7.821   8.161   0.262 -0.3349 -0.5274 -0.5942
12435SOL    HW137883   7.796   8.069   0.254  0.2559 -0.8669  0.9740
12435SOL    HW237884   7.829   8.175   0.357 -1.3092  1.3942 -0.7462
12436SOL     OW37885   2.588   0.449   9.521 -0.0159  0.4630 -0.1720
12436SOL    HW137886   2.542   0.492   9.450 -0.9701 -1.6037 -0.8940
12436SOL    HW237887   2.631   0.374   9.480 -1.0991 -1.1598  1.4593
12437SOL     OW37888   2.052   1.495   0.393  0.5278  0.3171 -0.1706
12437SOL    HW137889   2.083   1.467   0.307  0.0616  1.8356 -0.8744
12437SOL    HW237890   2.078   1.425   0.452  1.8018 -0.2694 -1.3718
12438SOL     OW37891   0.242   0.692   1.795 -0.0937 -0.8006  0.0711
12438SOL    HW137892   0.298   0.616   1.779 -0.5876 -1.2498  0.4455
12438SOL    HW237893   0.279   0.760   1.739  2.0555 -0.4710  1.7403
12439SOL     OW37894   1.196   0.712   0.939  0.0224 -0.1886  0.7875
12439SOL    HW137895   1.152   0.793   0.964  0.6082  0.4146 -0.0675
12439SOL    HW237896   1.239   0.682   1.019 -1.5702 -0.5760  1.5334
12440SOL     OW37897   5.828   8.223   7.113 -0.0154 -0.3219  0.3083
12440SOL    HW137898   5.802   8.283   7.182 -0.9438  0.1007 -0.3876
12440SOL    HW237899   5.752   8.165   7.101 -0.8896  1.1706 -2.0159
12441SOL     OW37900   8.331   0.285   8.701 -0.5470 -0.2370  0.4899
12441SOL    HW137901   8.323   0.210   8.760 -0.5868 -1.6848 -1.2906
12441SOL    HW237902   8.359   0.248   8.618 -0.4621  1.7467 -0.4254
12442SOL     OW37903   4.081   2.846   6.215 -0.1885  0.5551  0.3847
12442SOL    HW137904   4.080   2.782   6.144  0.5551  0.3913  0.5168
12442SOL    HW237905   4.020   2.915   6.186 -0.9323 -0.1589  0.2074
12443SOL     OW37906   0.915   4.172   7.515  0.0761 -0.0682  0.0539
12443SOL    HW137907   0.822   4.160   7.494 -0.1750 -1.8855  1.9344
12443SOL    HW237908   0.915   4.196   7.608  1.4154  2.1841 -0.4563
12444SOL     OW37909   3.635   1.890   6.495 -0.3150 -0.2715  0.1089
12444SOL    HW137910   3.666   1.844   6.417  1.5860  2.1284 -0.6817
12444SOL    HW237911   3.588   1.967   6.460 -1.2562 -0.2461  1.3639
12445SOL     OW37912   6.952   8.448   4.424 -1.2145 -0.4700 -0.3120
12445SOL    HW137913   6.960   8.402   4.508 -1.5408  1.9552  1.1700
12445SOL    HW237914   6.871   8.500   4.433  0.0787  1.8218 -1.0313
12446SOL     OW37915   2.111   2.366   2.618 -0.0344  0.4861  0.0433
12446SOL    HW137916   2.053   2.311   2.565  0.1297 -0.7028  1.0598
12446SOL    HW237917   2.086   2.349   2.708  0.4119  1.6670  0.4067
12447SOL     OW37918   5.594   0.512   1.561  0.4687  0.0266  0.0563
12447SOL    HW137919   5.656   0.576   1.595  0.1105 -0.4720  1.7389
12447SOL    HW237920   5.648   0.447   1.516  1.3231 -0.9039  2.2860
12448SOL     OW37921   6.172   5.603   2.632 -0.2435  0.1762 -0.8140
12448SOL    HW137922   6.121   5.683   2.637 -0.4125 -0.0204  2.4652
12448SOL    HW237923   6.107   5.533   2.625 -0.2268  0.1384 -0.5813
12449SOL     OW37924   9.623   7.760   6.088 -0.2439 -0.0942  0.4513
12449SOL    HW137925   9.710   7.731   6.113 -0.3820 -2.2046 -1.2494
12449SOL    HW237926   9.563   7.704   6.139 -0.5639 -0.3320 -0.1772
12450SOL     OW37927   4.631   7.767   2.269 -0.1487  0.1475  0.0472
12450SOL    HW137928   4.582   7.846   2.248 -1.8220 -1.0480 -0.8097
12450SOL    HW237929   4.571   7.695   2.247  0.5950 -1.3574  2.4818
12451SOL     OW37930   2.411   0.476   3.158 -0.3549 -0.0602  0.0554
12451SOL    HW137931   2.389   0.568   3.168 -3.0465 -0.6855  0.6807
12451SOL    HW237932   2.481   0.475   3.092 -1.0423  2.3193 -0.8152
12452SOL     OW37933   3.870   5.801   3.885  0.1515 -0.0602 -0.0941
12452SOL    HW137934   3.862   5.891   3.918  1.0451 -0.0175  0.0088
12452SOL    HW237935   3.852   5.746   3.961  0.9995  0.0384  0.1848
12453SOL     OW37936   6.653   4.548   0.485 -0.1115 -0.1767  0.4921
12453SOL    HW137937   6.703   4.628   0.467  2.1780 -1.6490 -0.0622
12453SOL    HW237938   6.594   4.573   0.557 -0.7596  2.4476 -0.8199
12454SOL     OW37939   0.404   8.228   6.128 -0.2761  0.0164  0.1857
12454SOL    HW137940   0.410   8.270   6.213  1.1552 -0.1488  0.1791
12454SOL    HW237941   0.313   8.243   6.100 -0.3112  1.4466  1.0189
12455SOL     OW37942   7.892   0.029   1.011  0.2934  0.1427 -0.1474
12455SOL    HW137943   7.815   0.066   0.967  0.6981 -1.1087 -2.0189
12455SOL    HW237944   7.965   0.046   0.951  0.9725 -1.1759  0.2544
12456SOL     OW37945   9.497   2.615   7.842 -0.0674  0.6938 -0.0187
12456SOL    HW137946   9.415   2.567   7.831  0.7731 -0.7944 -0.1537
12456SOL    HW237947   9.493   2.686   7.779 -0.2559 -0.7978 -1.7825
12457SOL     OW37948   0.769   0.784   5.505 -0.0988  0.0990 -0.0039
12457SOL    HW137949   0.726   0.836   5.573 -0.1667 -0.4306  0.3582
12457SOL    HW237950   0.713   0.796   5.428  0.1878  1.0119 -0.0903
12458SOL     OW37951   7.500   2.212   2.505 -0.1460  0.1223 -0.1785
12458SOL    HW137952   7.461   2.172   2.428  0.3370 -0.5184 -0.1030
12458SOL    HW237953   7.491   2.306   2.491 -0.0506  0.0143 -1.0257
12459SOL     OW37954   6.884   7.192   3.269  0.2142 -0.3011 -0.5990
12459SOL    HW137955   6.812   7.164   3.212 -0.6811 -0.1326  0.4093
12459SOL    HW237956   6.845   7.197   3.356  0.9932  1.4946 -0.2940
12460SOL     OW37957   2.439   3.237   9.330 -0.1023  0.2938 -0.3160
12460SOL    HW137958   2.407   3.292   9.401 -1.5603 -0.4932 -0.3184
12460SOL    HW237959   2.503   3.291   9.284 -0.4294  1.4405  0.5424
12461SOL     OW37960   8.096   5.643   2.822  0.8569 -0.0205  0.5910
12461SOL    HW137961   8.067   5.730   2.793 -0.9741 -0.3296  1.3486
12461SOL    HW237962   8.126   5.656   2.912  3.1854  0.2764 -0.1522
12462SOL     OW37963   8.659   3.492   3.045  0.1729  0.2703 -0.6770
12462SOL    HW137964   8.634   3.413   3.093 -0.4679 -0.4010 -2.0428
12462SOL    HW237965   8.680   3.556   3.113  1.8785 -1.3997  0.5033
12463SOL     OW37966   3.941   9.126   3.757  0.4224  0.5021 -0.5317
12463SOL    HW137967   4.036   9.141   3.759  0.4005  0.5794  0.7098
12463SOL    HW237968   3.902   9.213   3.767  0.1551  0.7613 -3.1474
12464SOL     OW37969   4.733   2.061   2.562 -0.0579 -0.0265  0.3018
12464SOL    HW137970   4.790   1.991   2.529  0.0859 -0.6866  1.8617
12464SOL    HW237971   4.688   2.094   2.484 -0.4041 -2.1019 -0.4397
12465SOL     OW37972   6.222   4.832   8.423 -0.3985  0.7238  0.4224
12465SOL    HW137973   6.316   4.851   8.420 -0.3656  0.4446 -1.2979
12465SOL    HW237974   6.181   4.909   8.383 -0.7244 -0.0755 -0.8278
12466SOL     OW37975   0.678   2.929   4.125 -0.6306 -0.0721 -0.4643
12466SOL    HW137976   0.668   3.024   4.131 -0.7124 -0.1067 -0.0275
12466SOL    HW237977   0.706   2.913   4.035 -2.1897  0.2244 -1.0391
12467SOL     OW37978   2.781   4.905   5.618 -0.3543  0.4644 -0.0759
12467SOL    HW137979   2.712   4.888   5.553  0.8638 -0.8470 -1.0940
12467SOL    HW237980   2.861   4.872   5.577  0.4799 -0.3549  2.0847
12468SOL     OW37981   5.498   8.353   4.797  0.0698 -0.5583  0.3801
12468SOL    HW137982   5.430   8.418   4.778  1.0637  0.3862 -0.0477
12468SOL    HW237983   5.496   8.294   4.722  2.1626  1.6048 -1.5536
12469SOL     OW37984   0.014   6.311   8.775  0.1967 -0.6454 -0.0576
12469SOL    HW137985   0.063   6.229   8.770  1.0613 -0.1679  0.3697
12469SOL    HW237986   0.082   6.379   8.783 -0.5426  0.0020  0.9513
12470SOL     OW37987   3.659   9.327   8.771  0.2232  0.2100  0.5221
12470SOL    HW137988   3.698   9.270   8.704 -2.1021 -1.4882  0.4977
12470SOL    HW237989   3.728   9.336   8.837  1.0543 -1.8041  0.0254
12471SOL     OW37990   7.268   6.847   8.847  0.1082 -0.0057 -0.0014
12471SOL    HW137991   7.183   6.807   8.828  0.3193 -1.4820  1.8269
12471SOL    HW237992   7.332   6.786   8.809  0.3857  0.5147 -0.3855
12472SOL     OW37993   7.449   0.372   3.730  0.5082 -0.3172 -0.3046
12472SOL    HW137994   7.453   0.289   3.777 -1.1489 -0.2813 -0.0323
12472SOL    HW237995   7.361   0.374   3.692  0.9309  0.7945 -1.2798
12473SOL     OW37996   4.365   5.628   8.085 -0.4259 -0.4012  0.5581
12473SOL    HW137997   4.285   5.593   8.126 -0.8355 -0.4853 -0.2896
12473SOL    HW237998   4.356   5.605   7.992 -0.2740  1.1522  0.1336
12474SOL     OW37999   8.803   5.592   7.637 -0.0052 -0.6808  0.1177
12474SOL    HW138000   8.826   5.506   7.602  0.2887 -1.4829  2.1488
12474SOL    HW238001   8.827   5.587   7.730  2.2712  2.4239 -0.1721
12475SOL     OW38002   3.645   4.941   7.016 -0.2738  0.6949  0.0222
12475SOL    HW138003   3.628   5.011   7.078  0.1548  0.9744 -0.1791
12475SOL    HW238004   3.682   4.870   7.069  1.2104  1.3578 -0.0851
12476SOL     OW38005   5.403   2.855   6.125 -0.0056  0.1762  0.5060
12476SOL    HW138006   5.377   2.915   6.056  1.3991 -1.7104 -1.8034
12476SOL    HW238007   5.460   2.792   6.082  0.1887 -1.6625  3.2143
12477SOL     OW38008   8.129   1.738   5.800 -0.1612 -0.1774  0.3716
12477SOL    HW138009   8.100   1.798   5.870 -2.3791 -1.2292  0.4392
12477SOL    HW238010   8.224   1.747   5.800 -0.1105  0.3703  3.0783
12478SOL     OW38011   5.313   9.627   6.841 -0.3128  0.3282  0.1055
12478SOL    HW138012   5.387   9.573   6.869 -0.1585  1.8386  3.0295
12478SOL    HW238013   5.244   9.564   6.823  1.1882 -1.0382 -1.2233
12479SOL     OW38014   5.916   5.394   6.798  0.2623  0.3372 -0.2130
12479SOL    HW138015   5.822   5.398   6.816  0.6249  0.4760  1.9984
12479SOL    HW238016   5.922   5.359   6.709 -1.8580 -0.5639 -0.0731
12480SOL     OW38017   2.742   5.057   8.042 -0.4369  0.0528 -0.5224
12480SOL    HW138018   2.727   5.147   8.011  0.2501  0.5756  0.6281
12480SOL    HW238019   2.837   5.046   8.040 -0.5672 -1.4211 -2.6809
12481SOL     OW38020   3.313   9.800   2.864 -0.4085 -0.5517  0.4160
12481SOL    HW138021   3.316   9.879   2.917 -0.7207  0.4641 -1.0113
12481SOL    HW238022   3.221   9.774   2.864 -0.5946  0.0620 -0.4538
12482SOL     OW38023   0.477   6.960   9.326 -0.4393 -0.3355  0.0309
12482SOL    HW138024   0.418   6.977   9.252  0.0070  0.6282 -0.1084
12482SOL    HW238025   0.420   6.966   9.403 -0.3235  1.8515 -0.0038
12483SOL     OW38026   0.488   1.538   4.539  0.1563 -0.0737  0.4118
12483SOL    HW138027   0.468   1.458   4.587  0.8444 -0.3269  0.2946
12483SOL    HW238028   0.486   1.608   4.605  0.5566 -0.3415  0.7137
12484SOL     OW38029   2.835   1.963   5.316 -0.0929  0.2256  0.0441
12484SOL    HW138030   2.886   2.044   5.306 -2.1676  1.3794 -2.9367
12484SOL    HW238031   2.788   1.974   5.399  0.6560  1.4731  0.3260
12485SOL     OW38032   2.618   1.068   8.755 -0.4126 -0.1394  0.0611
12485SOL    HW138033   2.546   1.127   8.732 -0.8216 -0.3815  0.6844
12485SOL    HW238034   2.630   1.080   8.849  1.6181  1.2644 -0.3008
12486SOL     OW38035   7.024   1.454   8.358 -0.1663  0.3585  0.1357
12486SOL    HW138036   6.934   1.462   8.390 -0.8307 -2.9185 -0.5875
12486SOL    HW238037   7.064   1.388   8.415  1.4131  0.8554 -0.3412
12487SOL     OW38038   6.945   0.244   4.926 -0.3348  0.3721  0.0585
12487SOL    HW138039   6.926   0.268   4.835 -1.3036 -0.6842 -0.0395
12487SOL    HW238040   6.889   0.168   4.943  1.4464 -0.8376  0.8343
12488SOL     OW38041   9.380   7.610   2.451  0.5036  0.2460  0.5376
12488SOL    HW138042   9.437   7.540   2.483 -0.3066 -0.8417 -0.3214
12488SOL    HW238043   9.291   7.577   2.466  0.0654 -0.1677 -2.3436
12489SOL     OW38044   5.430   2.964   9.945 -0.2215  0.6249 -0.1226
12489SOL    HW138045   5.464   3.001   9.864 -0.4527 -2.5135 -1.8214
12489SOL    HW238046   5.507   2.938   9.994 -0.0728 -0.2868 -0.8141
12490SOL     OW38047   3.786   2.117   1.097 -0.1327 -0.1787 -0.1184
12490SOL    HW138048   3.733   2.043   1.067  1.3375 -1.1857 -0.3683
12490SOL    HW238049   3.817   2.090   1.184 -3.3690  2.1931  1.9997
12491SOL     OW38050   7.966   9.949   9.967  0.5636  0.0117 -0.1920
12491SOL    HW138051   7.904   9.908   9.906  2.2056 -0.0998 -1.8972
12491SOL    HW238052   7.931   9.929  10.054 -0.1962 -2.6716 -1.0050
12492SOL     OW38053   0.933   8.361   9.675 -0.1762 -0.0491  0.6087
12492SOL    HW138054   0.938   8.413   9.755 -0.0528  1.5391 -0.3814
12492SOL    HW238055   0.859   8.399   9.627 -1.9614 -2.6698  1.0769
12493SOL     OW38056   2.324   5.359   9.787  0.1759  0.1510  0.1721
12493SOL    HW138057   2.262   5.401   9.727 -0.9535 -2.1693 -0.3818
12493SOL    HW238058   2.279   5.357   9.871 -0.0762 -0.5433  0.0285
12494SOL     OW38059   7.505   9.799   2.802  0.1333  0.1322 -0.6028
12494SOL    HW138060   7.432   9.741   2.781 -1.3646 -0.1338  4.1899
12494SOL    HW238061   7.464   9.876   2.841  2.3836  0.8696  0.4804
12495SOL     OW38062   3.358   3.234   9.833  0.3081 -0.0230 -1.0663
12495SOL    HW138063   3.420   3.161   9.836 -0.1460 -0.3914 -0.1431
12495SOL    HW238064   3.297   3.210   9.763  0.1456 -0.5503 -0.7488
12496SOL     OW38065   8.889   2.575   0.987 -0.7041 -0.5403  0.3733
12496SOL    HW138066   8.955   2.627   0.943 -0.8863 -0.5739  0.0566
12496SOL    HW238067   8.888   2.492   0.940 -1.1405 -0.4525  0.2137
12497SOL     OW38068   6.550   6.290   2.749  0.4245 -0.1416 -0.2401
12497SOL    HW138069   6.604   6.300   2.671  0.5984 -0.4207 -0.1551
12497SOL    HW238070   6.465   6.263   2.716  0.5585 -0.4656 -0.3169
12498SOL     OW38071   1.649   6.025   8.096 -0.2726  0.3600 -0.3450
12498SOL    HW138072   1.559   5.992   8.097 -0.2708  0.1459 -2.4147
12498SOL    HW238073   1.647   6.105   8.148 -1.3971 -0.2398  0.5640
12499SOL     OW38074   8.770   8.706   9.175  0.3166  0.0987 -0.4594
12499SOL    HW138075   8.739   8.771   9.112 -0.9171  0.5515  0.5596
12499SOL    HW238076   8.853   8.675   9.139 -1.2759 -1.1917 -3.3860
12500SOL     OW38077   5.776   3.742   8.314 -0.5821  0.7532  0.3885
12500SOL    HW138078   5.742   3.717   8.228 -0.6316 -0.8533  0.8428
12500SOL    HW238079   5.726   3.688   8.375  0.0248  1.2894  1.3777
12501SOL     OW38080   8.491   3.224   9.530 -0.6530 -0.0273 -0.0158
12501SOL    HW138081   8.477   3.313   9.497  1.5602  0.1166 -0.7237
12501SOL    HW238082   8.403   3.194   9.555 -1.5021  2.2345 -0.0094
12502SOL     OW38083   4.311   8.334   9.327 -0.1124  0.2143  0.0124
12502SOL    HW138084   4.227   8.377   9.340 -0.6490 -0.1823 -1.8778
12502SOL    HW238085   4.303   8.250   9.373 -0.5985  0.3361  0.1472
12503SOL     OW38086   0.529   1.109   5.804  0.3277  0.3569  0.1342
12503SOL    HW138087   0.443   1.151   5.812 -0.2107 -0.8817  1.1672
12503SOL    HW238088   0.590   1.170   5.846 -0.3033  0.4903  0.8629
12504SOL     OW38089   8.188   0.679   4.135 -0.2301 -0.6261  0.0723
12504SOL    HW138090   8.226   0.592   4.139 -1.3693 -1.1541 -0.1193
12504SOL    HW238091   8.205   0.718   4.221  0.8901 -0.7661 -0.0796
12505SOL     OW38092   0.226   6.618   5.610  0.5697 -0.0058  0.1061
12505SOL    HW138093   0.306   6.590   5.654  0.9233  0.9169  0.0624
12505SOL    HW238094   0.192   6.689   5.664 -0.6702 -0.9051  0.5742
12506SOL     OW38095   0.474   8.531   6.689  0.3230  0.2649  0.2754
12506SOL    HW138096   0.452   8.571   6.773  0.3283  1.0483 -0.0888
12506SOL    HW238097   0.562   8.565   6.668 -0.2989  1.3231 -0.7736
12507SOL     OW38098   3.032   2.259   4.043 -0.4651  1.0637 -0.2455
12507SOL    HW138099   3.082   2.201   3.986 -1.5765  0.5327 -0.7187
12507SOL    HW238100   2.973   2.305   3.983 -0.5728  1.6420  0.3019
12508SOL     OW38101   6.653   1.009   4.814  0.1244 -0.3402 -0.1235
12508SOL    HW138102   6.742   1.001   4.848 -0.3694 -1.7481  0.9369
12508SOL    HW238103   6.643   0.935   4.754 -0.8208 -1.1875  1.0103
12509SOL     OW38104   6.460   9.121   5.873 -0.2100 -0.2520 -0.2459
12509SOL    HW138105   6.411   9.048   5.836 -1.9272  0.7725 -0.1023
12509SOL    HW238106   6.427   9.130   5.962  0.0904  0.5858 -0.2103
12510SOL     OW38107   4.531   9.879   7.252 -0.6943 -0.0340  0.7291
12510SOL    HW138108   4.523   9.901   7.345  1.0442 -1.1395  1.1779
12510SOL    HW238109   4.619   9.844   7.243 -1.3342 -1.3377 -1.0458
12511SOL     OW38110   0.753   1.646   8.662  0.2975  0.0664 -0.2896
12511SOL    HW138111   0.844   1.666   8.639  0.0842  0.7598 -0.5441
12511SOL    HW238112   0.735   1.564   8.617  0.8432 -0.1685 -0.1024
12512SOL     OW38113   8.982   5.573   2.152  0.8410 -0.0760  0.0538
12512SOL    HW138114   9.022   5.660   2.146 -1.3042  0.9525 -0.4458
12512SOL    HW238115   9.025   5.522   2.084  0.1988  1.4957 -1.6246
12513SOL     OW38116   5.780   7.383   0.778 -0.6410 -0.3310  0.5500
12513SOL    HW138117   5.697   7.351   0.744 -0.4169  0.1547 -0.5074
12513SOL    HW238118   5.834   7.397   0.700  0.4559 -0.6982  1.2191
12514SOL     OW38119   3.143   1.543   9.421 -0.3112  0.1041 -0.2634
12514SOL    HW138120   3.179   1.463   9.382 -1.1316  0.0839 -0.9911
12514SOL    HW238121   3.068   1.565   9.367  0.6105  2.0806 -0.8230
12515SOL     OW38122   1.675   3.891   1.664  0.3355 -0.5036 -0.9404
12515SOL    HW138123   1.768   3.877   1.647  1.5190 -1.2133  4.2501
12515SOL    HW238124   1.643   3.805   1.691 -0.8733  0.3587  0.5244
12516SOL     OW38125   0.049   0.460   3.655 -0.4963  0.2004 -0.0897
12516SOL    HW138126   0.053   0.453   3.750 -0.6352  0.1885 -0.0844
12516SOL    HW238127  -0.013   0.530   3.639 -0.1666  0.4785 -0.1651
12517SOL     OW38128   1.916   6.745   9.738 -0.1243  0.1846  0.5574
12517SOL    HW138129   1.991   6.721   9.793  0.7019 -0.0608 -0.6555
12517SOL    HW238130   1.953   6.800   9.669 -0.9127 -0.6201 -0.5445
12518SOL     OW38131   5.455   3.514   3.408  0.1773 -0.1115 -0.4156
12518SOL    HW138132   5.518   3.539   3.340 -0.1151 -1.8628 -1.4019
12518SOL    HW238133   5.370   3.521   3.365 -0.1388  0.1714  0.2425
12519SOL     OW38134   2.624   4.891   8.279  0.2444  0.2670  0.1554
12519SOL    HW138135   2.606   4.981   8.252  0.0794  0.0251 -0.5628
12519SOL    HW238136   2.554   4.868   8.339  0.4204  0.6972  0.5289
12520SOL     OW38137   4.459   3.043   3.939 -0.2270 -0.5960  0.4161
12520SOL    HW138138   4.547   3.079   3.926 -0.9886  2.4495  2.4655
12520SOL    HW238139   4.452   3.030   4.034 -1.8937 -0.9601  0.2776
12521SOL     OW38140   4.429   3.360   1.885  0.7988  0.5658 -0.0705
12521SOL    HW138141   4.455   3.381   1.975  0.5037 -0.4582  0.2701
12521SOL    HW238142   4.440   3.443   1.837 -0.8121  1.6506  1.3007
12522SOL     OW38143   2.460   2.840   6.771 -0.3587  0.5964 -0.2227
12522SOL    HW138144   2.449   2.828   6.676 -1.4987  2.7595 -0.4236
12522SOL    HW238145   2.490   2.755   6.802 -2.4798 -0.9842 -2.1504
12523SOL     OW38146   6.640   3.921   4.664 -0.4639  0.1577  0.0937
12523SOL    HW138147   6.631   4.012   4.637 -1.0006  0.0357 -0.1504
12523SOL    HW238148   6.704   3.885   4.603  0.1446  0.5004  0.5200
12524SOL     OW38149   3.336   0.808   5.360  0.4392  0.6010 -0.1151
12524SOL    HW138150   3.315   0.714   5.355 -0.7581  0.7728  1.0174
12524SOL    HW238151   3.431   0.812   5.350  0.3577 -0.5771 -1.8091
12525SOL     OW38152   9.790   9.016   8.987 -0.1519  0.1974 -0.1113
12525SOL    HW138153   9.729   9.001   9.059  0.7949 -0.2350  0.6296
12525SOL    HW238154   9.870   8.969   9.013  0.3984  0.5028 -1.1826
12526SOL     OW38155   4.295   0.515   5.118  0.6375  0.0249 -0.1674
12526SOL    HW138156   4.363   0.513   5.051  1.6862 -0.0075  0.8619
12526SOL    HW238157   4.338   0.556   5.194 -0.4058 -0.2648  0.5987
12527SOL     OW38158   6.999   2.440   8.439 -0.2741  0.2846  0.1904
12527SOL    HW138159   7.045   2.438   8.523  1.4221  0.1698 -0.7037
12527SOL    HW238160   6.972   2.532   8.429  0.9711  0.6623  0.1275
12528SOL     OW38161   9.541   6.368   2.874  0.3609  0.1952  0.1702
12528SOL    HW138162   9.453   6.402   2.884  0.0970 -0.3153 -0.3061
12528SOL    HW238163   9.554   6.311   2.950  0.7646  1.2531  0.9113
12529SOL     OW38164   9.745   0.239   8.814 -0.0360  0.1505 -0.0259
12529SOL    HW138165   9.698   0.156   8.816 -0.0945  0.1873  0.2359
12529SOL    HW238166   9.763   0.255   8.722 -1.6929  0.7839 -0.2778
12530SOL     OW38167   6.866   0.565   6.821  0.4400 -0.4189 -0.3988
12530SOL    HW138168   6.953   0.603   6.837  0.2429 -0.9701  2.6188
12530SOL    HW238169   6.883   0.472   6.806  0.4249 -0.3692 -0.7317
12531SOL     OW38170   5.399   0.583   1.859 -0.5344  0.1224  0.0324
12531SOL    HW138171   5.421   0.642   1.786 -0.9940  0.5687  0.2470
12531SOL    HW238172   5.483   0.547   1.887 -0.2193  0.8294  0.0219
12532SOL     OW38173   2.339   2.324   8.568 -0.6064  0.2848  0.5732
12532SOL    HW138174   2.279   2.273   8.513 -0.8547  1.4095 -0.2352
12532SOL    HW238175   2.285   2.354   8.641 -1.4517  2.3582 -0.7938
12533SOL     OW38176   3.348   9.005   8.927 -0.0199 -0.1735  0.5740
12533SOL    HW138177   3.363   9.085   8.877 -1.1607 -0.2529  0.0722
12533SOL    HW238178   3.394   8.937   8.879 -0.7069 -0.1632 -0.1154
12534SOL     OW38179   5.877   5.233   1.614  0.8157  0.5186 -0.2962
12534SOL    HW138180   5.868   5.199   1.703  0.9756  0.0443 -0.4595
12534SOL    HW238181   5.824   5.174   1.560  0.5277  0.9400 -0.4893
12535SOL     OW38182   7.356   7.693   4.606 -0.2749  0.0041  0.0468
12535SOL    HW138183   7.424   7.732   4.661 -0.5739  1.3355 -0.4763
12535SOL    HW238184   7.389   7.703   4.517 -1.0669  0.5058 -0.2015
12536SOL     OW38185   6.056   4.662   9.799  0.0840 -0.3988 -0.0363
12536SOL    HW138186   6.067   4.743   9.750 -0.4025 -0.1771  0.2121
12536SOL    HW238187   5.987   4.614   9.753  1.4648 -1.4097 -1.1160
12537SOL     OW38188   9.422   3.066   7.118  0.2047 -0.0158 -0.4347
12537SOL    HW138189   9.511   3.034   7.102  0.8322  0.2759  2.1216
12537SOL    HW238190   9.401   3.036   7.206 -2.1437  0.1875 -0.8742
12538SOL     OW38191   3.478   0.698   4.038  0.4408  0.6701 -0.3276
12538SOL    HW138192   3.517   0.679   4.124 -0.7595  0.9582  0.3059
12538SOL    HW238193   3.545   0.748   3.992  0.6523  1.5599  0.9007
12539SOL     OW38194   6.700   1.686   8.436  0.0612 -0.1540  0.0778
12539SOL    HW138195   6.707   1.660   8.345  2.3389  2.8519 -0.7872
12539SOL    HW238196   6.702   1.604   8.486  0.8973 -1.7836 -2.4777
12540SOL     OW38197   1.119   1.170   3.975  0.3235 -0.0606  0.1357
12540SOL    HW138198   1.184   1.115   3.931 -0.1640 -0.1551 -0.4911
12540SOL    HW238199   1.108   1.130   4.061  1.6475  0.4086  0.5356
12541SOL     OW38200   2.329   6.388   5.301  0.0621 -0.2968  0.0809
12541SOL    HW138201   2.300   6.397   5.210  1.2710  1.0018 -0.2190
12541SOL    HW238202   2.402   6.327   5.297  1.6962  1.5626 -0.2603
12542SOL     OW38203   8.722   6.246   6.737 -0.2276 -0.2327 -0.4574
12542SOL    HW138204   8.715   6.186   6.810 -4.3866  1.0611  0.4766
12542SOL    HW238205   8.734   6.332   6.778  1.1687  0.1335 -1.5522
12543SOL     OW38206   6.172   3.932   9.043 -0.8881 -0.1286 -0.4325
12543SOL    HW138207   6.132   3.921   9.129 -1.3044  0.9973 -0.4623
12543SOL    HW238208   6.253   3.882   9.047 -0.8842 -0.0521  0.6335
12544SOL     OW38209   0.785   2.931   3.129  0.1994 -0.7289 -0.1939
12544SOL    HW138210   0.720   2.862   3.129 -1.1103  0.4579 -0.4430
12544SOL    HW238211   0.799   2.951   3.037 -1.6292  1.2555 -0.1279
12545SOL     OW38212   1.761   5.578   7.246 -0.0051  0.5412 -0.1412
12545SOL    HW138213   1.857   5.580   7.249  0.1293 -0.4367 -2.1906
12545SOL    HW238214   1.740   5.513   7.179 -2.1923 -1.6161  2.3793
12546SOL     OW38215   5.314   5.814   1.801  0.2734  0.2128 -0.4706
12546SOL    HW138216   5.391   5.823   1.746 -0.6172  0.7351 -1.6749
12546SOL    HW238217   5.255   5.757   1.752  0.7279 -2.0308  1.4112
12547SOL     OW38218   1.478   0.666   0.690  0.0750  0.0357 -0.1579
12547SOL    HW138219   1.411   0.608   0.725  0.5199 -1.1293 -1.1388
12547SOL    HW238220   1.470   0.656   0.595  1.3403  0.2054 -0.2961
12548SOL     OW38221   0.387   9.941   8.995 -0.7158  0.3589 -0.1959
12548SOL    HW138222   0.372   9.989   8.914 -0.4097  1.1056  0.1866
12548SOL    HW238223   0.482   9.940   9.006 -0.7757  0.5980  0.3587
12549SOL     OW38224   9.444   1.017   5.262 -0.3528  0.0251 -0.6284
12549SOL    HW138225   9.350   1.024   5.278 -0.6288 -1.4156 -1.4553
12549SOL    HW238226   9.454   1.021   5.167  0.6026  1.7337 -0.5002
12550SOL     OW38227   2.894   0.350   6.285 -0.1331  0.4990 -0.0245
12550SOL    HW138228   2.852   0.350   6.199  0.2990 -0.7176 -0.2613
12550SOL    HW238229   2.912   0.442   6.303 -0.7286  0.8231 -0.9855
12551SOL     OW38230   9.558   0.573   9.276 -0.5270 -0.6673 -0.0990
12551SOL    HW138231   9.560   0.484   9.312  1.5360 -0.2607  0.8930
12551SOL    HW238232   9.612   0.568   9.198  0.8022  0.0084  0.7514
12552SOL     OW38233   1.690   9.671   1.337  0.5394 -0.0950 -0.0269
12552SOL    HW138234   1.657   9.738   1.277 -1.9259 -1.4031 -0.2349
12552SOL    HW238235   1.690   9.713   1.423 -1.2766  0.1309 -0.1048
12553SOL     OW38236   7.334   1.491   3.625 -0.1395 -0.5314 -0.2495
12553SOL    HW138237   7.345   1.396   3.631  0.6397 -0.4236  0.1912
12553SOL    HW238238   7.280   1.514   3.701  0.2817 -0.5385  0.0552
12554SOL     OW38239   3.412   1.734   6.947 -1.0080 -0.1636  0.5234
12554SOL    HW138240   3.332   1.700   6.906 -0.8085 -0.0109  0.0012
12554SOL    HW238241   3.483   1.705   6.890 -0.6421 -0.6924  1.2394
12555SOL     OW38242   5.967   7.145   3.793  0.3748  0.2349 -0.1286
12555SOL    HW138243   5.992   7.053   3.800 -1.0704 -0.1747  0.0342
12555SOL    HW238244   5.943   7.157   3.701 -0.2624  0.2105  0.0293
12556SOL     OW38245   7.955   6.591   1.489  0.1883  0.3204  0.4938
12556SOL    HW138246   8.028   6.551   1.537  0.6461 -0.2856 -0.6688
12556SOL    HW238247   7.969   6.685   1.499  1.8249  0.2444 -0.6851
12557SOL     OW38248   7.576   6.544   1.931 -0.3948  0.0604 -0.3143
12557SOL    HW138249   7.567   6.624   1.983  0.5534 -0.7187  1.1350
12557SOL    HW238250   7.667   6.518   1.943 -0.6482 -1.1551 -0.8675
12558SOL     OW38251   0.872   4.670   5.263 -0.1213  0.4904  0.0207
12558SOL    HW138252   0.957   4.714   5.272  0.1237 -0.2898  1.8220
12558SOL    HW238253   0.870   4.642   5.171  0.3470  2.9124 -0.7991
12559SOL     OW38254   0.776   6.368   0.471 -0.2606  0.0435 -0.5924
12559SOL    HW138255   0.773   6.328   0.384  2.1088 -0.2761 -0.5754
12559SOL    HW238256   0.763   6.294   0.531 -0.4306  0.0370 -0.6351
12560SOL     OW38257   0.939   2.045   2.579 -0.3339 -0.6096  0.0137
12560SOL    HW138258   0.894   1.961   2.568 -0.7167 -0.6123  1.3819
12560SOL    HW238259   0.870   2.105   2.606  0.0632 -0.0134 -0.2830
12561SOL     OW38260   0.154   2.125   3.897 -0.0054 -0.1970 -0.4082
12561SOL    HW138261   0.156   2.209   3.942  0.6582 -0.8472  0.8290
12561SOL    HW238262   0.164   2.060   3.967 -3.6488 -1.4939 -0.8600
12562SOL     OW38263   1.785   5.837   9.048  0.1899  0.5254  0.1445
12562SOL    HW138264   1.873   5.872   9.058  0.0530  0.5720  1.4856
12562SOL    HW238265   1.794   5.744   9.073  0.0518  0.2745 -0.7279
12563SOL     OW38266   9.911   0.164   2.810  0.1301 -0.3904 -0.2377
12563SOL    HW138267   9.978   0.176   2.743 -0.1258  0.2792 -0.3839
12563SOL    HW238268   9.939   0.222   2.882 -0.7692  0.6029 -0.6708
12564SOL     OW38269   4.700   8.220   6.773  0.3517 -0.1197  0.2948
12564SOL    HW138270   4.616   8.266   6.763  0.1503 -0.0793  2.0074
12564SOL    HW238271   4.701   8.190   6.863  1.7232 -1.0755 -0.0088
12565SOL     OW38272   7.822   5.955   6.047 -0.3581 -0.4989 -0.2484
12565SOL    HW138273   7.833   6.014   5.972  1.6155 -0.5180 -0.0377
12565SOL    HW238274   7.912   5.934   6.073 -0.9391 -3.9277 -0.5574
12566SOL     OW38275   3.280   6.639   5.044  0.4347 -0.0934  0.5094
12566SOL    HW138276   3.279   6.656   4.950  1.9668  0.2821  0.5316
12566SOL    HW238277   3.326   6.555   5.053  1.0878  0.2998  0.9570
12567SOL     OW38278   4.400   3.555   7.201  0.2202  0.0207 -0.2609
12567SOL    HW138279   4.442   3.539   7.285  0.5367  0.6722 -0.2919
12567SOL    HW238280   4.359   3.641   7.211 -0.5695 -0.3172 -0.4491
12568SOL     OW38281   6.340   5.580   4.483 -0.3941 -0.3588 -0.5488
12568SOL    HW138282   6.373   5.500   4.444  3.1649  0.6436  0.0354
12568SOL    HW238283   6.354   5.569   4.577  2.6652  1.8018 -0.6217
12569SOL     OW38284   5.989   3.887   8.327 -0.6955 -0.1719 -0.2264
12569SOL    HW138285   6.047   3.818   8.295 -0.2989 -0.0439  0.2108
12569SOL    HW238286   5.905   3.843   8.343  0.0183 -0.9276  1.6787
12570SOL     OW38287   2.694   8.700   8.037 -0.0519 -0.2549 -0.2044
12570SOL    HW138288   2.720   8.673   8.126  0.1898  0.6431  0.0105
12570SOL    HW238289   2.714   8.624   7.983  0.8497 -0.4319  0.3384
12571SOL     OW38290   0.982   2.118   6.020  0.1416 -0.2095 -0.2041
12571SOL    HW138291   1.043   2.075   5.960 -0.1560 -1.1893  0.1804
12571SOL    HW238292   1.005   2.211   6.015  0.9152 -0.4283 -0.9140
12572SOL     OW38293   5.809   2.008   1.724  0.1516 -0.3386  0.0673
12572SOL    HW138294   5.857   2.073   1.776  0.5204  0.8037 -1.6182
12572SOL    HW238295   5.717   2.025   1.744  0.2174  1.0860 -0.7539
12573SOL     OW38296   9.113   3.596   8.419 -0.1648  0.5619 -0.0214
12573SOL    HW138297   9.180   3.618   8.485 -0.0016  0.0461 -0.0091
12573SOL    HW238298   9.047   3.547   8.468 -0.4118  0.8167 -0.0963
12574SOL     OW38299   0.561   4.574   6.790  1.1053 -0.0654 -0.0054
12574SOL    HW138300   0.618   4.647   6.815  2.4965 -0.6178 -1.3721
12574SOL    HW238301   0.569   4.569   6.695 -3.1928  1.3426 -0.6516
12575SOL     OW38302   9.209   8.419   1.800 -0.1510 -0.4785  1.0917
12575SOL    HW138303   9.116   8.442   1.797 -0.3201 -0.9973  2.0051
12575SOL    HW238304   9.238   8.449   1.886  1.2306  2.2214 -0.1993
12576SOL     OW38305   8.005   8.843   2.516 -0.0270 -0.4395  0.7041
12576SOL    HW138306   8.070   8.900   2.559  0.3848  0.0881 -0.5584
12576SOL    HW238307   7.922   8.888   2.530 -0.0111 -0.7049  1.6591
12577SOL     OW38308   7.787   0.375   9.852 -0.3499 -0.9725 -0.5583
12577SOL    HW138309   7.747   0.341   9.932 -1.9068  0.2832 -0.7463
12577SOL    HW238310   7.875   0.402   9.878  0.1462 -3.0462  0.0713
12578SOL     OW38311   9.373   4.352   3.521  0.0673  0.4560 -0.2509
12578SOL    HW138312   9.469   4.357   3.516  0.2616 -2.0883 -0.2578
12578SOL    HW238313   9.353   4.382   3.610  0.9728  0.0757  0.0993
12579SOL     OW38314   8.030   4.933   8.987 -0.3206 -0.2155  0.0722
12579SOL    HW138315   7.955   4.916   8.931 -0.7720  2.6981 -0.3915
12579SOL    HW238316   8.040   5.028   8.985  2.3245 -0.3586  1.5173
12580SOL     OW38317   3.410   9.241   8.768 -0.0883  0.1069 -0.3041
12580SOL    HW138318   3.504   9.257   8.774 -0.1923  0.1979  1.8249
12580SOL    HW238319   3.371   9.305   8.828 -1.6810  1.1747 -2.3467
12581SOL     OW38320   4.620   3.980   6.722 -0.5495  0.5561 -0.4361
12581SOL    HW138321   4.615   4.075   6.721  1.0724  0.6680 -1.0497
12581SOL    HW238322   4.553   3.952   6.784 -1.1983  2.0799 -0.4298
12582SOL     OW38323   4.227   6.817   1.790 -0.0223  0.1677  0.2177
12582SOL    HW138324   4.191   6.735   1.823  0.2304  0.1445  0.4385
12582SOL    HW238325   4.246   6.800   1.698 -1.1971  0.3830 -0.0849
12583SOL     OW38326   1.180   5.562   6.661  0.2341  0.0326 -0.0768
12583SOL    HW138327   1.251   5.596   6.716  0.5289  0.2510 -0.5853
12583SOL    HW238328   1.179   5.468   6.678  0.0030  0.1616  0.6674
12584SOL     OW38329   0.326   5.804   2.684 -0.2027  0.0413 -0.6421
12584SOL    HW138330   0.391   5.758   2.631  0.7190  0.2422  0.2908
12584SOL    HW238331   0.249   5.811   2.627  0.5776 -0.2283 -1.7501
12585SOL     OW38332   7.833   9.214   2.913  0.5500  0.1042  0.0080
12585SOL    HW138333   7.809   9.219   3.006  0.8779 -0.4973  0.1308
12585SOL    HW238334   7.929   9.217   2.913  0.5353  1.3508 -0.4035
12586SOL     OW38335   8.137   3.535   6.906  0.4745  0.4533 -0.5105
12586SOL    HW138336   8.103   3.616   6.868  0.3879  0.8006  0.2950
12586SOL    HW238337   8.231   3.548   6.912  0.3634  0.8932  0.5136
12587SOL     OW38338   2.020   3.671   7.141 -0.2025  0.5520 -0.1974
12587SOL    HW138339   2.024   3.660   7.236 -0.1839  0.2900 -0.2297
12587SOL    HW238340   1.985   3.589   7.108  0.9734  0.1616 -0.5193
12588SOL     OW38341   2.910   3.071   0.868 -0.1434  0.0776  0.3790
12588SOL    HW138342   2.980   3.072   0.803 -0.3367 -0.0214  0.1683
12588SOL    HW238343   2.872   3.159   0.864 -0.1957  0.0517  0.3168
12589SOL     OW38344   5.119   8.925   3.098  1.1058 -0.3413  0.2203
12589SOL    HW138345   5.113   8.982   3.175 -0.9119  0.0352 -0.1725
12589SOL    HW238346   5.186   8.966   3.043  0.1079  1.3629  0.2122
12590SOL     OW38347   5.337   1.212   2.779  0.1823 -0.2977 -0.4311
12590SOL    HW138348   5.242   1.215   2.774  0.0884 -1.1203  0.5843
12590SOL    HW238349   5.365   1.298   2.749 -0.9188  0.2375  0.0287
12591SOL     OW38350   2.267   1.260   3.722  0.1712  0.3081  0.8543
12591SOL    HW138351   2.278   1.306   3.805 -0.9497  0.4894  0.9192
12591SOL    HW238352   2.237   1.328   3.661 -1.5084 -0.3106  0.9527
12592SOL     OW38353   0.535   9.847   5.549  0.0009 -0.2697  0.2491
12592SOL    HW138354   0.514   9.756   5.569  0.3664 -0.6423 -0.9549
12592SOL    HW238355   0.450   9.890   5.538 -0.2087 -1.0463 -1.5373
12593SOL     OW38356   1.055   5.552   7.351 -0.3203  0.1819 -0.5158
12593SOL    HW138357   1.063   5.525   7.260 -0.3334  2.0135 -1.1075
12593SOL    HW238358   1.140   5.592   7.372 -0.6941  0.7839 -0.0966
12594SOL     OW38359   9.239   6.721   5.153  0.0508 -0.1000  0.0344
12594SOL    HW138360   9.202   6.697   5.068 -0.5987 -0.7587  0.4860
12594SOL    HW238361   9.181   6.679   5.217  0.7431  0.0726  0.7951
12595SOL     OW38362   2.807   2.073   6.703 -0.3830 -0.4458 -0.2086
12595SOL    HW138363   2.777   2.014   6.633 -1.3230 -0.8997  0.5490
12595SOL    HW238364   2.896   2.098   6.677 -0.2499 -1.5939 -0.9432
12596SOL     OW38365   6.862   2.511   3.376  0.0547  0.1539 -0.4650
12596SOL    HW138366   6.842   2.578   3.311  0.8143  0.1784 -0.6747
12596SOL    HW238367   6.798   2.526   3.446  0.2506  1.1329 -0.4883
12597SOL     OW38368   0.332   5.732   4.530 -0.3498 -0.1279 -0.0077
12597SOL    HW138369   0.332   5.637   4.544  1.5418 -0.3096 -0.9717
12597SOL    HW238370   0.374   5.744   4.445 -1.7214  1.5368 -0.5019
12598SOL     OW38371   1.328   9.616   4.133 -0.3261  0.0153  0.2134
12598SOL    HW138372   1.421   9.630   4.117 -0.3377  0.3736  0.4306
12598SOL    HW238373   1.325   9.565   4.214 -0.3186 -0.0127  0.1962
12599SOL     OW38374   2.352   2.114   7.372  0.0655  0.4084 -1.1780
12599SOL    HW138375   2.419   2.170   7.333  1.8038  0.6967  1.8803
12599SOL    HW238376   2.380   2.025   7.351 -0.1676  0.5762 -2.2419
12600SOL     OW38377   8.766   6.564   6.730 -0.3174 -0.5407  0.2028
12600SOL    HW138378   8.805   6.512   6.661 -1.3564 -1.3851  0.2330
12600SOL    HW238379   8.709   6.627   6.685 -1.7605 -1.7299  0.2906
12601SOL     OW38380   3.538   7.345   2.198  0.2027 -0.4692  0.1484
12601SOL    HW138381   3.565   7.365   2.287  0.1759  1.9268 -0.3139
12601SOL    HW238382   3.489   7.423   2.170 -0.9008 -1.6982 -1.5223
12602SOL     OW38383   2.638   6.578   8.098 -0.1735  0.0713  0.1280
12602SOL    HW138384   2.545   6.556   8.094 -0.6454  1.8402  0.3454
12602SOL    HW238385   2.640   6.672   8.077  1.4406  0.3190  1.2972
12603SOL     OW38386   1.378   0.838   4.852  0.3382 -0.0296  0.8166
12603SOL    HW138387   1.323   0.794   4.917 -0.9840  1.5105  0.8106
12603SOL    HW238388   1.401   0.770   4.789 -2.6508 -0.5240  0.1104
12604SOL     OW38389   9.180   8.998   7.542  0.1494 -0.3008  0.3004
12604SOL    HW138390   9.190   8.925   7.481 -0.3339  0.8919 -1.2779
12604SOL    HW238391   9.111   8.971   7.602 -0.6502 -0.7980 -0.8173
12605SOL     OW38392   1.676   6.940   2.873  0.0124 -0.0456  0.4044
12605SOL    HW138393   1.677   7.031   2.902  1.2512  0.1433 -0.1392
12605SOL    HW238394   1.744   6.936   2.805  0.4626 -1.5259  0.8991
12606SOL     OW38395   1.582   1.838   3.751 -0.4901 -0.4045 -1.0108
12606SOL    HW138396   1.579   1.921   3.703 -1.0312  0.3322  0.2331
12606SOL    HW238397   1.568   1.771   3.684  2.9001  0.2373 -2.5755
12607SOL     OW38398   0.474   6.184   5.310  0.1454 -0.3954 -0.1509
12607SOL    HW138399   0.529   6.115   5.348  1.8445  0.3580 -1.1358
12607SOL    HW238400   0.485   6.173   5.216  0.2199  1.0388 -0.3228
12608SOL     OW38401   0.916   9.569   6.420  0.0955 -0.9309  0.1587
12608SOL    HW138402   0.989   9.593   6.477  0.0765 -2.4178  0.8499
12608SOL    HW238403   0.897   9.478   6.442  0.4803 -1.7908 -2.6429
12609SOL     OW38404   3.366   9.070   8.569  0.2814  0.3381 -0.0829
12609SOL    HW138405   3.281   9.048   8.606 -0.7007  1.7872 -1.3020
12609SOL    HW238406   3.415   9.109   8.641  0.6508 -2.1610  1.0979
12610SOL     OW38407   4.218   8.294   3.591  0.2300 -0.0542 -0.3380
12610SOL    HW138408   4.226   8.233   3.665 -0.3693 -1.4330 -1.3768
12610SOL    HW238409   4.299   8.345   3.594  0.4149 -0.3716  1.0124
12611SOL     OW38410   0.201   5.379   2.888 -0.2624  0.0075  0.0893
12611SOL    HW138411   0.158   5.325   2.954 -1.5303  0.0257 -0.6989
12611SOL    HW238412   0.130   5.406   2.830  0.4984  1.7039 -0.0973
12612SOL     OW38413   2.062   2.652   6.098 -0.2563 -0.2132 -0.0841
12612SOL    HW138414   1.982   2.628   6.051  0.3655 -1.1867 -0.6696
12612SOL    HW238415   2.057   2.603   6.180 -0.0313 -0.6479 -0.3295
12613SOL     OW38416   2.813   9.217   5.484  0.1771  0.0636  0.2311
12613SOL    HW138417   2.901   9.213   5.521  0.5549 -0.6947 -0.7187
12613SOL    HW238418   2.792   9.126   5.460 -0.3879  0.3954 -0.6032
12614SOL     OW38419   3.360   4.319   8.797 -0.2486  0.3519 -0.6579
12614SOL    HW138420   3.336   4.406   8.829  4.0768  1.8950 -0.9512
12614SOL    HW238421   3.373   4.266   8.876 -2.7775 -0.1406 -0.4772
12615SOL     OW38422   9.187   9.899   6.787  0.0298 -0.4470  0.3619
12615SOL    HW138423   9.110   9.913   6.732 -0.8679  2.1448  2.0705
12615SOL    HW238424   9.236   9.981   6.781 -0.4281  0.2282  3.7221
12616SOL     OW38425   7.903   3.366   6.379 -0.0595  0.4891 -0.3587
12616SOL    HW138426   7.818   3.368   6.335  0.6642  0.7073 -1.8113
12616SOL    HW238427   7.959   3.314   6.321  0.1111 -2.1034  1.9459
12617SOL     OW38428   4.152   9.679   1.907 -0.1976  0.2557 -0.3522
12617SOL    HW138429   4.179   9.727   1.985  0.5334  0.3295 -0.6326
12617SOL    HW238430   4.222   9.698   1.843 -0.6912  0.0574 -0.9589
12618SOL     OW38431   2.076   4.624   8.406 -0.7777 -0.3278 -0.3679
12618SOL    HW138432   2.042   4.669   8.328 -0.4719  1.6264  0.5466
12618SOL    HW238433   2.167   4.606   8.385 -0.0737  2.1079  0.2101
12619SOL     OW38434   1.860   6.858   4.670 -0.0366  0.5933  0.5938
12619SOL    HW138435   1.881   6.766   4.661 -0.0384  0.7624 -1.6327
12619SOL    HW238436   1.773   6.867   4.632  0.5740  1.7261 -0.6161
12620SOL     OW38437   7.449   9.318   8.916  0.0513  0.4696 -0.1564
12620SOL    HW138438   7.508   9.276   8.979 -0.1689  1.6953  0.8890
12620SOL    HW238439   7.370   9.264   8.918  0.4845 -0.1833 -0.2809
12621SOL     OW38440   3.216   2.972   3.488 -0.3102 -0.1297 -0.2686
12621SOL    HW138441   3.218   3.047   3.428 -1.9511  0.3133  0.1728
12621SOL    HW238442   3.294   2.983   3.543  0.7324 -0.0526 -1.7121
12622SOL     OW38443   1.668   3.725   2.866 -0.0744 -0.0484  0.2285
12622SOL    HW138444   1.590   3.696   2.914  0.0918  0.0227  0.5421
12622SOL    HW238445   1.653   3.819   2.851 -0.6511 -0.3028 -0.8607
12623SOL     OW38446   0.189   7.108   1.156 -0.2554 -0.2617 -0.2075
12623SOL    HW138447   0.235   7.187   1.127 -1.2171  0.0503 -0.9455
12623SOL    HW238448   0.172   7.060   1.075 -0.8637 -0.5634  0.0926
12624SOL     OW38449   9.646   3.146   6.081  0.2395  0.0340  0.0644
12624SOL    HW138450   9.619   3.201   6.007 -0.4942 -0.3488  0.0439
12624SOL    HW238451   9.741   3.155   6.084  0.0427  3.1188  1.4494
12625SOL     OW38452   7.627   3.373   4.401 -0.4316 -0.2556 -0.0727
12625SOL    HW138453   7.703   3.374   4.460 -0.4572  0.3198 -0.0473
12625SOL    HW238454   7.582   3.292   4.423 -1.3824  0.7203  1.9191
12626SOL     OW38455   1.720   6.754   9.173 -0.1686 -0.1625 -0.1447
12626SOL    HW138456   1.679   6.810   9.108 -0.8616 -1.1413 -0.5713
12626SOL    HW238457   1.812   6.781   9.174 -0.2883  0.3057 -1.0555
12627SOL     OW38458   8.409   8.779   4.487  0.0829 -0.3690 -0.1992
12627SOL    HW138459   8.494   8.742   4.464  0.6797 -0.8052  2.3762
12627SOL    HW238460   8.376   8.722   4.556 -0.3461  2.1431  1.8199
12628SOL     OW38461   6.317   6.889   7.802 -0.4791  0.4766  0.4237
12628SOL    HW138462   6.320   6.818   7.867 -0.6403  0.0588 -0.0194
12628SOL    HW238463   6.398   6.937   7.815 -0.8303  0.8355  1.4172
12629SOL     OW38464   8.932   3.793   0.012  0.0977 -0.6366 -0.3665
12629SOL    HW138465   8.901   3.726  -0.049  2.2897 -1.6377 -0.5034
12629SOL    HW238466   8.969   3.743   0.085  1.7459  0.3823 -0.4463
12630SOL     OW38467   6.060   2.771   6.273 -0.0064  0.0556 -0.1123
12630SOL    HW138468   6.032   2.850   6.228  1.1096  1.0298  0.8358
12630SOL    HW238469   6.009   2.770   6.354 -0.3812 -0.4709 -0.3529
12631SOL     OW38470   6.508   1.360   0.392  0.1710  0.1957  0.1549
12631SOL    HW138471   6.428   1.309   0.376 -0.7337  1.7257 -0.4060
12631SOL    HW238472   6.538   1.332   0.478 -1.8986  0.7601  1.1059
12632SOL     OW38473   6.443   3.400   1.962  0.0396 -0.2245  0.1004
12632SOL    HW138474   6.368   3.432   1.913  2.3875  2.7483 -1.9475
12632SOL    HW238475   6.467   3.474   2.019  0.3953 -1.7639  2.0452
12633SOL     OW38476   4.508   5.887   9.927  0.0075  0.1323 -0.1271
12633SOL    HW138477   4.444   5.958   9.938  0.2076  0.2259  0.5014
12633SOL    HW238478   4.576   5.907   9.991  0.5536 -0.0928 -0.6370
12634SOL     OW38479   7.986   4.036   7.901  0.1844  0.4903  0.6350
12634SOL    HW138480   8.062   4.016   7.846 -0.6986  3.1500 -1.7915
12634SOL    HW238481   7.932   3.957   7.897  0.7981  0.1067 -1.2913
12635SOL     OW38482   2.557   6.933   8.513 -0.6847 -0.0789  0.5283
12635SOL    HW138483   2.471   6.930   8.470 -0.7974  0.5531  0.6969
12635SOL    HW238484   2.618   6.904   8.445 -0.6671  2.3883 -0.6182
12636SOL     OW38485   2.568   1.739   8.211 -0.7287  0.0899 -0.3213
12636SOL    HW138486   2.538   1.700   8.294  0.1098 -0.1556 -0.1252
12636SOL    HW238487   2.539   1.830   8.215 -0.6553  0.0920  0.2708
12637SOL     OW38488   5.540   7.081   7.853 -0.2385  0.4510  0.2809
12637SOL    HW138489   5.447   7.061   7.845 -0.3756  1.0427  0.3372
12637SOL    HW238490   5.553   7.096   7.946 -0.3920  1.7679  0.1078
12638SOL     OW38491   6.610   3.832   1.596  0.0280  0.2379 -0.3128
12638SOL    HW138492   6.551   3.819   1.522  0.4289  0.5193 -0.6910
12638SOL    HW238493   6.555   3.863   1.667 -0.1898  1.0693 -0.8327
12639SOL     OW38494   3.835   3.268   9.464  0.0788 -0.6468  0.2662
12639SOL    HW138495   3.774   3.342   9.464  2.4147  1.3857  0.1009
12639SOL    HW238496   3.797   3.206   9.402 -0.7534  1.4820 -1.4757
12640SOL     OW38497   2.050   6.288   3.468 -0.1233 -0.1293  0.4007
12640SOL    HW138498   2.142   6.261   3.456 -0.3976 -0.4653 -1.1346
12640SOL    HW238499   2.003   6.244   3.398 -2.0880 -2.7667  3.0881
12641SOL     OW38500   7.580   6.637   4.849 -0.0238  0.6335  0.0118
12641SOL    HW138501   7.671   6.651   4.873 -0.1608 -0.3582  1.2163
12641SOL    HW238502   7.583   6.582   4.771  0.4043  1.3024 -0.4494
12642SOL     OW38503   5.450   3.883   2.641  0.1268  0.6421  0.3576
12642SOL    HW138504   5.477   3.950   2.705 -0.5929 -1.5155  3.1200
12642SOL    HW238505   5.355   3.893   2.635  0.0274 -0.0721  0.7304
12643SOL     OW38506   1.741   7.908   6.402  0.0761 -0.2174 -0.4760
12643SOL    HW138507   1.662   7.861   6.431  0.8842 -0.7909  0.8677
12643SOL    HW238508   1.707   7.986   6.358 -1.2620  0.1458  1.0784
12644SOL     OW38509   0.085   1.056   4.427 -0.7620  0.2403  0.1775
12644SOL    HW138510   0.098   1.135   4.374 -0.7135 -0.3961 -0.7843
12644SOL    HW238511   0.116   0.985   4.371  2.4389 -0.2069  2.2429
12645SOL     OW38512   7.294   7.359   4.834  0.6696 -0.5967 -0.4669
12645SOL    HW138513   7.375   7.315   4.859  0.0782 -1.1344  0.5506
12645SOL    HW238514   7.225   7.313   4.883 -0.2782 -0.2834 -1.4557
12646SOL     OW38515   1.753   3.317   2.246  0.3543 -0.4912 -0.5701
12646SOL    HW138516   1.811   3.393   2.251 -1.3870  0.8057  2.2463
12646SOL    HW238517   1.782   3.260   2.317 -0.5194 -0.8123 -0.4668
12647SOL     OW38518   5.062   9.100   2.256  0.1072  0.2567  0.1724
12647SOL    HW138519   4.980   9.080   2.301 -0.4884  2.4368  0.1843
12647SOL    HW238520   5.121   9.029   2.281 -0.7402  0.4021  2.9391
12648SOL     OW38521   0.754   8.013   1.198  0.5671  0.0688  0.7540
12648SOL    HW138522   0.684   8.004   1.262 -0.1739 -0.9892 -0.1778
12648SOL    HW238523   0.783   8.104   1.207 -0.7990  0.4768  1.2823
12649SOL     OW38524   5.341   6.680   0.491 -0.6363 -0.3085  0.5608
12649SOL    HW138525   5.374   6.696   0.402  1.4269  0.2278  1.3770
12649SOL    HW238526   5.361   6.588   0.508 -1.4370 -0.5348  0.3340
12650SOL     OW38527   8.215   6.438   6.352  0.3450  0.6478  0.0814
12650SOL    HW138528   8.151   6.403   6.415 -0.4435  0.1213 -0.9684
12650SOL    HW238529   8.248   6.517   6.393 -2.1167  1.7982  0.0443
12651SOL     OW38530   2.752   3.843   5.762 -0.4224  0.2447  0.1977
12651SOL    HW138531   2.745   3.748   5.772 -0.3961  0.3477  1.3154
12651SOL    HW238532   2.681   3.879   5.814  0.8570  0.8848  1.6043
12652SOL     OW38533   4.200   5.513   6.440  0.1636  0.4370 -0.5214
12652SOL    HW138534   4.243   5.595   6.464  0.1032  0.5609 -0.8316
12652SOL    HW238535   4.211   5.457   6.517  0.6909  0.5413 -0.5186
12653SOL     OW38536   7.821   3.212   2.545 -0.1612  0.0432 -0.2601
12653SOL    HW138537   7.814   3.302   2.513 -0.5454 -0.1683 -0.7652
12653SOL    HW238538   7.758   3.162   2.494  0.6704 -0.6873 -0.6020
12654SOL     OW38539   3.316   1.619   5.924  0.1748 -0.3190  0.1527
12654SOL    HW138540   3.246   1.554   5.914  2.0116 -2.5417  1.0460
12654SOL    HW238541   3.269   1.702   5.938 -2.2547 -1.3743 -1.0567
12655SOL     OW38542   1.794   5.013   9.304  0.0494  0.2872 -0.0370
12655SOL    HW138543   1.707   5.028   9.342  1.2115 -0.5268  3.2322
12655SOL    HW238544   1.780   4.942   9.241 -1.3560 -1.6148  2.2470
12656SOL     OW38545   2.521   6.202   8.789 -0.0944  0.6925  0.0039
12656SOL    HW138546   2.579   6.278   8.797 -0.4306  0.8888  0.5525
12656SOL    HW238547   2.581   6.127   8.786  0.2089  0.9304  0.0369
12657SOL     OW38548   6.520   2.551   7.774  0.3121 -0.3214 -0.1730
12657SOL    HW138549   6.527   2.644   7.798 -0.2087 -0.8908  2.4849
12657SOL    HW238550   6.427   2.538   7.756 -0.1556 -0.8842  2.3391
12658SOL     OW38551   8.306   3.630   5.487 -0.2452  0.7522  0.4606
12658SOL    HW138552   8.244   3.635   5.560 -1.3278 -1.2108 -0.2431
12658SOL    HW238553   8.310   3.719   5.452 -3.3179  0.8420  0.0489
12659SOL     OW38554   2.633   1.843   5.751  0.2906  0.4812 -0.2872
12659SOL    HW138555   2.682   1.823   5.672  0.2082 -0.6681 -0.0566
12659SOL    HW238556   2.662   1.778   5.815 -1.1614  0.0808 -0.0026
12660SOL     OW38557   0.902   5.282   2.640  0.1524 -0.2371 -0.2192
12660SOL    HW138558   0.937   5.351   2.696  1.5542 -0.7756 -0.3943
12660SOL    HW238559   0.899   5.205   2.696 -1.3840 -0.0680 -0.0308
12661SOL     OW38560   7.569   6.445   8.372  0.6935 -0.4373  0.1803
12661SOL    HW138561   7.495   6.448   8.433 -0.1372 -1.1611 -0.7623
12661SOL    HW238562   7.633   6.389   8.416  1.3577  1.3538  1.6669
12662SOL     OW38563   0.924   1.698   0.330 -0.6481  0.0900  0.4805
12662SOL    HW138564   0.893   1.775   0.378 -2.2922  0.1253 -0.5815
12662SOL    HW238565   0.956   1.733   0.247  0.3032 -0.1939  0.7154
12663SOL     OW38566   3.521   9.653   8.025  1.1567 -0.0825 -0.5483
12663SOL    HW138567   3.481   9.724   7.976  1.1017 -1.3396 -2.4274
12663SOL    HW238568   3.523   9.684   8.116 -0.8650  1.4141 -0.9568
12664SOL     OW38569   2.776   2.198   4.118 -0.4311  0.3760 -0.4608
12664SOL    HW138570   2.812   2.156   4.196 -0.0414 -1.1948 -1.4511
12664SOL    HW238571   2.843   2.188   4.051 -0.4240  2.4003 -0.8332
12665SOL     OW38572   3.602   8.861   5.371 -0.2994 -0.0515  0.3066
12665SOL    HW138573   3.675   8.800   5.381 -1.9665 -2.5155 -1.4995
12665SOL    HW238574   3.620   8.907   5.289 -0.0361  0.4934  0.6610
12666SOL     OW38575   4.732   0.494   0.429 -0.1663 -0.2684 -0.4018
12666SOL    HW138576   4.773   0.441   0.497  0.6078 -0.5985 -1.1040
12666SOL    HW238577   4.727   0.436   0.353 -0.9886  0.1012 -0.6395
12667SOL     OW38578   3.524   7.728   3.038  0.6936  0.5944 -0.0449
12667SOL    HW138579   3.472   7.769   2.969 -0.4392 -0.4039  0.1955
12667SOL    HW238580   3.473   7.653   3.066  0.7926  1.3307  2.3610
12668SOL     OW38581   2.768   9.693   5.061 -0.3684  0.1594  0.2393
12668SOL    HW138582   2.854   9.717   5.026  0.8735 -1.0762  2.2659
12668SOL    HW238583   2.784   9.671   5.153 -3.1083  1.1830  1.0677
12669SOL     OW38584   3.350   1.388   8.693 -0.1055  0.4344  0.5152
12669SOL    HW138585   3.272   1.335   8.681  0.2200  0.0531  0.0279
12669SOL    HW238586   3.422   1.333   8.661  0.2822  1.0177  0.3646
12670SOL     OW38587   9.442   0.473   3.347  0.5797 -0.1353 -0.3661
12670SOL    HW138588   9.437   0.382   3.376  2.6272 -0.3101 -0.4330
12670SOL    HW238589   9.424   0.469   3.253  5.5260 -1.3100 -1.5228
12671SOL     OW38590   2.138   4.141   3.067 -1.1538 -0.0291 -0.2489
12671SOL    HW138591   2.209   4.080   3.085  0.0735  0.9614 -1.4678
12671SOL    HW238592   2.060   4.087   3.059 -0.2366 -1.3380 -0.5594
12672SOL     OW38593   6.762   0.288   0.978 -0.1677 -0.0140 -0.1533
12672SOL    HW138594   6.727   0.300   1.066 -1.6593  0.2962 -0.7592
12672SOL    HW238595   6.773   0.193   0.970 -0.1279 -0.0551  0.3228
12673SOL     OW38596   6.790   4.405   2.890  0.4797 -0.1119 -0.2711
12673SOL    HW138597   6.737   4.432   2.815  2.0899  0.0870 -1.3740
12673SOL    HW238598   6.727   4.367   2.951 -0.8067 -0.7748 -1.9419
12674SOL     OW38599   5.194   0.242   0.249 -0.7240  0.2792  0.1090
12674SOL    HW138600   5.179   0.273   0.339 -1.2173 -1.5642  0.6901
12674SOL    HW238601   5.157   0.154   0.247 -0.8879  0.3461 -1.9786
12675SOL     OW38602   9.866   7.624   6.198  0.0449 -0.7605  0.0853
12675SOL    HW138603   9.869   7.645   6.291  1.9561  1.4115 -0.3798
12675SOL    HW238604   9.957   7.612   6.173 -0.4703 -1.8800 -1.4475
12676SOL     OW38605   7.488   8.246   6.275 -0.3499 -0.0363 -0.2804
12676SOL    HW138606   7.550   8.197   6.329  0.3064  0.2361 -0.7732
12676SOL    HW238607   7.420   8.273   6.337 -0.4076 -1.0387  0.1077
12677SOL     OW38608   9.658   4.215   5.432  0.3366  0.0184  0.0477
12677SOL    HW138609   9.575   4.237   5.390 -0.9482 -2.4609  1.0619
12677SOL    HW238610   9.659   4.266   5.513  0.8614  1.6685 -0.9679
12678SOL     OW38611   6.342   7.260   0.421 -0.0699 -0.3644  0.3739
12678SOL    HW138612   6.306   7.328   0.365 -1.6472 -1.4513  0.0119
12678SOL    HW238613   6.437   7.265   0.406 -0.3551  0.0513 -1.6192
12679SOL     OW38614   7.915   7.029   3.393 -0.3023  0.0932 -0.0601
12679SOL    HW138615   7.876   7.083   3.325  1.7386  1.5380 -0.1683
12679SOL    HW238616   7.986   6.983   3.349  0.0061 -0.2185  0.7387
12680SOL     OW38617   3.738   0.574   4.906 -0.0957 -0.2147 -0.0345
12680SOL    HW138618   3.812   0.632   4.890  0.0085 -0.2112  0.4283
12680SOL    HW238619   3.667   0.632   4.932 -0.5257 -0.1391 -1.3240
12681SOL     OW38620   9.368   4.517   7.711  0.0856 -0.4872 -0.0492
12681SOL    HW138621   9.374   4.488   7.801 -0.4003  1.9498  0.8500
12681SOL    HW238622   9.459   4.522   7.681  0.2338 -1.6042  0.1710
12682SOL     OW38623   6.528   2.821   7.818 -0.3720 -0.1426  0.0164
12682SOL    HW138624   6.561   2.903   7.781 -3.0410  0.3137 -1.6188
12682SOL    HW238625   6.436   2.819   7.793 -1.1144 -2.2900  2.5137
12683SOL     OW38626   6.486   4.538   2.327  0.0701 -0.2520  0.0305
12683SOL    HW138627   6.481   4.615   2.270  0.9460  0.0061  0.2827
12683SOL    HW238628   6.440   4.565   2.407 -0.2999 -0.2686 -0.1744
12684SOL     OW38629   3.999   8.732   1.401  0.2238 -0.7820  0.6319
12684SOL    HW138630   4.060   8.727   1.474  1.0757 -2.3324 -0.1339
12684SOL    HW238631   4.047   8.778   1.332  0.2446 -1.2998  0.2964
12685SOL     OW38632   8.494   8.302   2.672  0.4430 -0.0050  0.1429
12685SOL    HW138633   8.495   8.395   2.694  2.6860  0.1672 -0.3488
12685SOL    HW238634   8.510   8.257   2.755  0.0223  0.0904  0.2754
12686SOL     OW38635   7.548   3.040   1.003 -0.5426  0.0824  0.5765
12686SOL    HW138636   7.627   2.985   1.002 -0.2876  0.4114 -1.6136
12686SOL    HW238637   7.569   3.112   1.062  1.4512  1.0136 -1.1612
12687SOL     OW38638   3.301   2.242   2.643 -0.4637  0.3062  0.0591
12687SOL    HW138639   3.349   2.187   2.705 -0.2110  0.2115 -0.2197
12687SOL    HW238640   3.301   2.193   2.561 -0.2959  0.6876 -0.1745
12688SOL     OW38641   7.123   7.975   0.805  0.3481 -0.2456 -0.4232
12688SOL    HW138642   7.167   8.020   0.733  0.8202  0.3802  0.2340
12688SOL    HW238643   7.155   7.885   0.801  0.2808 -0.2436 -1.0598
12689SOL     OW38644   0.019   6.696   8.551  0.6410 -0.2677  0.1307
12689SOL    HW138645   0.016   6.604   8.578  0.2071 -0.6850 -1.2442
12689SOL    HW238646   0.091   6.700   8.488  0.2307  0.1796 -0.3161
12690SOL     OW38647   8.872   2.340   7.637  0.4025  0.5114 -0.5083
12690SOL    HW138648   8.800   2.287   7.673  0.7728  0.4608  0.1815
12690SOL    HW238649   8.834   2.428   7.629 -0.1801  0.1786 -1.5490
12691SOL     OW38650   7.480   4.240   3.531  0.2325  0.3003  0.3104
12691SOL    HW138651   7.571   4.259   3.506  0.7192 -0.1287  1.6277
12691SOL    HW238652   7.457   4.311   3.591 -1.0962  1.6341 -1.6756
12692SOL     OW38653   7.594   9.406   9.831  0.1828  0.1111  0.4436
12692SOL    HW138654   7.667   9.412   9.893 -0.4031 -2.4404  1.4975
12692SOL    HW238655   7.571   9.313   9.830 -1.2198  0.3970 -2.0426
12693SOL     OW38656   5.800   1.888   5.640 -0.3170 -0.1035 -0.2431
12693SOL    HW138657   5.750   1.807   5.640 -0.6299  0.0843  0.5904
12693SOL    HW238658   5.769   1.936   5.716 -0.6216  1.1083 -1.0997
12694SOL     OW38659   2.726   9.141   5.932 -0.4930 -0.8193  0.0655
12694SOL    HW138660   2.807   9.166   5.888 -0.5960 -1.1213 -0.3044
12694SOL    HW238661   2.658   9.190   5.886 -0.2928  1.2824  1.8991
12695SOL     OW38662   1.510   2.605   9.785  0.1438  0.3541  0.3368
12695SOL    HW138663   1.458   2.684   9.798  0.2908  0.1263  2.7091
12695SOL    HW238664   1.493   2.552   9.862  1.1663 -1.3106 -0.5273
12696SOL     OW38665   3.451   4.556   9.123  0.2026  0.2199  0.2636
12696SOL    HW138666   3.517   4.515   9.068 -1.6711 -1.5272 -0.8230
12696SOL    HW238667   3.422   4.487   9.183 -0.1252  1.1501  1.2193
12697SOL     OW38668   0.253   7.934   8.354  0.5011  0.1889 -0.0418
12697SOL    HW138669   0.196   7.858   8.370 -1.4537  1.5399 -0.1868
12697SOL    HW238670   0.250   7.983   8.436  0.5004  0.8653 -0.4411
12698SOL     OW38671   5.795   3.192   6.600 -0.0480  0.1223 -0.1404
12698SOL    HW138672   5.882   3.166   6.569 -0.6694 -0.7857 -1.2132
12698SOL    HW238673   5.759   3.245   6.529  0.0902  1.5799  0.8382
12699SOL     OW38674   5.425   6.760   0.246  0.6788  0.2203  0.2016
12699SOL    HW138675   5.489   6.830   0.263  1.3440 -0.3486  0.0608
12699SOL    HW238676   5.408   6.766   0.152  2.3492 -1.1477 -0.2273
12700SOL     OW38677   0.292   5.895   3.707 -0.2909 -0.0540 -0.1933
12700SOL    HW138678   0.327   5.956   3.641 -2.0882  1.0105 -0.2069
12700SOL    HW238679   0.294   5.945   3.789 -0.5676 -0.4280  0.0416
12701SOL     OW38680   1.478   4.117   0.029 -0.1480  0.4085  0.8495
12701SOL    HW138681   1.572   4.108   0.046  0.5684  2.8338 -1.2140
12701SOL    HW238682   1.458   4.046  -0.032  0.4240  0.1263  0.9807
12702SOL     OW38683   1.574   4.161   0.413  0.0806  0.1634 -0.0145
12702SOL    HW138684   1.630   4.086   0.390  0.4032  0.3343  0.2117
12702SOL    HW238685   1.494   4.147   0.363  0.4193  0.0426 -0.5238
12703SOL     OW38686   3.356   4.863   7.118  0.5215  0.6941 -0.0586
12703SOL    HW138687   3.405   4.840   7.039  0.8481  0.7411  0.1278
12703SOL    HW238688   3.346   4.781   7.165  1.1535  0.8303  0.3102
12704SOL     OW38689   5.369   7.200   1.188 -0.1084 -0.1629 -0.1531
12704SOL    HW138690   5.455   7.242   1.193 -0.0027 -0.5123  2.1063
12704SOL    HW238691   5.307   7.273   1.190  0.1332  0.0424 -0.0587
12705SOL     OW38692   1.443   1.530   8.620 -0.1157  0.2643  0.5246
12705SOL    HW138693   1.441   1.595   8.691  1.2029  0.4348  0.4243
12705SOL    HW238694   1.455   1.446   8.665 -1.6902  0.0699  0.6457
12706SOL     OW38695   5.666   8.454   4.218  0.5068  0.0568  0.2042
12706SOL    HW138696   5.656   8.388   4.285 -0.8121  0.3423  0.3247
12706SOL    HW238697   5.749   8.497   4.238  1.2680 -1.3804  0.2555
12707SOL     OW38698   7.749   4.468   0.651 -0.3694  0.1304  0.0326
12707SOL    HW138699   7.704   4.398   0.603 -1.2878  0.5924  0.1838
12707SOL    HW238700   7.785   4.525   0.583  1.5711 -1.1712 -0.1138
12708SOL     OW38701   0.955   5.009   8.603  0.0904  0.1564 -0.2242
12708SOL    HW138702   0.976   4.940   8.666  0.0984 -0.2705 -0.6857
12708SOL    HW238703   0.999   5.087   8.637  0.1554 -0.0846  0.2578
12709SOL     OW38704   7.169   8.895   3.592 -0.5756 -0.2118 -0.0981
12709SOL    HW138705   7.193   8.957   3.660 -0.4128  0.1171 -0.4564
12709SOL    HW238706   7.247   8.841   3.581 -0.8933 -0.8406  0.5947
12710SOL     OW38707   8.322   8.891   3.510  0.3385  0.8612 -0.4649
12710SOL    HW138708   8.359   8.830   3.573  1.5207  0.8472 -1.1368
12710SOL    HW238709   8.229   8.897   3.533 -0.1350 -2.2337 -1.2187
12711SOL     OW38710   1.944   3.447   5.797  0.1894  0.2518  0.1675
12711SOL    HW138711   1.883   3.504   5.844  1.9599  1.5948  0.9275
12711SOL    HW238712   2.015   3.431   5.858  0.5885 -1.3732 -0.6650
12712SOL     OW38713   7.773   2.095   4.615  0.0410 -0.4114 -0.2212
12712SOL    HW138714   7.843   2.100   4.680  0.6788 -1.5975 -0.7846
12712SOL    HW238715   7.704   2.044   4.657 -0.5685  0.8640  0.3806
12713SOL     OW38716   0.065   8.450   7.156 -0.0064  0.3964 -0.6431
12713SOL    HW138717  -0.017   8.419   7.119 -0.7362  0.6982  0.6547
12713SOL    HW238718   0.041   8.525   7.211  1.2273  0.9145 -0.7659
12714SOL     OW38719   8.468   5.994   1.715 -0.4063 -0.2740  0.0175
12714SOL    HW138720   8.521   5.964   1.640 -0.1194  0.0346  0.0936
12714SOL    HW238721   8.407   6.057   1.677  0.5526  0.8214  0.2204
12715SOL     OW38722   9.402   4.935   9.178  0.3471  0.2431 -0.4205
12715SOL    HW138723   9.320   4.895   9.148 -0.0606  0.6589  0.1266
12715SOL    HW238724   9.385   5.029   9.175  0.9592  0.3519 -0.7208
12716SOL     OW38725   7.115   6.559   1.281 -0.1274 -0.5160 -0.4719
12716SOL    HW138726   7.045   6.583   1.341 -0.7651  0.7765 -1.6693
12716SOL    HW238727   7.174   6.635   1.283  0.7648 -1.2074 -0.1683
12717SOL     OW38728   8.443   3.282   2.315 -0.2050 -0.0783 -0.2041
12717SOL    HW138729   8.479   3.214   2.373 -1.6759 -0.9185 -0.2291
12717SOL    HW238730   8.450   3.244   2.227  0.0494  0.3024 -0.3478
12718SOL     OW38731   7.745   0.685   6.720 -0.3862 -0.3802 -0.7064
12718SOL    HW138732   7.708   0.664   6.806  1.4068  0.4815  0.3363
12718SOL    HW238733   7.839   0.673   6.731 -0.2073 -1.5666 -2.9712
12719SOL     OW38734   8.686   3.250   0.580  0.8182  0.3579 -0.0058
12719SOL    HW138735   8.712   3.342   0.575 -0.3432  0.8330  1.6956
12719SOL    HW238736   8.749   3.204   0.525  1.1786  2.2102 -1.2263
12720SOL     OW38737   4.339   6.208   8.865  0.0363  0.0048  0.4593
12720SOL    HW138738   4.420   6.157   8.865 -0.5745 -1.0294  2.2663
12720SOL    HW238739   4.365   6.294   8.899  0.2616 -0.5657  1.7916
12721SOL     OW38740   8.308   4.885   4.571  0.4095  0.0490  0.6947
12721SOL    HW138741   8.326   4.948   4.640 -1.0434 -0.7574  1.8605
12721SOL    HW238742   8.212   4.884   4.563  0.5222  0.0709 -1.3102
12722SOL     OW38743   2.822   3.098   8.601  0.0554 -0.7839 -0.6238
12722SOL    HW138744   2.879   3.021   8.596 -0.2170 -1.1479  1.1947
12722SOL    HW238745   2.792   3.100   8.692 -1.0284  0.7066 -0.9726
12723SOL     OW38746   4.043   1.441   2.289  0.5153 -0.4579 -0.1710
12723SOL    HW138747   4.090   1.466   2.209 -0.2048  0.2706 -0.3700
12723SOL    HW238748   3.987   1.515   2.309 -0.4834 -1.2645  0.1201
12724SOL     OW38749   4.851   1.702   7.157  0.0087 -0.2930 -0.1360
12724SOL    HW138750   4.770   1.659   7.130  0.8790 -1.9261 -0.2505
12724SOL    HW238751   4.842   1.792   7.125 -1.9443 -0.2900  0.2857
12725SOL     OW38752   5.521   3.661   1.983  0.2450 -0.3613  0.0441
12725SOL    HW138753   5.481   3.737   1.942  1.4443  0.6312  0.6557
12725SOL    HW238754   5.463   3.638   2.055 -0.4867 -0.4782 -0.5658
12726SOL     OW38755   9.456   2.160   4.622 -0.2403  0.0191  0.3879
12726SOL    HW138756   9.376   2.211   4.616 -0.1963  0.1344  0.7812
12726SOL    HW238757   9.491   2.179   4.709  0.9096  1.0107 -0.2595
12727SOL     OW38758   9.914   7.636   2.953 -0.2871  0.1811  0.0229
12727SOL    HW138759   9.938   7.710   3.008 -0.6934  0.1688  0.2205
12727SOL    HW238760   9.878   7.571   3.014  0.1047 -0.1957 -0.1427
12728SOL     OW38761   2.990   6.481   8.619 -0.1510 -0.6968  0.0199
12728SOL    HW138762   3.040   6.552   8.578 -0.3221 -0.4690  0.2002
12728SOL    HW238763   3.044   6.452   8.693 -0.7605  0.2878  0.8834
12729SOL     OW38764   8.416   0.796   5.490  0.0512 -0.2383 -0.2059
12729SOL    HW138765   8.482   0.825   5.553  0.1663  0.4630 -0.6437
12729SOL    HW238766   8.458   0.808   5.404 -0.4971 -0.1727 -0.4689
12730SOL     OW38767   5.236   5.699   9.569  0.5052 -0.1698  0.3730
12730SOL    HW138768   5.213   5.636   9.501 -2.0016  0.2089  0.7713
12730SOL    HW238769   5.152   5.729   9.603  1.5463  3.8367 -0.1423
12731SOL     OW38770   9.785   5.571   6.982 -0.1850 -0.7790 -0.1141
12731SOL    HW138771   9.785   5.493   7.037  0.9746 -0.6287  0.1330
12731SOL    HW238772   9.850   5.629   7.022  1.3926 -1.0239 -2.1116
12732SOL     OW38773   0.071   9.729   6.460 -0.3457  0.1055  0.0527
12732SOL    HW138774   0.095   9.652   6.408 -0.0768 -0.4480  0.9766
12732SOL    HW238775   0.109   9.803   6.412  1.5602 -0.5659  0.4258
12733SOL     OW38776   3.524   3.504   8.169  0.4246  0.0292 -0.6385
12733SOL    HW138777   3.474   3.423   8.179  1.4650 -0.6315 -0.6370
12733SOL    HW238778   3.584   3.505   8.243  0.1464  1.0355 -0.3963
12734SOL     OW38779   8.517   2.428   4.439 -0.1411 -0.4589 -0.1514
12734SOL    HW138780   8.583   2.472   4.492 -0.2474  1.2258 -1.3287
12734SOL    HW238781   8.434   2.456   4.477 -0.2063  0.3638 -0.8568
12735SOL     OW38782   9.144   8.717   7.524 -0.3372 -0.0578  0.0721
12735SOL    HW138783   9.100   8.676   7.450 -0.4552  1.0292 -0.4775
12735SOL    HW238784   9.073   8.745   7.582 -0.3613  0.9431 -0.4136
12736SOL     OW38785   9.733   2.292   9.456  0.8369  0.1765 -0.1712
12736SOL    HW138786   9.655   2.239   9.439  0.5901  0.6854 -0.6605
12736SOL    HW238787   9.699   2.378   9.478  1.1979 -0.1284  1.7231
12737SOL     OW38788   7.980   6.137   2.034  0.4376  0.1794 -0.2571
12737SOL    HW138789   8.022   6.109   2.115  0.8209  2.1342  0.2798
12737SOL    HW238790   8.002   6.069   1.970 -0.0137 -1.4769  1.2953
12738SOL     OW38791   0.150   1.279   6.900 -0.0597 -0.0646 -0.0395
12738SOL    HW138792   0.188   1.306   6.817  1.0154  0.6399  0.6588
12738SOL    HW238793   0.164   1.354   6.958 -0.1343 -0.8190  0.9747
12739SOL     OW38794   3.086   4.738   7.008  0.0639 -0.1125  0.1799
12739SOL    HW138795   3.142   4.701   6.940  1.6044  0.3021  1.1752
12739SOL    HW238796   3.140   4.805   7.050 -1.9459  1.9291 -0.2854
12740SOL     OW38797   1.749   3.833   7.801  0.6166  0.5115  0.2706
12740SOL    HW138798   1.654   3.828   7.805  0.6186 -0.1987 -0.2577
12740SOL    HW238799   1.769   3.926   7.813 -0.3065  1.1153 -2.1585
12741SOL     OW38800   0.791   9.074   6.637 -0.5459  0.4108  0.3457
12741SOL    HW138801   0.753   9.082   6.724  0.9763  0.8358  1.0104
12741SOL    HW238802   0.733   9.014   6.590 -0.8243 -0.6401  1.9758
12742SOL     OW38803   3.203   1.484   8.914 -0.1114  0.8174  0.1617
12742SOL    HW138804   3.268   1.432   8.867 -2.0748 -1.2831 -0.3690
12742SOL    HW238805   3.154   1.529   8.844 -1.8681 -0.8957  0.2243
12743SOL     OW38806   8.177   9.821   0.543  0.0810 -0.3827  0.5649
12743SOL    HW138807   8.225   9.875   0.480  2.2909  0.1712  2.5727
12743SOL    HW238808   8.108   9.779   0.492  1.8345 -0.0893 -2.2158
12744SOL     OW38809   8.345   4.380   7.364 -0.8856  0.1457  0.7276
12744SOL    HW138810   8.373   4.348   7.278  1.4712  0.1771  1.4192
12744SOL    HW238811   8.280   4.447   7.345 -0.4007  0.1667 -1.0263
12745SOL     OW38812   0.772   7.314   1.463  0.5512  0.1003  0.1020
12745SOL    HW138813   0.750   7.259   1.388  1.0672  0.5045 -0.3441
12745SOL    HW238814   0.757   7.257   1.539  0.2342 -0.3737 -0.3085
12746SOL     OW38815   4.483   8.771   4.151  0.0284  0.0211 -0.3155
12746SOL    HW138816   4.507   8.700   4.212 -0.8543 -1.0624 -1.1846
12746SOL    HW238817   4.489   8.731   4.065 -1.5857  0.6789 -0.7610
12747SOL     OW38818   5.153   8.031   8.422  0.4681 -0.0306 -0.1102
12747SOL    HW138819   5.214   7.966   8.458  1.3035  0.5585 -0.4274
12747SOL    HW238820   5.070   7.984   8.414  0.9385 -0.9246  0.0978
12748SOL     OW38821   9.823   9.289   0.422 -0.0297 -0.3543  0.2272
12748SOL    HW138822   9.791   9.283   0.332  1.7457 -1.4848 -0.3702
12748SOL    HW238823   9.811   9.382   0.445  0.2031  0.1223 -1.4402
12749SOL     OW38824   1.210   0.811   6.700 -0.0486  0.1737  0.3581
12749SOL    HW138825   1.256   0.803   6.616 -1.2875  0.4994 -0.3668
12749SOL    HW238826   1.266   0.869   6.752 -1.1730  3.3501 -1.6893
12750SOL     OW38827   9.086   4.729   3.987 -0.1702 -0.5899  0.1916
12750SOL    HW138828   9.094   4.810   4.038 -0.3456 -0.3027 -0.2359
12750SOL    HW238829   9.028   4.674   4.040 -2.0215  0.4733 -0.6241
12751SOL     OW38830   7.424   5.719   7.902  0.0782  0.1193 -0.3474
12751SOL    HW138831   7.423   5.815   7.901 -0.0501  0.1171 -0.4345
12751SOL    HW238832   7.369   5.694   7.828  0.1564 -0.0224 -0.3576
12752SOL     OW38833   1.546   2.157   0.747 -0.4885 -0.1264 -0.3031
12752SOL    HW138834   1.639   2.179   0.742 -0.7925  1.3000 -0.1545
12752SOL    HW238835   1.544   2.064   0.770  0.9223  0.3244  1.9730
12753SOL     OW38836   0.979   0.230   4.530 -0.0391  0.1520  0.1920
12753SOL    HW138837   0.938   0.317   4.523  0.4302  0.4415  0.9293
12753SOL    HW238838   0.906   0.169   4.521 -0.3774  0.6207 -0.3349
12754SOL     OW38839   4.103   2.242   0.208  0.3109  0.4176 -0.0363
12754SOL    HW138840   4.048   2.200   0.142  2.7688 -0.8947 -1.3634
12754SOL    HW238841   4.103   2.181   0.282  1.4038 -0.4793 -0.7546
12755SOL     OW38842   4.451   2.284   9.027 -0.6017  0.4652  0.2006
12755SOL    HW138843   4.511   2.355   9.002 -1.2785  0.8134 -0.4513
12755SOL    HW238844   4.504   2.227   9.083  0.8539 -0.1370 -1.7059
12756SOL     OW38845   1.892   6.604   6.835 -0.0240  0.8281 -0.5549
12756SOL    HW138846   1.821   6.654   6.874 -0.5699  0.6126 -1.2702
12756SOL    HW238847   1.854   6.565   6.757  0.9669  0.9507 -1.1055
12757SOL     OW38848   7.009   3.897   8.600 -0.1360 -0.0119  0.2378
12757SOL    HW138849   6.966   3.890   8.686  0.2630  0.9989  0.5328
12757SOL    HW238850   6.951   3.849   8.541 -1.8001  1.4325  0.5820
12758SOL     OW38851   8.228   5.952   8.803 -0.3376 -0.3657 -0.5102
12758SOL    HW138852   8.231   6.036   8.848 -0.5689 -1.3171  1.3751
12758SOL    HW238853   8.237   5.974   8.710 -1.9816  1.8541 -0.2225
12759SOL     OW38854   2.764   2.352   0.052 -0.1369 -0.1745 -0.5590
12759SOL    HW138855   2.711   2.273   0.060 -0.5279  0.1881  0.5685
12759SOL    HW238856   2.849   2.320   0.022 -0.5221 -0.9272 -0.8882
12760SOL     OW38857   3.245   4.337   2.047 -0.0050 -1.1099  0.4119
12760SOL    HW138858   3.286   4.347   2.133 -0.1252  0.7512  0.2828
12760SOL    HW238859   3.186   4.411   2.039 -2.6491 -3.0944  0.1158
12761SOL     OW38860   6.065   6.788   2.712  0.4801 -0.2896  0.4214
12761SOL    HW138861   6.097   6.771   2.623  0.1347  0.7268  0.0819
12761SOL    HW238862   6.022   6.873   2.705 -2.5733 -1.6724  0.7633
12762SOL     OW38863   3.456   7.177   5.514 -0.1294  0.7618 -0.6667
12762SOL    HW138864   3.458   7.096   5.462  1.6686 -1.1841  2.2058
12762SOL    HW238865   3.547   7.202   5.524 -0.4081  1.1555  1.3443
12763SOL     OW38866   4.047   8.170   9.102  0.5699 -0.2871  0.1414
12763SOL    HW138867   4.026   8.156   9.195  3.3289  0.7040  0.9978
12763SOL    HW238868   4.058   8.081   9.067 -2.7607 -0.7935  0.0684
12764SOL     OW38869   7.579   1.486   7.243  0.1357  0.1191  0.9286
12764SOL    HW138870   7.604   1.398   7.271  2.0358  0.5815  0.7961
12764SOL    HW238871   7.660   1.536   7.242 -0.6166  1.4429 -0.6129
12765SOL     OW38872   3.465   8.499   7.403 -0.3327  0.0440  0.1553
12765SOL    HW138873   3.383   8.505   7.355 -1.9262 -0.1198  2.7132
12765SOL    HW238874   3.499   8.412   7.383 -0.1992  0.4975 -1.7328
12766SOL     OW38875   8.308   7.847   4.928  0.0730 -0.6692  0.1027
12766SOL    HW138876   8.243   7.830   4.997 -1.7889  1.1944 -1.0350
12766SOL    HW238877   8.392   7.827   4.968 -0.8682  0.8475  3.1309
12767SOL     OW38878   5.689   7.324   6.785 -0.3225  0.2076 -0.6481
12767SOL    HW138879   5.608   7.343   6.737  1.1363  0.5944 -3.1262
12767SOL    HW238880   5.727   7.410   6.802 -1.5235  0.2073  2.7697
12768SOL     OW38881   8.712   0.889   6.626 -0.2091 -1.0255  0.0677
12768SOL    HW138882   8.652   0.942   6.573  0.0727 -1.6325 -0.8950
12768SOL    HW238883   8.698   0.800   6.595 -0.1733 -1.4250  1.1774
12769SOL     OW38884   0.485   7.290   8.179 -0.4493 -0.5865 -0.0809
12769SOL    HW138885   0.485   7.380   8.210  0.4598 -0.8067  0.6253
12769SOL    HW238886   0.420   7.245   8.234 -0.2725 -0.5466  0.1614
12770SOL     OW38887   7.003   6.695   8.677  0.2851  0.0849 -0.0392
12770SOL    HW138888   6.984   6.711   8.584 -0.6164 -0.7426 -0.0151
12770SOL    HW238889   6.942   6.752   8.724  0.2182 -0.0554  0.0452
12771SOL     OW38890   2.807   7.837   7.601  0.1441  0.0050  0.0256
12771SOL    HW138891   2.811   7.755   7.649 -1.7219  1.3355  2.7342
12771SOL    HW238892   2.743   7.820   7.531 -0.3841 -0.8231  0.6808
12772SOL     OW38893   1.858   4.245   6.620  0.1838  0.1436 -0.0730
12772SOL    HW138894   1.855   4.150   6.624  2.2413 -0.0669 -1.6712
12772SOL    HW238895   1.928   4.264   6.558 -0.3378  2.7129  0.0141
12773SOL     OW38896   5.771   6.089   3.848  0.3380 -0.9193 -0.0016
12773SOL    HW138897   5.733   6.111   3.934  0.5404  1.0348 -0.3567
12773SOL    HW238898   5.695   6.070   3.793  0.0504 -0.1547  0.1085
12774SOL     OW38899   5.759   1.814   6.065 -0.5942 -0.4401  0.1915
12774SOL    HW138900   5.760   1.833   6.159 -0.2194 -0.9401  0.2934
12774SOL    HW238901   5.847   1.839   6.035 -0.8963  0.2535 -0.1417
12775SOL     OW38902   4.399   8.618   5.260 -0.2548  0.1696  0.1786
12775SOL    HW138903   4.400   8.554   5.331 -0.3566  0.2037  0.2101
12775SOL    HW238904   4.342   8.688   5.290  0.9590  0.9534  0.7283
12776SOL     OW38905   7.926   9.771   9.419  0.3722 -0.7612 -0.1239
12776SOL    HW138906   7.866   9.837   9.455 -0.6505 -1.1406 -1.0721
12776SOL    HW238907   7.893   9.688   9.452  1.1072 -0.8781  0.3194
12777SOL     OW38908   8.235   1.514   2.345  0.0888 -0.4058 -0.7010
12777SOL    HW138909   8.263   1.505   2.254  1.3025 -1.0723 -0.2879
12777SOL    HW238910   8.203   1.604   2.352 -1.5853 -0.8174 -2.1695
12778SOL     OW38911   4.385   8.795   2.323  0.3170 -0.0961  0.6582
12778SOL    HW138912   4.425   8.881   2.333  0.0401 -0.0725  1.6812
12778SOL    HW238913   4.362   8.769   2.412 -0.5011 -0.7979  0.2580
12779SOL     OW38914   0.108   6.271   0.950  0.1865  0.5455  0.4747
12779SOL    HW138915   0.156   6.352   0.933 -0.0653  0.7582  0.7749
12779SOL    HW238916   0.036   6.297   1.008  0.2767  0.0509  0.8090
12780SOL     OW38917   1.012   7.379   7.556 -0.0834  0.1738  0.8137
12780SOL    HW138918   0.973   7.348   7.474 -0.2986 -0.6506  1.2202
12780SOL    HW238919   1.062   7.304   7.589  0.6598  0.7564  1.0342
12781SOL     OW38920   3.795   3.834   8.328  0.3769 -0.0975  0.0383
12781SOL    HW138921   3.836   3.847   8.413 -0.6998 -1.3026  0.7746
12781SOL    HW238922   3.864   3.851   8.264  1.3896  0.0890  1.1659
12782SOL     OW38923   5.809   3.194   8.186  0.0988  0.6076  0.1418
12782SOL    HW138924   5.725   3.167   8.150  0.3829  0.5259 -0.4591
12782SOL    HW238925   5.794   3.284   8.218 -0.4266  0.3086  0.7654
12783SOL     OW38926   5.961   8.200   3.306  0.3431  0.5481  0.2275
12783SOL    HW138927   6.053   8.174   3.315  0.2061 -0.7174 -1.5742
12783SOL    HW238928   5.920   8.170   3.387  1.3078  0.1592  0.5906
12784SOL     OW38929   6.895   0.868   1.654  0.2217 -0.1537  0.0250
12784SOL    HW138930   6.937   0.816   1.586 -0.3704  0.1145 -0.5609
12784SOL    HW238931   6.802   0.867   1.631  0.0301  0.0258  0.7726
12785SOL     OW38932   1.254   4.225   9.040 -0.0065 -0.6968 -0.1042
12785SOL    HW138933   1.194   4.296   9.064  1.8606  0.8934  0.0412
12785SOL    HW238934   1.241   4.214   8.946  2.1468  2.3801 -0.9058
12786SOL     OW38935   0.973   3.660   6.593 -0.1155 -0.3098  0.0974
12786SOL    HW138936   0.907   3.722   6.560 -0.6851 -1.9658 -2.1256
12786SOL    HW238937   1.017   3.707   6.664  0.5536  3.2462 -2.4253
12787SOL     OW38938   0.344   3.010   1.032 -0.0362  0.2097 -0.7847
12787SOL    HW138939   0.398   3.074   1.079  1.0440 -0.9692 -0.3424
12787SOL    HW238940   0.255   3.028   1.061  0.2035  1.6847 -0.8937
12788SOL     OW38941   1.059   1.309   8.560 -0.3732  0.3852  0.8166
12788SOL    HW138942   1.010   1.274   8.486  0.2941 -0.8750  0.9315
12788SOL    HW238943   1.041   1.403   8.560 -1.5381  0.1738 -0.0561
12789SOL     OW38944   6.727   5.928   1.868 -0.0048  0.1518  0.1437
12789SOL    HW138945   6.783   5.912   1.791  0.9091  3.1280  0.0418
12789SOL    HW238946   6.638   5.912   1.837  0.4995 -0.9081 -0.8458
12790SOL     OW38947   9.921   2.546   5.595 -0.3268 -0.2733  0.7159
12790SOL    HW138948   9.933   2.508   5.682  2.7927 -0.2515  0.4088
12790SOL    HW238949   9.945   2.638   5.606  0.2292 -0.2985 -0.1843
12791SOL     OW38950   9.732   5.079   5.700  0.0632  0.0044  0.1552
12791SOL    HW138951   9.813   5.036   5.673 -0.4034  0.3292 -1.9697
12791SOL    HW238952   9.687   5.013   5.753  0.7126 -1.0281 -0.5211
12792SOL     OW38953   2.352   7.187   0.034 -0.2653  0.4332  0.2579
12792SOL    HW138954   2.344   7.281   0.015  1.1268  0.2157 -1.7606
12792SOL    HW238955   2.276   7.148  -0.009  0.7646  0.3819 -1.6574
12793SOL     OW38956   6.492   3.171   0.157  0.2804 -0.0052  0.2214
12793SOL    HW138957   6.517   3.220   0.236 -1.5251  0.5326  0.4901
12793SOL    HW238958   6.467   3.085   0.190  1.5395 -0.4985 -0.0361
12794SOL     OW38959   3.675   6.892   9.255 -0.1253 -0.0972 -0.4716
12794SOL    HW138960   3.770   6.904   9.262  0.0099 -0.2304 -1.7331
12794SOL    HW238961   3.664   6.801   9.228 -0.5294  0.2100 -1.4054
12795SOL     OW38962   3.959   1.989   7.358 -0.0788 -0.4531  0.6104
12795SOL    HW138963   3.997   1.932   7.425 -1.5270 -1.4281  0.6398
12795SOL    HW238964   3.982   1.946   7.275 -0.3198 -0.5424  0.5893
12796SOL     OW38965   3.484   7.610   6.564  0.2799  0.4040 -0.6398
12796SOL    HW138966   3.514   7.605   6.654  0.1751  2.6124 -0.4281
12796SOL    HW238967   3.423   7.684   6.563 -0.6348 -0.3107 -2.2825
12797SOL     OW38968   0.252  -0.032   4.436 -0.0257  0.2288  0.1186
12797SOL    HW138969   0.221   0.054   4.409 -0.5647  0.5321  1.6374
12797SOL    HW238970   0.297  -0.018   4.519  0.2289 -0.8986  0.1985
12798SOL     OW38971   4.271   6.412   8.182  0.2194 -0.1907  0.4409
12798SOL    HW138972   4.235   6.383   8.099  1.0088  0.2559 -0.0706
12798SOL    HW238973   4.275   6.333   8.236  2.3992 -1.1097 -0.9478
12799SOL     OW38974   9.656   4.276   1.490  0.0494 -0.7339  0.3637
12799SOL    HW138975   9.691   4.326   1.417  0.8689 -0.2636  1.0655
12799SOL    HW238976   9.733   4.247   1.538 -0.4913 -0.5075  1.3869
12800SOL     OW38977   9.710   8.921   6.511  0.0947  0.1713  0.2801
12800SOL    HW138978   9.717   8.882   6.598  0.5604  2.1315  1.1702
12800SOL    HW238979   9.619   8.949   6.505  0.5480  1.9363  1.0424
12801SOL     OW38980   5.932   8.910   4.150 -0.5829  0.2321 -0.4473
12801SOL    HW138981   5.864   8.845   4.132 -0.7842  0.7225 -1.5999
12801SOL    HW238982   5.943   8.955   4.066  0.0072  1.2452  0.1637
12802SOL     OW38983   1.894   2.041   4.027  0.2110 -0.6757  0.4089
12802SOL    HW138984   1.912   2.127   4.065 -0.4096  1.2704 -3.2906
12802SOL    HW238985   1.806   2.020   4.057 -0.3865  0.9324 -0.1147
12803SOL     OW38986   0.957   8.333   9.153 -0.2396  0.3427  0.3139
12803SOL    HW138987   1.051   8.342   9.137  0.1728 -1.4923  1.4483
12803SOL    HW238988   0.919   8.316   9.067  0.6626 -0.3356  0.0382
12804SOL     OW38989   5.232   8.219   6.785 -0.2204  0.3243 -0.9384
12804SOL    HW138990   5.153   8.185   6.827  0.3259 -0.3305 -0.4069
12804SOL    HW238991   5.293   8.233   6.857 -0.5413  2.9140 -1.0607
12805SOL     OW38992   7.039   4.207   7.065 -0.4273  0.0571  0.5975
12805SOL    HW138993   6.998   4.234   6.983 -1.0323 -3.2749 -0.3359
12805SOL    HW238994   7.131   4.230   7.055 -0.7887  1.2609 -0.2246
12806SOL     OW38995   6.461   6.912   6.140 -0.8640  0.6474 -0.5142
12806SOL    HW138996   6.444   6.994   6.094 -1.8246  0.0284 -1.3241
12806SOL    HW238997   6.381   6.860   6.127 -0.1569 -0.5432 -0.3037
12807SOL     OW38998   4.124   7.072   5.593 -0.6682  0.1885 -0.1806
12807SOL    HW138999   4.068   7.059   5.517  0.3420  0.5197 -1.0068
12807SOL    HW239000   4.206   7.104   5.557  0.3222 -0.9870  0.9252
12808SOL     OW39001   9.007   8.541   7.332  0.2517  0.1576 -0.3255
12808SOL    HW139002   9.040   8.472   7.274  1.2569  0.7654 -0.4884
12808SOL    HW239003   9.008   8.502   7.419  2.6298  0.5295 -0.1184
12809SOL     OW39004   4.226   9.704   1.206  0.0372  0.2463 -0.1317
12809SOL    HW139005   4.159   9.762   1.243 -0.4697 -1.1541  1.2431
12809SOL    HW239006   4.178   9.643   1.150  0.1629 -0.6315  0.6937
12810SOL     OW39007   8.677   5.044   6.931  0.4563 -0.0004  0.0017
12810SOL    HW139008   8.703   5.054   6.839  0.0448 -0.1675 -0.1363
12810SOL    HW239009   8.648   5.132   6.957 -2.0890 -0.4809 -0.8755
12811SOL     OW39010   3.520   1.285   9.785  0.6391  0.0056 -0.4667
12811SOL    HW139011   3.483   1.333   9.711 -0.0477  0.2308  0.0205
12811SOL    HW239012   3.470   1.315   9.861  1.3622 -0.1931  0.1008
12812SOL     OW39013   8.505   1.251   6.348 -0.2858 -0.3624 -0.3458
12812SOL    HW139014   8.501   1.265   6.254 -1.4273  0.0672 -0.2518
12812SOL    HW239015   8.434   1.304   6.383 -0.3306 -1.0771  0.6942
12813SOL     OW39016   5.188   8.918   6.011 -0.4625 -0.1267  0.0979
12813SOL    HW139017   5.272   8.891   5.973 -1.1873 -0.0158 -1.7170
12813SOL    HW239018   5.187   9.013   6.001  0.9790  0.4756  4.1077
12814SOL     OW39019   5.766   3.445   6.923  0.5163 -0.5138 -0.1963
12814SOL    HW139020   5.770   3.531   6.880  0.2181 -0.3298  0.1354
12814SOL    HW239021   5.679   3.442   6.963  0.7927 -0.6689  0.4097
12815SOL     OW39022   8.730   6.035   9.767 -0.1541 -0.0453 -0.4248
12815SOL    HW139023   8.717   5.971   9.838 -0.1593 -0.0910 -0.4665
12815SOL    HW239024   8.651   6.028   9.714 -0.5348  0.5850  0.0344
12816SOL     OW39025   2.247   2.381   4.379 -0.3789 -0.2108 -0.6961
12816SOL    HW139026   2.203   2.438   4.442  0.7329 -1.1685  1.0291
12816SOL    HW239027   2.255   2.297   4.425  1.2102 -0.6977 -1.8040
12817SOL     OW39028   7.805   1.987   6.929 -0.1976  0.1778 -0.3457
12817SOL    HW139029   7.867   2.030   6.988  0.0727  3.7071 -2.8956
12817SOL    HW239030   7.850   1.986   6.844 -2.6732  0.6046 -1.7594
12818SOL     OW39031   9.666   1.597   2.207 -0.0108 -0.1386  0.1092
12818SOL    HW139032   9.573   1.582   2.193 -0.1666  1.9870 -1.7578
12818SOL    HW239033   9.671   1.678   2.257  0.8625 -0.4719  0.6024
12819SOL     OW39034   2.824   5.733   4.936 -0.1402 -0.3795 -0.2389
12819SOL    HW139035   2.919   5.743   4.936 -0.2559  1.0777  1.3260
12819SOL    HW239036   2.805   5.684   5.016 -0.6840 -1.0043 -0.7430
12820SOL     OW39037   2.939   2.735   2.970  0.4839  0.4068 -0.0942
12820SOL    HW139038   3.007   2.785   2.924  0.4135 -0.1628 -0.8372
12820SOL    HW239039   2.988   2.678   3.029  0.5915  0.8417  0.2482
12821SOL     OW39040   3.867   9.684   7.958 -0.0410  0.2928 -0.5309
12821SOL    HW139041   3.915   9.765   7.978  0.8142  0.6166 -3.4405
12821SOL    HW239042   3.776   9.712   7.949 -0.0887  0.5206  0.5044
12822SOL     OW39043   8.643   5.379   4.036 -0.0088  0.1517 -0.2107
12822SOL    HW139044   8.671   5.462   3.998 -2.0165  0.6380 -0.7579
12822SOL    HW239045   8.587   5.340   3.969  0.3982 -1.3694  0.2915
12823SOL     OW39046   2.188   7.387   0.571  0.3386  0.4827 -0.4132
12823SOL    HW139047   2.210   7.294   0.564  1.4303  0.6373  0.5573
12823SOL    HW239048   2.110   7.390   0.625  0.7027  0.1453  0.1439
12824SOL     OW39049   3.641   5.316   8.006 -0.3099  0.1832  0.3408
12824SOL    HW139050   3.590   5.392   8.034 -1.1275 -0.6022  1.0410
12824SOL    HW239051   3.717   5.353   7.963 -1.5043  1.3961 -0.8176
12825SOL     OW39052   1.069   1.951   1.307 -0.2672 -0.5789 -0.2160
12825SOL    HW139053   1.132   1.946   1.378  0.8424  0.0453 -1.1238
12825SOL    HW239054   1.095   1.881   1.247 -1.5369 -1.4690  0.2347
12826SOL     OW39055   5.510   8.811   5.301  0.3060 -0.4643  0.3785
12826SOL    HW139056   5.434   8.804   5.243 -1.2830 -2.0135  2.4804
12826SOL    HW239057   5.584   8.827   5.242 -1.5518  0.7244 -1.7968
12827SOL     OW39058   8.952   8.795   1.436  0.1514 -0.4207 -0.5741
12827SOL    HW139059   8.927   8.705   1.460 -0.1053 -0.4650 -0.9973
12827SOL    HW239060   8.956   8.842   1.519 -0.9011 -0.5320 -0.4497
12828SOL     OW39061   6.196   2.299   6.586  0.3304 -0.3207 -0.2446
12828SOL    HW139062   6.200   2.226   6.648 -0.3788 -1.0625 -1.0452
12828SOL    HW239063   6.288   2.322   6.571  0.5035  0.8349  2.1453
12829SOL     OW39064   1.838   8.482   3.661 -0.4478  0.0891 -0.0842
12829SOL    HW139065   1.906   8.428   3.622 -0.8866  0.3374 -1.2479
12829SOL    HW239066   1.806   8.431   3.736 -1.0756 -1.4227 -1.3271
12830SOL     OW39067   3.101   5.927   2.297  0.1081  0.2125  0.6662
12830SOL    HW139068   3.146   5.854   2.254 -1.0622  0.7156 -1.5705
12830SOL    HW239069   3.172   5.983   2.329  1.0149 -1.4042  1.6122
12831SOL     OW39070   3.334   5.667   7.472  0.3818  0.1219 -0.8028
12831SOL    HW139071   3.417   5.626   7.496  0.6056  2.2596  2.7048
12831SOL    HW239072   3.267   5.609   7.507  0.4497 -0.1783 -1.1538
12832SOL     OW39073   2.034   6.347   9.508 -0.2065 -0.1276  0.0893
12832SOL    HW139074   2.055   6.282   9.441  0.2154 -0.7070  0.7715
12832SOL    HW239075   2.024   6.429   9.459  0.6938 -0.4174 -0.6232
12833SOL     OW39076   9.445   5.257   0.268 -0.1221 -0.1543  0.1714
12833SOL    HW139077   9.472   5.349   0.271 -2.2682  0.5336  0.3217
12833SOL    HW239078   9.450   5.228   0.359  1.0805 -0.3644  0.0450
12834SOL     OW39079   3.902   9.045   6.998 -0.4452  0.2984 -0.0409
12834SOL    HW139080   3.829   9.026   7.056 -0.4492  1.4755  0.3685
12834SOL    HW239081   3.936   8.960   6.973 -0.3607 -0.2453  1.7905
12835SOL     OW39082   8.079   8.162   8.599  0.4245  0.3849  0.1070
12835SOL    HW139083   8.154   8.104   8.590 -1.1908 -2.2599  2.1243
12835SOL    HW239084   8.061   8.193   8.510  2.0647 -1.3103 -0.8743
12836SOL     OW39085   7.337   9.480   3.438 -0.2148  0.3515  0.5969
12836SOL    HW139086   7.258   9.485   3.492 -0.5726 -0.0112  0.1053
12836SOL    HW239087   7.317   9.415   3.371 -0.3148  1.8764 -0.8925
12837SOL     OW39088   3.706   1.182   7.830  0.5181 -0.5782  0.6228
12837SOL    HW139089   3.758   1.103   7.847 -0.2767 -1.2733 -0.1239
12837SOL    HW239090   3.770   1.253   7.831  1.0533 -0.9963  2.8699
12838SOL     OW39091   7.232   4.827   0.150  0.5376 -0.2763  0.1320
12838SOL    HW139092   7.236   4.731   0.149  1.4633 -0.2513 -0.8008
12838SOL    HW239093   7.184   4.849   0.070  2.9456  0.0722 -1.3288
12839SOL     OW39094   0.925   5.538   4.742  0.6105 -0.1798 -0.1532
12839SOL    HW139095   1.009   5.546   4.697  0.7729 -0.0519  0.1670
12839SOL    HW239096   0.923   5.447   4.773  0.5363 -0.2433 -0.3468
12840SOL     OW39097   5.941   7.901   8.132  0.1375  0.1214 -0.5852
12840SOL    HW139098   6.035   7.888   8.118  0.3558  0.8492  0.1312
12840SOL    HW239099   5.905   7.812   8.134  1.0726 -0.2570  0.7835
12841SOL     OW39100   2.748   4.062   5.466 -0.0991  0.3915  0.6914
12841SOL    HW139101   2.676   4.000   5.454  0.6977 -0.7789  1.6958
12841SOL    HW239102   2.722   4.114   5.542 -0.8455  1.4562 -0.2521
12842SOL     OW39103   5.642   2.576   0.688 -0.1159 -0.1021  0.2675
12842SOL    HW139104   5.603   2.637   0.626 -1.5050  0.0165  1.1897
12842SOL    HW239105   5.580   2.574   0.761 -0.8259 -3.5692 -0.2479
12843SOL     OW39106   0.207   4.262   8.530  0.5940  0.2089  0.3957
12843SOL    HW139107   0.163   4.246   8.613  0.9634 -0.8315  0.3994
12843SOL    HW239108   0.137   4.291   8.471  0.0122 -0.7904  0.5820
12844SOL     OW39109   1.818   4.850   2.915 -0.3631  0.4762  0.3089
12844SOL    HW139110   1.888   4.903   2.953  1.3852 -1.8625  0.6372
12844SOL    HW239111   1.843   4.840   2.823 -0.2414 -0.3807  0.4287
12845SOL     OW39112   2.129   3.646   0.927  0.5613 -0.1460 -0.6447
12845SOL    HW139113   2.081   3.576   0.973 -1.2218  0.6108 -1.2447
12845SOL    HW239114   2.145   3.610   0.840 -1.4536  0.5456 -1.3731
12846SOL     OW39115   1.588   5.384   0.067 -0.4549  0.3333  0.5316
12846SOL    HW139116   1.548   5.404   0.152 -0.2652  0.4609  0.5922
12846SOL    HW239117   1.631   5.299   0.081 -0.8924  0.0888  0.4007
12847SOL     OW39118   2.946   8.521   2.623  0.2533 -0.3502  0.2340
12847SOL    HW139119   2.882   8.450   2.626 -0.1500 -0.0233 -0.2663
12847SOL    HW239120   2.933   8.560   2.536 -0.1824  0.9175  0.8496
12848SOL     OW39121   4.893   2.020   8.591 -0.2789 -0.1374  0.0772
12848SOL    HW139122   4.809   2.050   8.559  0.0226  2.8028  1.7174
12848SOL    HW239123   4.948   2.014   8.512 -1.4656 -0.2432 -0.7717
12849SOL     OW39124   6.220   6.272   1.502 -0.1498 -0.6533  0.4035
12849SOL    HW139125   6.311   6.244   1.499  0.3519  0.9199 -0.3770
12849SOL    HW239126   6.216   6.349   1.444 -1.9820 -0.7229  0.3562
12850SOL     OW39127   0.220   3.388   2.755 -0.0040  0.7368 -0.1792
12850SOL    HW139128   0.153   3.350   2.699 -0.0319 -0.5640  0.6804
12850SOL    HW239129   0.291   3.323   2.755 -0.6499 -0.0893  2.4781
12851SOL     OW39130   1.852   4.958   4.530  0.1552  0.4189  0.4057
12851SOL    HW139131   1.903   4.959   4.449 -1.0522 -0.2372 -0.3974
12851SOL    HW239132   1.763   4.983   4.502  0.3598  3.3810  2.0284
12852SOL     OW39133   0.282   4.944   0.908 -0.3015 -0.1410  0.0542
12852SOL    HW139134   0.236   5.022   0.940  1.0444  0.8323 -0.2787
12852SOL    HW239135   0.354   4.932   0.971  0.6171  0.0252 -0.9366
12853SOL     OW39136   2.518   6.058   0.760 -0.1031 -0.0581 -0.2321
12853SOL    HW139137   2.485   5.968   0.768 -1.2453  0.2675 -0.9509
12853SOL    HW239138   2.461   6.110   0.817 -0.8638  0.5047 -1.4438
12854SOL     OW39139   5.993   0.224   5.332  0.0426 -0.4094 -0.7015
12854SOL    HW139140   5.944   0.162   5.386 -2.1633  2.2281  0.5464
12854SOL    HW239141   6.004   0.301   5.388  1.9289  0.6821 -2.4503
12855SOL     OW39142   0.771   6.195   7.033  0.6037  0.0273 -0.2486
12855SOL    HW139143   0.707   6.158   7.093 -0.5877  0.7172 -1.0611
12855SOL    HW239144   0.764   6.142   6.954 -0.7078  1.5302 -1.2102
12856SOL     OW39145   7.126   4.541   7.286  0.3213 -0.2014 -0.4172
12856SOL    HW139146   7.098   4.495   7.366 -0.1437 -1.1690 -1.1125
12856SOL    HW239147   7.189   4.606   7.316 -1.3527  0.8632  1.0051
12857SOL     OW39148   0.045   3.824   2.238 -0.7172 -0.3578 -0.0438
12857SOL    HW139149  -0.029   3.798   2.183 -0.6440 -0.5383 -0.0571
12857SOL    HW239150   0.054   3.752   2.300 -0.7502 -0.1897  0.1560
12858SOL     OW39151   1.470   0.498   2.272 -0.3547 -0.6770  0.2677
12858SOL    HW139152   1.550   0.472   2.227 -0.4716 -0.6494  0.0409
12858SOL    HW239153   1.421   0.416   2.284 -0.0735 -0.7607  0.8397
12859SOL     OW39154   9.840   9.073   6.247  0.9823 -0.0033 -0.0067
12859SOL    HW139155   9.813   8.986   6.275  2.0295 -0.5432 -0.5913
12859SOL    HW239156   9.905   9.100   6.313 -1.6430  1.7873  2.0816
12860SOL     OW39157   1.191   1.917   6.401 -0.1109  0.0737  0.1287
12860SOL    HW139158   1.210   1.990   6.342 -2.5117 -0.4736 -1.4687
12860SOL    HW239159   1.257   1.923   6.470  1.8428  1.7008 -1.7705
12861SOL     OW39160   2.273   5.877   1.589  0.2888  0.5437 -0.2193
12861SOL    HW139161   2.299   5.948   1.649  2.6644  1.4985 -2.2180
12861SOL    HW239162   2.234   5.922   1.515  0.9550 -0.2859 -1.0906
12862SOL     OW39163   8.298   2.826   8.240  0.2213  0.0916  0.1171
12862SOL    HW139164   8.288   2.914   8.205  0.0499 -0.4034 -1.1659
12862SOL    HW239165   8.388   2.823   8.273  0.1775  0.7826  0.3170
12863SOL     OW39166   3.884   6.093   2.860  0.0697 -0.2420  0.5232
12863SOL    HW139167   3.838   6.143   2.794 -0.6001  0.7595  1.7132
12863SOL    HW239168   3.836   6.011   2.867 -1.1392  0.5049  1.2455
12864SOL     OW39169   6.517   7.623   9.346 -0.4823  0.5501 -0.8841
12864SOL    HW139170   6.554   7.581   9.424 -0.6817  0.3178 -0.9113
12864SOL    HW239171   6.561   7.579   9.273 -0.7063  0.3682 -0.9128
12865SOL     OW39172   2.697   7.850   5.976 -0.1061  0.2959  0.7209
12865SOL    HW139173   2.644   7.802   6.039  1.0919  0.7777  2.1733
12865SOL    HW239174   2.663   7.939   5.979  1.5199  0.9529  2.6980
12866SOL     OW39175   9.956   7.211   6.810 -0.3508 -1.1618 -0.3629
12866SOL    HW139176  10.018   7.168   6.869  1.3106  0.1496 -1.0625
12866SOL    HW239177   9.885   7.239   6.867 -0.3005 -2.6255  0.4829
12867SOL     OW39178   0.757   0.365   2.827  0.4113  0.2621  0.2864
12867SOL    HW139179   0.713   0.417   2.760 -0.4657 -1.4175 -0.4974
12867SOL    HW239180   0.709   0.282   2.829  2.2830 -0.8664  0.8797
12868SOL     OW39181   5.343   6.073   5.640 -0.4514  0.3856 -0.2517
12868SOL    HW139182   5.313   6.158   5.608  0.3078  1.3212  1.3434
12868SOL    HW239183   5.435   6.088   5.662 -0.3103 -0.8529  0.0544
12869SOL     OW39184   0.182   4.922   4.613 -0.0371  0.0924 -0.6654
12869SOL    HW139185   0.243   4.968   4.555 -1.5915  2.2700 -0.6893
12869SOL    HW239186   0.125   4.872   4.555  0.2868 -0.1356 -0.7889
12870SOL     OW39187   2.870   2.315   2.987  0.1963  0.7560  0.2878
12870SOL    HW139188   2.852   2.391   3.042  2.6271  1.8867 -0.3627
12870SOL    HW239189   2.893   2.245   3.049 -2.1980  0.4178  0.8972
12871SOL     OW39190   0.491   5.510   1.420  0.2826  0.3940  0.4733
12871SOL    HW139191   0.480   5.605   1.431 -3.1941 -0.0435  2.0362
12871SOL    HW239192   0.489   5.496   1.325 -0.8296  1.7615  0.2706
12872SOL     OW39193   2.173   8.277   5.001  0.3452 -0.0482 -0.7682
12872SOL    HW139194   2.231   8.251   4.930 -0.1187 -0.1428 -1.1158
12872SOL    HW239195   2.180   8.372   5.004 -1.0022  0.1204 -2.1355
12873SOL     OW39196   5.573   2.442   2.234  0.3199 -0.0593  0.3916
12873SOL    HW139197   5.647   2.480   2.282  1.1399 -0.2580 -0.6816
12873SOL    HW239198   5.586   2.347   2.240  2.0964 -0.1286 -2.5880
12874SOL     OW39199   9.394   6.083   3.519 -0.1058 -0.6927  0.2632
12874SOL    HW139200   9.312   6.033   3.517  0.2722 -1.3019 -2.1652
12874SOL    HW239201   9.445   6.049   3.446  0.1841  3.1825 -1.6133
12875SOL     OW39202   6.558   2.776   1.751  0.2702 -0.4952 -0.7125
12875SOL    HW139203   6.586   2.851   1.699  0.3074 -0.6658 -0.9422
12875SOL    HW239204   6.581   2.799   1.841 -1.4847  0.6158 -0.4997
12876SOL     OW39205   0.265   8.235   9.518  0.0779  0.5235  0.6613
12876SOL    HW139206   0.203   8.305   9.498 -0.2553  0.2320  0.6565
12876SOL    HW239207   0.310   8.264   9.597  0.6650  1.2073  0.0949
12877SOL     OW39208   3.594   8.501   2.108 -0.0462 -0.0529  0.3730
12877SOL    HW139209   3.570   8.507   2.015 -1.4830  4.3301  0.8036
12877SOL    HW239210   3.533   8.436   2.144 -1.5265  0.3589 -1.2311
12878SOL     OW39211   7.654   5.830   1.282  0.5957  0.6923 -0.1336
12878SOL    HW139212   7.601   5.752   1.263 -0.8120  1.2104  1.3436
12878SOL    HW239213   7.689   5.814   1.369  0.3598  1.6480  0.1523
12879SOL     OW39214   4.586   1.988   1.208 -0.0767 -0.3837  0.1105
12879SOL    HW139215   4.547   1.990   1.121 -0.2037 -0.9096  0.1518
12879SOL    HW239216   4.679   2.006   1.193 -0.0712 -0.6191 -0.1519
12880SOL     OW39217   8.544   5.394   2.541 -0.1047 -0.4727 -0.0743
12880SOL    HW139218   8.450   5.384   2.548 -0.3350  0.8993 -0.8728
12880SOL    HW239219   8.575   5.400   2.632 -0.9075  0.0461  0.1724
12881SOL     OW39220   8.608   0.543   0.002  0.1577 -0.2734 -0.5159
12881SOL    HW139221   8.557   0.610   0.048  0.9605 -0.6014  0.9011
12881SOL    HW239222   8.587   0.461   0.047  0.0869 -0.8140 -1.4928
12882SOL     OW39223   5.885   5.241   1.199 -0.2660  0.2326 -0.3672
12882SOL    HW139224   5.813   5.261   1.259  0.9898  1.6104  0.7709
12882SOL    HW239225   5.964   5.272   1.245  0.8141  0.8156 -2.4865
12883SOL     OW39226   1.261   8.205   5.127 -0.2067  0.0420  0.3770
12883SOL    HW139227   1.210   8.241   5.055 -0.2145  0.8784  0.7877
12883SOL    HW239228   1.310   8.280   5.162  0.9981 -0.6522  0.2483
12884SOL     OW39229   1.914   7.630   6.368 -0.4784  0.6068  0.0092
12884SOL    HW139230   1.989   7.598   6.419  0.5015  0.0382 -1.6897
12884SOL    HW239231   1.874   7.698   6.423  1.0047  0.6007  1.1585
12885SOL     OW39232   9.665   0.546   6.341  0.3213  0.3111 -0.4315
12885SOL    HW139233   9.696   0.470   6.390  0.4769  0.4521 -0.3110
12885SOL    HW239234   9.664   0.617   6.405 -0.3944  0.2781 -0.3941
12886SOL     OW39235   3.210   9.372   8.901 -0.5542  0.3459  0.5693
12886SOL    HW139236   3.153   9.419   8.840 -0.4064  3.0429  2.3460
12886SOL    HW239237   3.151   9.343   8.971 -0.4541 -1.1915  0.0438
12887SOL     OW39238   0.622   8.476   2.556  0.3231  0.2500 -0.3415
12887SOL    HW139239   0.696   8.456   2.613 -0.1805 -1.7858 -0.3225
12887SOL    HW239240   0.640   8.428   2.475 -1.0654 -0.4673 -0.2541
12888SOL     OW39241   4.569   5.491   8.412 -0.0235  0.1703  0.0115
12888SOL    HW139242   4.539   5.449   8.331 -0.6631 -1.0404  0.8387
12888SOL    HW239243   4.655   5.451   8.429  0.7415  1.4298 -0.7697
12889SOL     OW39244   8.705   1.232   0.579  0.2126  0.6296  0.0191
12889SOL    HW139245   8.715   1.271   0.492 -0.4562  0.2887 -0.2186
12889SOL    HW239246   8.664   1.301   0.631  0.9004  0.9431  0.1542
12890SOL     OW39247   1.499   5.602   4.205  0.2836 -0.3161  0.0353
12890SOL    HW139248   1.592   5.597   4.226  0.8732  3.6407 -0.9111
12890SOL    HW239249   1.458   5.633   4.285  0.5775  2.2291 -0.7019
12891SOL     OW39250   1.471   6.150   2.892  0.4410  0.2475  0.1130
12891SOL    HW139251   1.414   6.225   2.906  0.8628  0.9115 -1.4494
12891SOL    HW239252   1.534   6.180   2.827  1.8254 -0.8550  0.8992
12892SOL     OW39253   5.972   1.976   3.000  0.4152 -0.1957  0.1095
12892SOL    HW139254   5.990   2.070   2.993  1.0159 -0.2486  0.8005
12892SOL    HW239255   5.879   1.971   3.023  0.0745  0.1760 -1.1344
12893SOL     OW39256   5.026   8.184   9.646  0.0662  0.2512  0.2557
12893SOL    HW139257   4.985   8.155   9.564 -1.1848 -2.0195  1.6082
12893SOL    HW239258   4.974   8.260   9.673 -0.0665  0.4716 -0.5778
12894SOL     OW39259   7.632   9.117   7.038 -0.2297 -0.4020  0.1619
12894SOL    HW139260   7.728   9.115   7.034 -0.2315  0.3690 -0.8029
12894SOL    HW239261   7.604   9.070   6.960 -0.6945 -2.3293  1.4264
12895SOL     OW39262   3.149   0.968   5.257 -0.1990  0.1742 -0.4913
12895SOL    HW139263   3.136   0.928   5.171  1.0653  1.3136 -1.2449
12895SOL    HW239264   3.218   0.915   5.298 -0.6691 -0.2526 -0.2339
12896SOL     OW39265   7.791   0.822   3.332 -0.1907  0.5347  0.1617
12896SOL    HW139266   7.704   0.837   3.294  0.3547  0.2273 -1.2599
12896SOL    HW239267   7.802   0.727   3.331 -0.9538  0.3090  3.0173
12897SOL     OW39268   7.447   8.997   5.093  0.1348  0.0510  0.2328
12897SOL    HW139269   7.441   9.045   5.175  2.3257 -2.4132  1.9924
12897SOL    HW239270   7.521   9.036   5.047 -2.0115  2.4730 -1.5100
12898SOL     OW39271   2.629   7.964   9.363  0.1216  0.1436  0.3452
12898SOL    HW139272   2.677   8.025   9.418  1.6766 -2.1158  1.6805
12898SOL    HW239273   2.577   7.911   9.424  1.2214 -1.8705 -0.3584
12899SOL     OW39274   7.528   5.739   5.520  0.0409  0.0718 -0.3943
12899SOL    HW139275   7.599   5.751   5.584  1.2545  0.1160 -1.6996
12899SOL    HW239276   7.537   5.648   5.492 -1.5378 -0.4522  0.6678
12900SOL     OW39277   9.670   5.545   4.363 -0.0269 -0.2245 -0.1721
12900SOL    HW139278   9.645   5.551   4.455  0.1055 -1.5780 -0.0249
12900SOL    HW239279   9.596   5.500   4.321  0.5959 -1.0607 -0.4050
12901SOL     OW39280   4.893   1.484   0.751 -0.0119 -0.5159 -0.6109
12901SOL    HW139281   4.940   1.471   0.833 -2.1735  2.4020  1.3194
12901SOL    HW239282   4.816   1.427   0.757 -0.0146 -0.5295 -0.7611
12902SOL     OW39283   8.874   1.349   9.165  0.5559  0.3663 -0.1035
12902SOL    HW139284   8.886   1.370   9.257 -0.3113  2.3805 -0.3966
12902SOL    HW239285   8.953   1.381   9.122  1.3780 -1.3979  0.0077
12903SOL     OW39286   7.131   2.234   2.521  0.3075 -0.3926 -0.0437
12903SOL    HW139287   7.093   2.146   2.525 -0.4778 -0.1726 -1.9006
12903SOL    HW239288   7.186   2.239   2.600 -1.0544 -1.8534  1.0715
12904SOL     OW39289   2.004   9.591   0.258  0.2428 -0.3407 -0.4751
12904SOL    HW139290   1.973   9.540   0.332 -2.4081  0.1930 -1.1244
12904SOL    HW239291   2.043   9.669   0.297 -0.3699 -0.4481  0.3794
12905SOL     OW39292   4.481   8.493   5.989 -0.0716 -0.0557 -0.4624
12905SOL    HW139293   4.388   8.511   5.997 -0.3336 -1.2936 -0.4592
12905SOL    HW239294   4.492   8.455   5.902  0.3370 -0.3986 -0.2708
12906SOL     OW39295   9.639   6.920   2.525  0.0668 -0.2972  0.0446
12906SOL    HW139296   9.684   6.877   2.598 -0.0520 -0.3720  0.0731
12906SOL    HW239297   9.647   6.858   2.453  0.9057  0.1282 -0.2395
12907SOL     OW39298   9.041   2.367   8.636  0.5187  0.3558 -0.0215
12907SOL    HW139299   9.125   2.408   8.617  0.1197  1.5658  0.7020
12907SOL    HW239300   8.977   2.417   8.584  0.2065 -0.3786 -0.3609
12908SOL     OW39301   1.536   8.625   4.104 -0.0013 -0.2241  0.3627
12908SOL    HW139302   1.496   8.694   4.156 -1.6133 -0.7491 -0.1192
12908SOL    HW239303   1.473   8.608   4.033  0.9626 -1.2713 -0.2858
12909SOL     OW39304   5.908   0.310   1.874 -0.3706 -1.1017  0.3570
12909SOL    HW139305   5.824   0.273   1.901 -0.4727 -1.0032  0.1771
12909SOL    HW239306   5.930   0.265   1.792 -0.9213 -0.1614 -0.3267
12910SOL     OW39307   4.646   4.037   7.807  0.2283 -0.9953  0.2336
12910SOL    HW139308   4.740   4.047   7.818  0.1507  0.0808  0.0438
12910SOL    HW239309   4.608   4.082   7.882 -0.1246 -3.3890  1.5766
12911SOL     OW39310   5.582   9.162   2.890  0.5815 -0.3990 -0.4292
12911SOL    HW139311   5.498   9.147   2.932  0.6125 -2.5071 -1.0302
12911SOL    HW239312   5.647   9.148   2.959  0.4889  1.0408 -0.0132
12912SOL     OW39313   3.344   2.838   8.304  0.1729 -0.0431  0.3299
12912SOL    HW139314   3.387   2.755   8.285 -0.8704 -0.5120 -0.0773
12912SOL    HW239315   3.386   2.869   8.384  1.7623 -0.0969 -0.4417
12913SOL     OW39316   1.742   1.975   2.437 -0.8197 -0.0358 -0.8453
12913SOL    HW139317   1.790   1.893   2.421 -1.0554 -0.1453 -0.9917
12913SOL    HW239318   1.771   2.033   2.366  0.4494  0.4989  0.0759
12914SOL     OW39319   3.080   2.680   7.228  0.4057 -0.4186 -0.1940
12914SOL    HW139320   3.079   2.605   7.169 -1.1881 -0.3411 -0.3097
12914SOL    HW239321   3.010   2.661   7.291 -0.4423  1.2341 -0.5873
12915SOL     OW39322   0.334   7.431   4.504  0.5221 -0.2411  0.3881
12915SOL    HW139323   0.363   7.351   4.459 -1.0360  0.0606 -1.3079
12915SOL    HW239324   0.253   7.405   4.549  0.2360  0.2630  0.1754
12916SOL     OW39325   8.885   0.799   6.370  0.5976  0.4673 -0.1350
12916SOL    HW139326   8.813   0.758   6.417  0.5995  0.5279 -0.0792
12916SOL    HW239327   8.843   0.859   6.309  0.2696 -2.7686 -3.4461
12917SOL     OW39328   9.168   9.148   4.646  0.1046  0.0310  0.2090
12917SOL    HW139329   9.216   9.079   4.691 -0.4410 -0.8783 -0.5597
12917SOL    HW239330   9.219   9.227   4.662  0.9160 -0.5994  0.8494
12918SOL     OW39331   7.947   1.413   1.589 -0.6776 -0.0219  0.3577
12918SOL    HW139332   7.989   1.416   1.675 -2.4287  0.5272  1.2496
12918SOL    HW239333   8.000   1.352   1.538  0.3713 -0.3971  1.8431
12919SOL     OW39334   3.868   6.253   2.070 -0.1419 -0.7427 -0.8967
12919SOL    HW139335   3.867   6.161   2.094 -0.2861 -0.4041  0.4528
12919SOL    HW239336   3.959   6.280   2.082 -0.3539 -0.3995 -0.0516
12920SOL     OW39337   4.115   4.674   3.124  0.1790 -0.0675  0.7286
12920SOL    HW139338   4.172   4.735   3.077 -1.3907  0.2510 -0.8920
12920SOL    HW239339   4.122   4.592   3.075  0.9389 -0.7157  1.8676
12921SOL     OW39340   7.915   9.831   1.794 -0.0824  0.5311 -0.1855
12921SOL    HW139341   7.995   9.884   1.802  0.4350 -0.4890  5.4178
12921SOL    HW239342   7.845   9.889   1.825 -0.7730  0.0460 -0.7988
12922SOL     OW39343   0.283   5.763   8.277 -0.5473 -0.7160  0.0277
12922SOL    HW139344   0.359   5.726   8.324 -0.6167 -0.6885  0.1615
12922SOL    HW239345   0.220   5.691   8.274  0.1368 -1.2836 -1.5752
12923SOL     OW39346   5.587   0.155   7.743 -0.2276 -0.1897 -0.0631
12923SOL    HW139347   5.611   0.195   7.659  1.1968 -0.8202  0.0165
12923SOL    HW239348   5.629   0.069   7.741 -2.7559 -1.5200  0.0067
12924SOL     OW39349   9.128   8.200   4.743  0.6527  0.1664  0.6087
12924SOL    HW139350   9.071   8.213   4.818  2.5698 -0.6407  2.3217
12924SOL    HW239351   9.138   8.287   4.704 -2.1228  0.2312 -0.1332
12925SOL     OW39352   4.380   5.670   7.686 -0.3639 -0.2264  0.3981
12925SOL    HW139353   4.337   5.660   7.602 -0.2629  1.9174  0.0369
12925SOL    HW239354   4.405   5.581   7.711 -0.2352 -0.9058 -1.9075
12926SOL     OW39355   0.471   6.671   6.302  0.0136 -0.3160 -0.0064
12926SOL    HW139356   0.482   6.669   6.397  1.6869 -1.5403 -0.1681
12926SOL    HW239357   0.463   6.579   6.277 -1.1381  0.0281 -1.0059
12927SOL     OW39358   9.140   1.534   9.763  0.0959  0.2254 -0.4098
12927SOL    HW139359   9.080   1.602   9.796 -0.9052 -0.7511 -0.1451
12927SOL    HW239360   9.214   1.536   9.824 -1.6136 -1.3903  1.9173
12928SOL     OW39361   2.893   3.977   2.778 -0.0671 -0.3117  0.0522
12928SOL    HW139362   2.947   3.915   2.827  0.0486 -0.5275 -0.3425
12928SOL    HW239363   2.844   3.922   2.717  1.1356  0.0995 -1.3477
12929SOL     OW39364   1.067   1.064   6.498  0.4703 -0.0682  0.0494
12929SOL    HW139365   0.993   1.123   6.512 -0.0178 -0.6103 -0.2130
12929SOL    HW239366   1.071   1.053   6.403  2.6357  2.1572 -0.2178
12930SOL     OW39367   3.669   6.356   9.106 -0.0468 -0.3760 -0.5478
12930SOL    HW139368   3.621   6.283   9.067  0.6297 -1.1883  0.1181
12930SOL    HW239369   3.756   6.351   9.068  0.5629 -1.0568  0.8964
12931SOL     OW39370   2.175   2.561   0.548  0.0800 -0.4929  0.6863
12931SOL    HW139371   2.268   2.539   0.556  0.2302 -0.9154 -1.6930
12931SOL    HW239372   2.130   2.477   0.550 -0.3046 -0.2751  2.0416
12932SOL     OW39373   6.274   5.547   5.718 -0.0592 -0.2078 -0.3084
12932SOL    HW139374   6.286   5.600   5.797 -2.0956  0.8885 -0.6493
12932SOL    HW239375   6.240   5.609   5.653  1.5776 -1.0780 -2.0904
12933SOL     OW39376   9.874   4.507   1.056 -0.5927 -0.4050 -0.0640
12933SOL    HW139377   9.939   4.438   1.042 -0.3376 -0.2250  0.2079
12933SOL    HW239378   9.802   4.485   0.997  0.6515  0.6187 -2.0866
12934SOL     OW39379   0.388   0.539   8.739 -0.3142 -0.0846 -0.3507
12934SOL    HW139380   0.470   0.544   8.689 -0.2384 -4.0025 -0.9367
12934SOL    HW239381   0.320   0.559   8.675  0.0382  3.1366  0.1253
12935SOL     OW39382   8.131   7.429   0.300 -0.4701  0.1331 -0.5686
12935SOL    HW139383   8.169   7.510   0.268 -0.5291  0.0765 -0.7847
12935SOL    HW239384   8.204   7.368   0.304 -0.3702  0.2799 -0.1258
12936SOL     OW39385   2.844   5.184   5.549  0.1451 -0.0887 -0.1063
12936SOL    HW139386   2.794   5.110   5.583  0.2128 -0.1010 -0.0333
12936SOL    HW239387   2.896   5.214   5.624  0.7741 -0.5163 -0.3686
12937SOL     OW39388   3.647   4.903   8.999 -0.8365 -0.1225  0.4906
12937SOL    HW139389   3.574   4.842   9.008 -0.0538 -1.0806  0.4892
12937SOL    HW239390   3.606   4.987   8.976 -2.0772 -0.1640  2.3784
12938SOL     OW39391   1.510   9.657   6.920 -0.3499 -0.2476  0.5698
12938SOL    HW139392   1.479   9.712   6.848 -0.8581 -1.1839  0.0628
12938SOL    HW239393   1.554   9.719   6.979 -1.0438  0.7324  0.1034
12939SOL     OW39394   7.320   4.559   8.067  0.0108  0.0942  0.1146
12939SOL    HW139395   7.395   4.506   8.095 -0.0074 -0.3055 -0.5736
12939SOL    HW239396   7.352   4.609   7.992  0.1073  1.2848  0.9328
12940SOL     OW39397   9.834   2.245   1.366  0.1786  0.5669  0.1776
12940SOL    HW139398   9.889   2.236   1.444  0.2635 -2.1384 -0.1034
12940SOL    HW239399   9.744   2.246   1.399  0.1776 -1.2909  0.3592
12941SOL     OW39400   0.086   2.449   5.043  0.7019 -0.2648 -0.1061
12941SOL    HW139401   0.149   2.509   5.005 -0.0117  0.3327 -0.3771
12941SOL    HW239402   0.015   2.505   5.075 -1.1908 -1.0314 -2.5967
12942SOL     OW39403   7.198   7.944   2.185  0.2500 -0.4559  0.1624
12942SOL    HW139404   7.209   7.909   2.273 -1.8493  0.4839  0.8573
12942SOL    HW239405   7.165   7.871   2.133  1.4318 -0.9943  0.1405
12943SOL     OW39406   9.719   5.708   1.377  0.2280  0.1647 -0.1487
12943SOL    HW139407   9.708   5.780   1.439 -2.8512  0.1601 -0.5547
12943SOL    HW239408   9.695   5.746   1.293  0.1294 -0.9369 -0.6265
12944SOL     OW39409   0.135   7.698   0.442  0.6400  0.3485  0.0585
12944SOL    HW139410   0.213   7.647   0.461 -0.3406 -1.2648 -0.0478
12944SOL    HW239411   0.165   7.789   0.443  1.7519  0.1410  4.0971
12945SOL     OW39412   7.406   2.213   1.533  0.2704  0.1983 -0.2329
12945SOL    HW139413   7.323   2.224   1.579  0.7915 -0.7468  0.9694
12945SOL    HW239414   7.397   2.266   1.454 -1.7724 -0.5282 -0.5258
12946SOL     OW39415   3.380   4.720   1.143 -0.2296 -0.5013 -0.1364
12946SOL    HW139416   3.440   4.685   1.209 -0.0904 -0.9646 -0.5040
12946SOL    HW239417   3.377   4.653   1.075  0.3967  0.4116 -1.0843
12947SOL     OW39418   4.266   8.607   7.761 -0.3763 -0.1324 -0.0950
12947SOL    HW139419   4.287   8.515   7.744 -1.7085 -0.5619  0.4686
12947SOL    HW239420   4.207   8.604   7.836  0.5631  1.2821  0.7532
12948SOL     OW39421   7.063   3.515   2.069 -0.8386  0.3465 -0.1855
12948SOL    HW139422   7.115   3.546   1.994 -0.0907  1.7398  0.8638
12948SOL    HW239423   7.067   3.420   2.063 -1.1994  0.4133 -2.1773
12949SOL     OW39424   0.802   2.626   7.291 -0.4788  0.2712  0.3582
12949SOL    HW139425   0.861   2.680   7.344  0.0915  0.1278 -0.1172
12949SOL    HW239426   0.841   2.627   7.203 -1.7077  0.9381 -0.1977
12950SOL     OW39427   7.514   9.390   4.755 -0.5404  0.4262  0.2126
12950SOL    HW139428   7.542   9.348   4.837  0.0761  4.3512  2.2649
12950SOL    HW239429   7.422   9.368   4.748 -0.0440 -2.0293  0.5458
12951SOL     OW39430   0.566   1.726   9.135  0.5536  0.3771  0.5088
12951SOL    HW139431   0.584   1.780   9.058 -0.5840 -1.6212 -1.2624
12951SOL    HW239432   0.471   1.735   9.148  0.5698 -0.1698  1.0108
12952SOL     OW39433   0.747   8.871   8.689 -0.1827 -0.0529  0.1621
12952SOL    HW139434   0.817   8.888   8.627 -0.4782  0.7656  0.0524
12952SOL    HW239435   0.723   8.780   8.673 -2.2066  0.8995 -2.9248
12953SOL     OW39436   2.059   2.017   8.899  0.0877 -0.0731  0.2265
12953SOL    HW139437   2.102   2.037   8.815 -2.6379 -0.2100 -1.3158
12953SOL    HW239438   2.002   2.092   8.914  0.0402 -0.3777  1.6591
12954SOL     OW39439   0.462   4.617   0.593  0.0193  0.0996 -0.3196
12954SOL    HW139440   0.539   4.563   0.576  0.7084  0.9702 -0.0399
12954SOL    HW239441   0.471   4.643   0.685 -0.5993  0.2213 -0.2891
12955SOL     OW39442   1.200   1.089   2.711  0.4994  0.1832  0.2239
12955SOL    HW139443   1.245   1.067   2.629 -0.7497 -1.7889  0.0020
12955SOL    HW239444   1.267   1.135   2.763  1.7839  0.1252 -1.2831
12956SOL     OW39445   1.949   2.310   0.119  0.4299 -0.3271  0.2694
12956SOL    HW139446   1.903   2.393   0.132 -0.4103 -0.5618 -1.0345
12956SOL    HW239447   2.041   2.331   0.129  0.1808  0.6485  0.5421
12957SOL     OW39448   2.574   4.839   2.462  0.3815 -0.0534  0.0062
12957SOL    HW139449   2.516   4.892   2.407  1.0494 -1.4343 -2.1734
12957SOL    HW239450   2.516   4.798   2.526 -0.8739 -0.4095 -1.3169
12958SOL     OW39451   2.409   3.867   0.344 -0.3691  0.0287  0.2464
12958SOL    HW139452   2.491   3.892   0.302 -0.6267 -1.7168 -1.4320
12958SOL    HW239453   2.390   3.780   0.310 -3.2658  0.6317  0.0588
12959SOL     OW39454   8.710   5.988   7.070  0.2137  0.2219  0.0668
12959SOL    HW139455   8.722   5.937   6.990 -0.5565  0.1763 -0.0273
12959SOL    HW239456   8.641   6.051   7.048  1.2325  1.4136  0.1324
12960SOL     OW39457   8.215   5.656   3.757 -0.1439  0.2339  0.1120
12960SOL    HW139458   8.142   5.651   3.819  0.9406 -2.4302  1.3346
12960SOL    HW239459   8.293   5.654   3.813  0.8668 -0.1802 -1.2693
12961SOL     OW39460   5.435   2.161   7.492 -0.3360 -0.3234 -0.0413
12961SOL    HW139461   5.402   2.092   7.550 -1.7081 -0.6145 -1.1180
12961SOL    HW239462   5.493   2.213   7.548 -0.9242 -1.1071  1.3604
12962SOL     OW39463   3.302   3.847   6.088 -0.4598  0.2048  0.0698
12962SOL    HW139464   3.386   3.879   6.054  0.0683  0.0612  1.1896
12962SOL    HW239465   3.291   3.892   6.171 -1.0128 -0.5265  0.4071
12963SOL     OW39466   8.670   5.197   5.907 -0.3658  0.5948  0.3344
12963SOL    HW139467   8.656   5.271   5.966  0.9566  1.5096 -0.4398
12963SOL    HW239468   8.652   5.120   5.960 -2.3492  1.4475  1.0174
12964SOL     OW39469   8.837   8.867   9.398 -0.7369 -0.3801  0.3004
12964SOL    HW139470   8.786   8.848   9.319 -2.3144  3.5805  0.1605
12964SOL    HW239471   8.782   8.833   9.469 -1.6300  0.1905 -0.0925
12965SOL     OW39472   5.484   3.539   5.451  0.0504  0.1537 -0.6916
12965SOL    HW139473   5.562   3.483   5.448 -0.0837 -0.0762 -0.1073
12965SOL    HW239474   5.477   3.576   5.363  1.0274  0.4659 -0.6475
12966SOL     OW39475   3.414   2.823   3.144 -0.2812  0.2416  0.3014
12966SOL    HW139476   3.390   2.791   3.231  1.6133  0.8342  1.0843
12966SOL    HW239477   3.434   2.744   3.094  2.4414 -0.0134  1.6283
12967SOL     OW39478   2.094   4.749   5.064  0.2542  0.1430 -0.7195
12967SOL    HW139479   2.019   4.777   5.118  0.5627  0.4482 -0.4420
12967SOL    HW239480   2.112   4.660   5.094  1.6590  0.9781  1.1055
12968SOL     OW39481   1.546   9.094   3.832 -0.3708 -0.2534 -0.1643
12968SOL    HW139482   1.630   9.092   3.877 -0.3234 -0.1532 -0.2501
12968SOL    HW239483   1.494   9.158   3.881 -0.2168  0.0827 -0.4351
12969SOL     OW39484   0.349   7.927   4.980  0.2926 -0.0176 -0.3346
12969SOL    HW139485   0.378   7.889   4.897  0.6570 -1.9434  0.6177
12969SOL    HW239486   0.254   7.933   4.971  0.0585 -2.4800 -0.0547
12970SOL     OW39487   8.692   4.190   2.271  0.3110  0.0025  1.2121
12970SOL    HW139488   8.602   4.222   2.274 -0.1232 -1.2338  2.3073
12970SOL    HW239489   8.693   4.129   2.197  0.7723  1.3821  0.0240
12971SOL     OW39490   3.184   6.429   9.802 -1.0788  0.2604  0.3411
12971SOL    HW139491   3.217   6.397   9.718 -2.5255  1.6874 -0.8372
12971SOL    HW239492   3.229   6.376   9.867 -0.1192 -1.0898 -1.3345
12972SOL     OW39493   1.029   9.653   2.119  0.5865  0.1999  0.3647
12972SOL    HW139494   0.952   9.678   2.170  1.5210  2.1439  0.8715
12972SOL    HW239495   1.060   9.572   2.161 -0.2479  0.2639  1.1372
12973SOL     OW39496   2.653   4.166   7.997  0.2161  0.1291 -0.2907
12973SOL    HW139497   2.625   4.256   7.980 -1.7593 -0.5745 -1.0350
12973SOL    HW239498   2.573   4.120   8.023  0.8639 -1.7834 -1.4767
12974SOL     OW39499   8.890   9.541   1.164  0.7778 -0.0018 -0.0550
12974SOL    HW139500   8.867   9.594   1.087 -1.2936 -0.6436  0.0617
12974SOL    HW239501   8.985   9.530   1.157  0.7834  0.7368 -2.0124
12975SOL     OW39502   9.386   4.882   1.878 -0.3377 -0.1460  0.0260
12975SOL    HW139503   9.363   4.871   1.970  0.6234  0.2642  0.3317
12975SOL    HW239504   9.478   4.909   1.880  0.2015 -1.7906 -1.1240
12976SOL     OW39505   9.613   7.833   7.434  0.2366 -0.1342 -0.5895
12976SOL    HW139506   9.595   7.740   7.448 -1.3202  0.0443 -1.2565
12976SOL    HW239507   9.701   7.834   7.395  1.4028 -1.1135  1.7497
12977SOL     OW39508   2.574   7.834   8.844  0.1240  0.1286  0.0151
12977SOL    HW139509   2.600   7.800   8.930  1.0913  1.8174  0.4336
12977SOL    HW239510   2.628   7.785   8.782  1.2015  0.5544  0.5767
12978SOL     OW39511   8.390   1.624   1.025  0.0755  0.3099 -0.0954
12978SOL    HW139512   8.355   1.689   0.963  2.3127  1.5187 -0.2008
12978SOL    HW239513   8.465   1.586   0.979  0.7680  0.0200  1.2420
12979SOL     OW39514   9.588   4.250   9.223 -0.3792 -0.0398 -0.6962
12979SOL    HW139515   9.509   4.218   9.180 -0.2813 -0.9736 -0.2040
12979SOL    HW239516   9.563   4.261   9.315  0.0657 -0.3628 -0.5329
12980SOL     OW39517   9.433   0.337   3.792 -0.1655  0.4290  0.6815
12980SOL    HW139518   9.495   0.279   3.747 -0.0569  0.5918  0.6203
12980SOL    HW239519   9.427   0.414   3.735 -2.2504 -0.5676 -0.5556
12981SOL     OW39520   4.764   5.678   4.640 -0.0503  0.5920 -0.1271
12981SOL    HW139521   4.780   5.583   4.640 -1.9700  0.2179  0.5520
12981SOL    HW239522   4.717   5.693   4.558  0.1252  0.9285 -0.1641
12982SOL     OW39523   1.594   0.004   8.261  0.5542  0.0105 -0.2345
12982SOL    HW139524   1.572   0.090   8.224  0.2846  0.6782  1.3694
12982SOL    HW239525   1.532  -0.007   8.334  1.1799 -1.1377  0.1465
12983SOL     OW39526   0.823   1.200   7.622 -0.1061 -0.2005  0.0310
12983SOL    HW139527   0.876   1.159   7.690  2.0807  0.6940 -1.0308
12983SOL    HW239528   0.859   1.289   7.614 -2.4823  0.8269 -0.0573
12984SOL     OW39529   4.347   9.917   7.058 -0.3146 -0.0658  0.5269
12984SOL    HW139530   4.394   9.924   7.141 -2.3202 -0.5982  1.7829
12984SOL    HW239531   4.258   9.946   7.078 -1.0090 -0.7823 -1.2868
12985SOL     OW39532   8.749   7.674   4.002  0.0869 -0.5373 -0.1665
12985SOL    HW139533   8.742   7.648   3.910 -0.4481 -1.9115  0.2351
12985SOL    HW239534   8.830   7.632   4.032  1.4345  1.6314 -0.5009
12986SOL     OW39535   2.160   0.081   8.234 -0.0544  0.2266 -0.0083
12986SOL    HW139536   2.089   0.017   8.233 -1.0143  1.2421  0.4223
12986SOL    HW239537   2.128   0.151   8.291  1.2804  0.7373  0.1439
12987SOL     OW39538   1.841   4.863   0.944  0.5740 -0.4338  0.2295
12987SOL    HW139539   1.745   4.855   0.943  0.6378 -1.2617  0.4602
12987SOL    HW239540   1.872   4.781   0.982  1.4128 -0.4468 -0.4578
12988SOL     OW39541   4.997   8.878   8.651  0.0132  0.1571  0.1359
12988SOL    HW139542   4.941   8.850   8.722  1.1565 -0.4379  0.8305
12988SOL    HW239543   4.966   8.966   8.628  1.1934  1.4797  3.1131
12989SOL     OW39544   4.980   2.063   7.452  0.0291  0.1810 -0.2683
12989SOL    HW139545   5.055   2.069   7.393  0.2239 -0.8753 -0.1362
12989SOL    HW239546   4.952   1.972   7.447 -1.5836  0.6701 -0.7007
12990SOL     OW39547   8.043   6.835   7.854  0.4201 -0.6188 -0.2097
12990SOL    HW139548   8.024   6.809   7.944 -0.9286  0.5173 -0.1492
12990SOL    HW239549   8.088   6.759   7.817  1.8597 -0.7706  1.6661
12991SOL     OW39550   3.582   3.966   9.960  0.2951 -0.6507  0.0851
12991SOL    HW139551   3.515   4.009   9.907 -0.7081 -1.4713  0.6523
12991SOL    HW239552   3.605   3.888   9.910  0.4288 -0.6594  0.1610
12992SOL     OW39553   1.378   6.579   4.374 -0.3184 -0.5307  0.6473
12992SOL    HW139554   1.340   6.586   4.287 -1.5197 -0.7586  1.1372
12992SOL    HW239555   1.350   6.658   4.420 -0.3585 -0.7943  1.0818
12993SOL     OW39556   6.537   3.460   9.314  0.2575 -1.2802  0.0200
12993SOL    HW139557   6.621   3.495   9.344 -0.0101 -0.6935  0.1023
12993SOL    HW239558   6.499   3.418   9.392 -0.6918  0.7309  0.7088
12994SOL     OW39559   9.336   6.797   6.038 -0.2688 -0.0085  0.4290
12994SOL    HW139560   9.323   6.756   5.952  0.9855 -1.8931  1.0815
12994SOL    HW239561   9.359   6.888   6.018  0.0135 -0.4135 -1.2396
12995SOL     OW39562   7.611   1.312   0.382  0.0834 -0.7327 -0.4046
12995SOL    HW139563   7.669   1.293   0.455 -0.8009  1.3699  0.9483
12995SOL    HW239564   7.669   1.321   0.306  1.6703  1.6438  0.9531
12996SOL     OW39565   2.873   5.561   3.971 -0.1714  0.0777 -0.2830
12996SOL    HW139566   2.922   5.563   3.889 -0.4504  0.9879 -0.4410
12996SOL    HW239567   2.785   5.590   3.947  0.2669  2.4630  0.6483
12997SOL     OW39568   0.612   5.405   6.571  0.0048 -0.1457  0.8998
12997SOL    HW139569   0.599   5.490   6.614  2.3309  0.6318  0.2293
12997SOL    HW239570   0.670   5.357   6.631  2.4490  0.5659 -0.7249
12998SOL     OW39571   4.116   9.412   9.226 -0.0633 -0.1236 -0.4746
12998SOL    HW139572   4.024   9.396   9.249 -0.2458  0.9963 -0.3856
12998SOL    HW239573   4.161   9.418   9.310 -0.0550  0.1261 -0.4954
12999SOL     OW39574   2.429   6.957   6.163  0.3465 -0.4907 -0.2007
12999SOL    HW139575   2.486   6.893   6.122 -0.0027 -1.2197  0.4326
12999SOL    HW239576   2.464   7.042   6.135  0.5188 -0.9504 -1.4402
13000SOL     OW39577   6.658   1.316   7.529  0.7827 -0.2196 -0.2328
13000SOL    HW139578   6.634   1.304   7.620  0.7495  1.1169 -0.0469
13000SOL    HW239579   6.749   1.347   7.531  1.0209 -0.8628 -0.6918
13001SOL     OW39580   8.482   8.391   5.679  0.1675 -0.4565 -0.0172
13001SOL    HW139581   8.535   8.364   5.604 -0.6784 -0.1305 -0.7565
13001SOL    HW239582   8.451   8.309   5.717 -1.7883 -0.6294 -1.8064
13002SOL     OW39583   5.819   8.168   9.190 -0.3743  0.1204 -0.3315
13002SOL    HW139584   5.770   8.249   9.178  1.3288  1.5551  1.6930
13002SOL    HW239585   5.751   8.101   9.203 -1.8161  1.1218 -2.1550
13003SOL     OW39586   2.053   2.020   2.723 -0.1788  0.0183  0.1620
13003SOL    HW139587   2.023   1.939   2.763  0.3925 -0.2230  0.1152
13003SOL    HW239588   2.076   2.076   2.797  1.2240 -0.5598  0.2074
13004SOL     OW39589   4.952   8.950   6.605 -0.4332  0.2164 -0.1221
13004SOL    HW139590   4.869   8.917   6.640 -0.6287 -0.7584 -1.4422
13004SOL    HW239591   4.944   8.938   6.510  1.1365  0.3187 -0.2815
13005SOL     OW39592   0.861   9.237   4.795 -0.3644  0.6363 -0.3578
13005SOL    HW139593   0.833   9.190   4.873 -1.7239  0.8803 -0.6742
13005SOL    HW239594   0.827   9.326   4.806  0.0247  0.8647 -0.9136
13006SOL     OW39595   7.379   0.916   1.204  0.2371  0.1856 -0.0280
13006SOL    HW139596   7.293   0.932   1.242 -0.3274 -1.7138 -0.3804
13006SOL    HW239597   7.438   0.909   1.279 -0.0330  0.8139  0.2483
13007SOL     OW39598   7.140   0.257   2.377 -0.1570  0.1452  0.0047
13007SOL    HW139599   7.164   0.174   2.418 -2.3327 -1.3370 -1.5111
13007SOL    HW239600   7.092   0.305   2.446 -0.8072 -0.8272  0.2430
13008SOL     OW39601   7.757   6.961   4.815  0.1721 -0.8590 -0.3932
13008SOL    HW139602   7.669   6.922   4.812  0.8865 -2.6853  0.8137
13008SOL    HW239603   7.780   6.974   4.723 -0.8455 -1.5778 -0.7714
13009SOL     OW39604   1.564   6.921   0.886  0.4321  0.0477  0.4147
13009SOL    HW139605   1.533   6.832   0.869 -0.0116  0.2022  0.4015
13009SOL    HW239606   1.559   6.931   0.981 -5.0844  1.9643  0.2649
13010SOL     OW39607   2.779   5.444   5.420 -0.1418  0.8804 -0.0638
13010SOL    HW139608   2.829   5.370   5.455 -0.0752 -0.1291 -2.1153
13010SOL    HW239609   2.790   5.513   5.485  1.0403 -0.4212  1.2143
13011SOL     OW39610   3.273   1.785   7.824 -0.2884 -0.0488 -0.0606
13011SOL    HW139611   3.313   1.858   7.776  0.0488 -0.0067  0.2722
13011SOL    HW239612   3.235   1.730   7.756  0.6263 -0.2578 -0.4250
13012SOL     OW39613   8.306   7.699   0.657 -0.1435 -0.0123 -0.1829
13012SOL    HW139614   8.220   7.656   0.663 -0.6347  0.9468 -0.0949
13012SOL    HW239615   8.316   7.719   0.564 -0.1675  0.1704 -0.1464
13013SOL     OW39616   8.509   5.074   8.353 -0.0380  0.2934  0.0334
13013SOL    HW139617   8.452   5.131   8.406 -0.5119 -0.8541  0.7873
13013SOL    HW239618   8.535   5.004   8.413  2.2305  0.7958 -0.2803
13014SOL     OW39619   2.995   6.322   1.087  0.0127  0.2866  0.2402
13014SOL    HW139620   3.059   6.315   1.016 -0.3007  0.6154 -0.0789
13014SOL    HW239621   3.040   6.287   1.163 -0.0863 -1.3375 -0.3887
13015SOL     OW39622   9.389   7.300   1.325  0.3442 -0.1186 -0.2333
13015SOL    HW139623   9.402   7.249   1.405 -3.2436  0.8790  1.1373
13015SOL    HW239624   9.433   7.383   1.342  0.2814 -0.2039  0.3525
13016SOL     OW39625   3.955   6.177   0.954 -0.5624 -0.0198  0.2783
13016SOL    HW139626   3.978   6.261   0.913 -0.6240  0.0818  0.4526
13016SOL    HW239627   3.952   6.196   1.048  0.2130 -0.4022  0.3885
13017SOL     OW39628   5.538   9.235   8.544  0.0611 -0.0615  0.0202
13017SOL    HW139629   5.458   9.266   8.586 -0.1184  0.2066 -0.5117
13017SOL    HW239630   5.607   9.294   8.577 -0.4489  1.7185 -1.8514
13018SOL     OW39631   5.442   8.964   5.837 -0.3397  0.5922 -0.2144
13018SOL    HW139632   5.401   9.045   5.808  0.3595  0.7786 -0.7149
13018SOL    HW239633   5.530   8.990   5.863 -0.2904  0.0842  0.1439
13019SOL     OW39634   2.331   1.972   9.399  0.2618 -0.1404  0.4816
13019SOL    HW139635   2.277   1.909   9.350 -1.4293  0.3330  1.6275
13019SOL    HW239636   2.409   1.984   9.345 -1.2671 -0.0205 -1.8493
13020SOL     OW39637   1.922   9.138   0.969 -0.6901  0.2056 -0.3407
13020SOL    HW139638   1.828   9.150   0.979 -0.6517 -0.1640  0.5802
13020SOL    HW239639   1.957   9.143   1.058 -0.2141 -2.6536 -0.2640
13021SOL     OW39640   6.937   9.734   4.289 -0.0934  0.0882  0.1138
13021SOL    HW139641   6.947   9.776   4.375 -1.2947 -0.1825  0.3989
13021SOL    HW239642   7.019   9.754   4.243  0.7522 -0.1348  1.4708
13022SOL     OW39643   9.920   2.073   7.051 -0.1831  0.2711 -0.0009
13022SOL    HW139644   9.966   2.018   6.987  0.7065  1.1646 -0.1687
13022SOL    HW239645   9.940   2.163   7.022  0.2019  0.6889  1.5002
13023SOL     OW39646   7.027   6.769   5.562 -0.3143  1.1298 -0.1369
13023SOL    HW139647   7.042   6.733   5.650 -0.8201  0.4497 -0.3219
13023SOL    HW239648   7.106   6.746   5.513 -0.7303  0.0403 -0.3203
13024SOL     OW39649   9.036   0.892   0.147  0.2051  0.0390 -0.1819
13024SOL    HW139650   9.005   0.973   0.187 -0.2865 -0.2429  0.0122
13024SOL    HW239651   9.079   0.845   0.218 -0.3387 -0.2921 -0.0672
13025SOL     OW39652   7.925   9.469   3.324  0.5202 -0.1025  0.4026
13025SOL    HW139653   7.902   9.560   3.306  1.3036 -0.1186 -0.7710
13025SOL    HW239654   7.851   9.435   3.375 -0.3929  0.8080 -0.2838
13026SOL     OW39655   8.567   3.457   8.745 -0.4287 -0.6077 -0.2515
13026SOL    HW139656   8.564   3.382   8.805 -1.4780  0.1887  0.7565
13026SOL    HW239657   8.553   3.533   8.802 -0.2895  0.2707 -1.3664
13027SOL     OW39658   3.188   5.553   1.306 -0.4161 -0.5743  0.4953
13027SOL    HW139659   3.278   5.524   1.323  0.1018  1.0189  0.6890
13027SOL    HW239660   3.152   5.569   1.394  0.0182  1.2683  0.3843
13028SOL     OW39661   8.482   4.556   3.109  0.1321  0.3681 -0.0529
13028SOL    HW139662   8.544   4.562   3.182  1.4901  0.0876 -1.1637
13028SOL    HW239663   8.495   4.468   3.075  1.4890  1.3806 -2.3377
13029SOL     OW39664   4.876   3.632   9.849 -0.3256  0.2222  0.0491
13029SOL    HW139665   4.951   3.672   9.894  0.1839  0.6364 -1.1284
13029SOL    HW239666   4.850   3.697   9.783  0.4704 -1.2974 -1.8707
13030SOL     OW39667   6.510   2.538   1.464  0.6905  0.4197  0.4683
13030SOL    HW139668   6.430   2.544   1.517  0.5388 -0.8545  0.4184
13030SOL    HW239669   6.562   2.470   1.508 -0.1908 -1.9765 -1.9278
13031SOL     OW39670   0.979   1.451   5.392 -0.0111  0.4035 -0.7117
13031SOL    HW139671   0.884   1.459   5.404 -0.0049  1.9861 -1.5016
13031SOL    HW239672   0.990   1.444   5.297  0.6427 -0.3662 -0.5874
13032SOL     OW39673   8.462   1.237   9.654 -0.1481  0.4187  0.4113
13032SOL    HW139674   8.412   1.248   9.574 -0.5608  2.0557  0.8627
13032SOL    HW239675   8.547   1.202   9.625 -0.0786  1.5263 -0.7976
13033SOL     OW39676   4.571   5.547   1.334 -0.5804 -0.4626  0.3006
13033SOL    HW139677   4.519   5.605   1.278 -0.3738  0.5256  1.0912
13033SOL    HW239678   4.529   5.461   1.325 -1.6091  0.0503 -0.0170
13034SOL     OW39679   6.078   9.182   9.944  0.3607  0.0926 -0.5680
13034SOL    HW139680   6.093   9.202  10.036  0.0669 -1.0395 -0.2677
13034SOL    HW239681   6.053   9.090   9.942 -0.4225  0.2968 -1.6914
13035SOL     OW39682   8.939   9.172   1.921  0.5740 -0.3772 -0.7495
13035SOL    HW139683   8.949   9.218   1.838  0.5687 -1.3635 -1.3147
13035SOL    HW239684   9.028   9.154   1.950  0.5666 -1.3362 -1.2975
13036SOL     OW39685   4.287   2.826   4.925 -0.6658  0.3804  0.1828
13036SOL    HW139686   4.238   2.855   5.002 -0.2909  0.3780  0.4253
13036SOL    HW239687   4.351   2.896   4.911 -2.2130  1.5510 -1.5366
13037SOL     OW39688   3.630   0.730   3.035 -0.1306  0.8241  0.4825
13037SOL    HW139689   3.600   0.639   3.039 -1.0807  0.9276 -2.4324
13037SOL    HW239690   3.678   0.737   2.953  0.8700  2.7249  1.1588
13038SOL     OW39691   8.241   0.191   2.385 -0.4341 -0.2101 -0.2276
13038SOL    HW139692   8.266   0.177   2.476 -1.5884 -1.0999 -0.0270
13038SOL    HW239693   8.319   0.168   2.335 -0.0766 -0.6063  0.4956
13039SOL     OW39694   0.123   2.153   1.045  0.2508  0.2818 -0.3047
13039SOL    HW139695   0.198   2.151   1.104  0.6248  0.3610 -0.7645
13039SOL    HW239696   0.114   2.062   1.015 -0.1184  0.1848  0.0893
13040SOL     OW39697   4.591   0.301   2.355  1.0192  0.6220 -0.2999
13040SOL    HW139698   4.559   0.379   2.400  1.3045  0.0339  0.9597
13040SOL    HW239699   4.637   0.251   2.423 -0.6659 -1.5154 -0.6135
13041SOL     OW39700   2.612   3.860   1.091 -0.0532 -0.3082 -0.7864
13041SOL    HW139701   2.663   3.851   1.010  0.2181 -1.2048 -0.5269
13041SOL    HW239702   2.675   3.843   1.161 -0.5159 -0.5726 -0.4273
13042SOL     OW39703   8.762   3.939   7.738  0.0748 -0.1297 -0.0076
13042SOL    HW139704   8.798   3.898   7.816  0.1333 -1.7023 -0.8207
13042SOL    HW239705   8.668   3.948   7.756  0.0871 -0.5070  0.2348
13043SOL     OW39706   5.608   7.381   2.014 -0.0850  0.0077  0.2071
13043SOL    HW139707   5.592   7.475   2.002 -2.2521 -0.5044 -1.5330
13043SOL    HW239708   5.589   7.342   1.929  2.1933 -1.8973  0.4633
13044SOL     OW39709   8.303   5.186   2.205 -0.0096  0.1499 -0.7973
13044SOL    HW139710   8.381   5.162   2.155 -0.5937 -0.6766 -1.3354
13044SOL    HW239711   8.316   5.145   2.291 -0.6178 -1.4801 -1.4397
13045SOL     OW39712   6.759   0.427   0.424  0.3828  0.2425  0.2745
13045SOL    HW139713   6.746   0.485   0.499 -0.8879  1.0806 -0.5563
13045SOL    HW239714   6.747   0.484   0.348  0.4133 -0.8486 -0.5677
13046SOL     OW39715   4.462   0.606   1.205 -0.9911  0.0863  0.3024
13046SOL    HW139716   4.494   0.566   1.124 -1.4427  0.0521  0.1362
13046SOL    HW239717   4.447   0.532   1.264 -0.3247  0.1395  0.5414
13047SOL     OW39718   7.141   0.543   2.695  0.0468 -0.2054  0.0085
13047SOL    HW139719   7.134   0.492   2.776  0.5376  1.0619  0.8784
13047SOL    HW239720   7.108   0.484   2.627  0.4258 -1.6155  0.9880
13048SOL     OW39721   6.549   7.172   1.076 -0.0151  0.4443 -0.7219
13048SOL    HW139722   6.487   7.098   1.075  3.0035 -2.3411 -0.9492
13048SOL    HW239723   6.604   7.155   1.152  1.1501  2.1767 -1.1444
13049SOL     OW39724   7.558   0.235   5.870  0.0240 -0.4795  0.2359
13049SOL    HW139725   7.565   0.243   5.775  0.3895 -0.0902  0.2913
13049SOL    HW239726   7.624   0.170   5.894 -0.7669 -1.3429  0.1217
13050SOL     OW39727   4.973   3.581   2.962 -0.2865  0.1573 -0.8632
13050SOL    HW139728   4.999   3.493   2.989  1.0873  0.2668 -1.7762
13050SOL    HW239729   5.051   3.620   2.924 -0.9446  1.6855 -0.7577
13051SOL     OW39730   3.350   1.896   7.167  0.0988 -0.0131  0.2769
13051SOL    HW139731   3.373   1.846   7.089  0.4969  0.8900 -0.1940
13051SOL    HW239732   3.431   1.941   7.192 -0.3846  0.8376  0.3608
13052SOL     OW39733   7.203   8.690   8.847 -0.0648 -0.3016  0.1090
13052SOL    HW139734   7.187   8.600   8.821 -0.4340 -0.3459  0.4784
13052SOL    HW239735   7.273   8.720   8.790  0.5813 -1.0634  0.4916
13053SOL     OW39736   1.296   8.935   7.126  0.2681  0.1230 -0.1213
13053SOL    HW139737   1.365   8.981   7.077 -0.9154 -0.1930 -2.1976
13053SOL    HW239738   1.225   8.925   7.063 -0.6704 -1.9146  1.1614
13054SOL     OW39739   2.186   7.028   9.885  0.1544  0.4990 -0.3116
13054SOL    HW139740   2.115   6.974   9.852  0.1357  0.6507 -0.5212
13054SOL    HW239741   2.262   7.001   9.833  0.0127  1.1034 -0.8442
13055SOL     OW39742   3.028   7.528   8.603  0.5800 -0.0166  0.6843
13055SOL    HW139743   3.000   7.583   8.676  0.4262  0.4174  0.3076
13055SOL    HW239744   3.121   7.550   8.591  0.2013  1.1993 -0.3281
13056SOL     OW39745   3.970   3.870   9.409  0.0304  0.0696  0.1236
13056SOL    HW139746   4.058   3.858   9.375  0.0366 -3.2437  0.9949
13056SOL    HW239747   3.970   3.958   9.447  2.0658  1.1983 -2.2084
13057SOL     OW39748   6.774   1.401   6.545 -0.2627  0.3506 -0.9692
13057SOL    HW139749   6.834   1.332   6.575  0.1071  0.4550 -1.4546
13057SOL    HW239750   6.790   1.406   6.451 -0.5642  0.8382 -0.9915
13058SOL     OW39751   2.819   0.955   5.172  0.5510 -0.1063  0.1113
13058SOL    HW139752   2.744   0.946   5.114 -0.9205  0.5461  1.8144
13058SOL    HW239753   2.852   0.866   5.184 -2.7730 -1.1974  2.8090
13059SOL     OW39754   1.891   0.923   1.090 -0.1452 -1.2424 -0.9399
13059SOL    HW139755   1.810   0.897   1.045 -1.7073 -0.9588  1.4772
13059SOL    HW239756   1.875   0.901   1.182  1.1543  1.9175  0.2033
13060SOL     OW39757   7.720   5.197   1.318  0.1733  1.1494 -0.0566
13060SOL    HW139758   7.748   5.107   1.333 -1.9493  0.6355  1.1668
13060SOL    HW239759   7.781   5.249   1.371  0.6841  0.3498  0.1605
13061SOL     OW39760   6.010   3.339   4.616  0.3857  0.3487 -0.1395
13061SOL    HW139761   5.940   3.382   4.566  0.5037 -1.6880 -2.2174
13061SOL    HW239762   6.040   3.406   4.677 -0.8959  2.4658 -1.6814
13062SOL     OW39763   0.513   5.501   6.015 -0.0667  0.2156 -0.2382
13062SOL    HW139764   0.571   5.529   5.944  0.2967 -0.9387 -0.4129
13062SOL    HW239765   0.452   5.574   6.025 -0.6814  0.0601 -2.3283
13063SOL     OW39766   0.502   3.581   7.954 -0.1750  0.1391 -0.4680
13063SOL    HW139767   0.508   3.559   8.048 -2.1330 -0.4982 -0.4413
13063SOL    HW239768   0.506   3.496   7.910  4.5561  0.5513 -1.3780
13064SOL     OW39769   3.625   4.026   9.465  0.1587 -0.2988 -0.2384
13064SOL    HW139770   3.665   4.077   9.393  2.5598 -3.9066 -1.7384
13064SOL    HW239771   3.545   3.991   9.427 -1.0537  1.5015  0.5214
13065SOL     OW39772   7.320   5.828   2.071  0.2729 -0.0563  0.2579
13065SOL    HW139773   7.271   5.855   1.993  2.1732  0.4743 -0.8082
13065SOL    HW239774   7.264   5.761   2.112 -2.1541  1.7332  0.1267
13066SOL     OW39775   0.895   8.517   9.925 -0.4287  0.5637 -0.0979
13066SOL    HW139776   0.945   8.500  10.005  0.8511 -1.6513 -1.2745
13066SOL    HW239777   0.813   8.469   9.938 -0.1985  0.1574 -0.1423
13067SOL     OW39778   4.030   3.997   8.395 -0.2101  0.4431 -0.3133
13067SOL    HW139779   3.976   4.074   8.383 -0.1221  0.5241 -0.1916
13067SOL    HW239780   4.120   4.028   8.385 -0.1863  0.2997 -0.5641
13068SOL     OW39781   2.179   5.506   8.155  0.2249  0.2885  0.0846
13068SOL    HW139782   2.214   5.425   8.117  0.8818  0.3385  0.5624
13068SOL    HW239783   2.250   5.539   8.210 -0.1058  1.0956  0.0375
13069SOL     OW39784   9.192   2.259   4.404  0.6214 -0.2183 -0.1953
13069SOL    HW139785   9.108   2.225   4.433 -0.2333  0.9298 -1.2063
13069SOL    HW239786   9.202   2.342   4.450  1.1119 -0.2582 -0.2231
13070SOL     OW39787   4.613   2.224   7.568 -0.1386  0.2284  0.5888
13070SOL    HW139788   4.704   2.254   7.573  0.1682 -0.2499 -1.3486
13070SOL    HW239789   4.563   2.292   7.613  0.8606  2.1687 -1.0634
13071SOL     OW39790   8.012   4.283   4.847  0.3368  0.6970  0.8090
13071SOL    HW139791   7.994   4.303   4.755 -1.6080  0.4822  1.0997
13071SOL    HW239792   8.015   4.187   4.850 -1.7217  0.6012  1.2705
13072SOL     OW39793   1.252   7.964   8.901  0.0160 -0.4989 -0.0386
13072SOL    HW139794   1.298   8.048   8.911 -0.5857 -0.1672  0.0242
13072SOL    HW239795   1.232   7.937   8.990  0.5195 -0.8901 -0.0424
13073SOL     OW39796   6.860   7.679   9.349 -0.3160  0.3680 -0.2336
13073SOL    HW139797   6.877   7.598   9.397  0.3495  1.1873  0.9705
13073SOL    HW239798   6.906   7.667   9.265  0.8575 -0.0112  0.4354
13074SOL     OW39799   5.993   1.963   7.247 -0.0132  0.4629  0.4407
13074SOL    HW139800   6.028   1.915   7.322  0.6640 -1.4042 -0.9903
13074SOL    HW239801   5.928   2.022   7.285 -0.2343 -0.9385  2.4294
13075SOL     OW39802   9.943   4.706   8.372 -0.5691 -0.2771  0.1276
13075SOL    HW139803   9.958   4.620   8.411 -0.6563 -2.2397 -3.6418
13075SOL    HW239804   9.849   4.711   8.360 -0.4271 -0.5485 -1.3093
13076SOL     OW39805   0.611   7.603   7.973  0.1935  0.5187 -0.2877
13076SOL    HW139806   0.703   7.582   7.961 -0.3823 -2.4925 -0.2832
13076SOL    HW239807   0.598   7.684   7.925  2.7816  0.9154 -0.4450
13077SOL     OW39808   8.903   7.467   9.592 -0.7489 -0.6245 -0.1284
13077SOL    HW139809   8.957   7.390   9.574  0.7652 -0.1499  1.9359
13077SOL    HW239810   8.896   7.512   9.508  4.0499  0.4526 -0.2179
13078SOL     OW39811   5.957   3.977   5.701 -0.1300  0.5680  0.3167
13078SOL    HW139812   6.014   4.023   5.640  0.6101 -1.5321 -0.6579
13078SOL    HW239813   5.878   4.031   5.705  1.0841  2.4565  0.0965
13079SOL     OW39814   6.363   0.635   3.038  0.2533 -0.3493  0.1346
13079SOL    HW139815   6.366   0.719   3.084  1.8795  0.2422 -0.9601
13079SOL    HW239816   6.330   0.573   3.102  1.0115  0.7333  1.6194
13080SOL     OW39817   0.369   8.517   8.123 -0.1449 -0.0231 -0.0683
13080SOL    HW139818   0.297   8.540   8.182 -1.0588 -1.0525 -0.7418
13080SOL    HW239819   0.327   8.502   8.038  0.9473 -0.0928 -0.6137
13081SOL     OW39820   3.146   5.341   2.487 -0.2261 -0.5718  0.2478
13081SOL    HW139821   3.098   5.383   2.559  0.1699  1.9954 -0.8694
13081SOL    HW239822   3.083   5.339   2.415  0.4291  0.1908 -0.3673
13082SOL     OW39823   0.562   1.175   9.962  0.2286  0.1409 -0.5762
13082SOL    HW139824   0.500   1.152   9.892 -3.1000  0.5673  1.9697
13082SOL    HW239825   0.538   1.265   9.986  2.3705  0.5771  0.0997
13083SOL     OW39826   1.496   4.018   2.389 -0.0114 -0.2716  1.1607
13083SOL    HW139827   1.537   4.041   2.305 -0.3724 -0.1506  1.0134
13083SOL    HW239828   1.409   3.986   2.365  0.0722 -0.7237  1.4541
13084SOL     OW39829   9.000   1.718   0.545 -0.1187  0.0611 -0.2866
13084SOL    HW139830   8.907   1.699   0.550  0.2754 -2.2717 -0.3473
13084SOL    HW239831   9.016   1.783   0.613 -2.3080  3.2783 -2.5974
13085SOL     OW39832   2.405   8.481   7.924 -0.2195  0.9123 -0.2466
13085SOL    HW139833   2.385   8.565   7.884 -2.9338 -0.5650 -2.3619
13085SOL    HW239834   2.320   8.448   7.955  0.4182 -1.6690 -0.9373
13086SOL     OW39835   3.784   4.845   0.340  0.2735 -0.1606 -0.0966
13086SOL    HW139836   3.793   4.829   0.433  0.9049 -0.0369 -0.1361
13086SOL    HW239837   3.821   4.768   0.298 -1.7300 -1.1140 -0.2529
13087SOL     OW39838   2.680   3.776   9.834 -0.1115  0.1268 -0.0279
13087SOL    HW139839   2.671   3.858   9.785 -4.0702 -0.3335 -0.4344
13087SOL    HW239840   2.702   3.711   9.767  1.5639  0.5508  0.0650
13088SOL     OW39841   0.868   7.487   9.643 -0.2240 -0.6680 -0.1241
13088SOL    HW139842   0.864   7.402   9.598 -0.3012 -0.3150 -0.7988
13088SOL    HW239843   0.786   7.530   9.619  0.5735  0.3074 -1.2383
13089SOL     OW39844   6.161   9.950   6.354 -0.5403 -0.1021  0.1589
13089SOL    HW139845   6.113   9.875   6.321  2.1550 -1.3327 -1.3427
13089SOL    HW239846   6.193   9.995   6.275 -0.0820  1.2168  1.0509
13090SOL     OW39847   1.825   9.507   8.665  0.3834 -0.5055  0.0345
13090SOL    HW139848   1.826   9.469   8.753  0.4062 -0.7325 -0.0654
13090SOL    HW239849   1.871   9.444   8.610  0.9969 -0.0415 -0.0063
13091SOL     OW39850   0.927   7.841   7.115 -0.4260  0.1501  0.3052
13091SOL    HW139851   0.948   7.913   7.175 -0.0384 -0.1813  0.5718
13091SOL    HW239852   0.942   7.877   7.028 -0.2027  0.3847  0.4398
13092SOL     OW39853   2.543   9.574   4.946 -0.2632  0.3277 -0.3731
13092SOL    HW139854   2.627   9.597   4.985  0.4017 -1.3522 -0.7691
13092SOL    HW239855   2.511   9.500   4.998 -0.2965 -0.6621 -1.7488
13093SOL     OW39856   9.010   4.275   1.758 -0.1783  0.1640  0.5313
13093SOL    HW139857   9.010   4.370   1.752  1.3844  0.2397  1.2952
13093SOL    HW239858   9.033   4.245   1.670 -1.4672  0.4376  0.0765
13094SOL     OW39859   8.434   1.851   7.353  0.3859  0.4327 -0.3927
13094SOL    HW139860   8.495   1.873   7.423  1.3857 -0.0922 -1.0847
13094SOL    HW239861   8.353   1.826   7.398  1.5863 -1.7753  0.6820
13095SOL     OW39862   3.440   3.333   5.940  0.2087 -0.5908 -0.1182
13095SOL    HW139863   3.397   3.418   5.950  0.4455 -0.5800  1.0141
13095SOL    HW239864   3.527   3.354   5.908 -0.2233 -0.5279 -1.2889
13096SOL     OW39865   3.453   8.569   2.887  0.3506 -0.4400 -0.2123
13096SOL    HW139866   3.494   8.596   2.805 -0.5129  1.4509 -0.0730
13096SOL    HW239867   3.381   8.512   2.860 -1.0808  1.6117 -0.9694
13097SOL     OW39868   5.590   7.191   8.092 -0.0147 -0.6620 -0.1266
13097SOL    HW139869   5.546   7.273   8.115  0.0625 -0.9376  1.0178
13097SOL    HW239870   5.605   7.146   8.175  2.9929 -0.3287 -0.3725
13098SOL     OW39871   7.296   8.853   6.486 -0.2279 -0.2898 -0.1591
13098SOL    HW139872   7.382   8.895   6.484 -0.4023  0.0443 -0.6352
13098SOL    HW239873   7.288   8.820   6.575  0.7567 -1.0692 -0.3415
13099SOL     OW39874   8.231   2.051   8.519 -0.4663  0.1642 -0.7407
13099SOL    HW139875   8.176   2.072   8.444  0.3961  1.1099 -1.1243
13099SOL    HW239876   8.290   1.983   8.487 -0.8110 -0.2099 -0.5910
13100SOL     OW39877   4.154   6.242   7.368 -0.4348  0.1132  0.2487
13100SOL    HW139878   4.117   6.154   7.368 -0.9868  0.3370  0.3682
13100SOL    HW239879   4.104   6.289   7.435 -0.3067  0.5772  0.0258
13101SOL     OW39880   1.286   9.266   8.151  0.0646 -0.1160 -0.1181
13101SOL    HW139881   1.261   9.302   8.066 -0.2259  0.2087  0.1011
13101SOL    HW239882   1.360   9.320   8.179 -0.1824  0.1216  0.0773
13102SOL     OW39883   3.400   8.032   9.216 -0.3019 -0.1666  0.8430
13102SOL    HW139884   3.474   8.076   9.174 -0.0611 -0.9534  0.4226
13102SOL    HW239885   3.422   8.034   9.310 -0.7848  1.4814  0.9639
13103SOL     OW39886   9.903   6.785   9.101  0.4050  0.8126  0.0630
13103SOL    HW139887   9.819   6.755   9.066  0.7920 -1.7242  1.0962
13103SOL    HW239888   9.930   6.855   9.041 -1.6567  0.5815 -1.2408
13104SOL     OW39889   3.761   5.510   4.636  0.3109  0.1838 -0.2570
13104SOL    HW139890   3.698   5.557   4.690 -0.0821  0.2927 -0.7943
13104SOL    HW239891   3.847   5.543   4.664  0.2773 -1.2706  1.7234
13105SOL     OW39892   2.660   7.559   2.420 -0.1969 -0.1480 -0.6290
13105SOL    HW139893   2.713   7.486   2.454 -2.0500 -1.4219 -0.2839
13105SOL    HW239894   2.661   7.624   2.490  0.6527 -0.2798 -0.5128
13106SOL     OW39895   3.317   7.715   6.173 -0.4565 -0.6743 -0.4829
13106SOL    HW139896   3.237   7.665   6.190 -0.8051 -1.2593 -3.3066
13106SOL    HW239897   3.298   7.802   6.206 -2.2320 -0.8427 -0.9382
13107SOL     OW39898   6.914   6.601   8.130  0.0612  0.2906  0.0823
13107SOL    HW139899   6.995   6.580   8.084 -0.2371 -0.0805 -0.2822
13107SOL    HW239900   6.883   6.681   8.089  0.4786  0.6840  0.5311
13108SOL     OW39901   9.876   7.948   2.506 -0.9396 -0.6242  0.1081
13108SOL    HW139902   9.858   7.871   2.452 -0.8700 -0.4654 -0.1420
13108SOL    HW239903   9.825   8.018   2.466  0.3265 -0.1264 -0.7080
13109SOL     OW39904   2.848   8.971   0.646  0.2478 -0.4503  0.2919
13109SOL    HW139905   2.854   8.956   0.740  1.1710  1.2344  0.5484
13109SOL    HW239906   2.784   9.041   0.637  0.3121 -0.4659 -0.3149
13110SOL     OW39907   7.331   7.307   5.651  0.5408 -0.0033  0.4563
13110SOL    HW139908   7.257   7.331   5.596  1.9016  1.3238 -0.9355
13110SOL    HW239909   7.301   7.320   5.741 -0.0681  3.4766 -0.1168
13111SOL     OW39910   2.126   1.805   0.907  0.4461 -0.0608 -0.4938
13111SOL    HW139911   2.083   1.761   0.980 -0.4922  1.2355 -0.2224
13111SOL    HW239912   2.105   1.751   0.831 -0.6668 -0.1091 -0.1698
13112SOL     OW39913   0.771   9.068   0.880 -0.1866  0.1569  0.4368
13112SOL    HW139914   0.811   9.142   0.925  1.1868  1.0580 -2.0937
13112SOL    HW239915   0.741   9.104   0.797 -3.2440 -1.2754  0.7743
13113SOL     OW39916   5.531   5.849   8.678 -0.8185  0.8908  0.1594
13113SOL    HW139917   5.521   5.798   8.598 -0.5698 -2.1155  1.9309
13113SOL    HW239918   5.603   5.910   8.658 -0.8864  0.3532 -1.9276
13114SOL     OW39919   3.999   9.404   5.578 -0.0593 -0.1140  0.5306
13114SOL    HW139920   3.904   9.389   5.579 -0.2920  1.0144 -0.8681
13114SOL    HW239921   4.022   9.423   5.669 -0.6046 -3.3821  1.4728
13115SOL     OW39922   3.348   1.848   3.462 -0.1407 -0.2181 -0.1063
13115SOL    HW139923   3.407   1.813   3.528  1.4059  2.0672 -0.1551
13115SOL    HW239924   3.396   1.921   3.423 -2.9097  1.7122 -0.2473
13116SOL     OW39925   0.206   9.633   0.729  0.0126 -0.3502 -0.1743
13116SOL    HW139926   0.293   9.643   0.689 -0.0546 -2.7984 -1.0813
13116SOL    HW239927   0.145   9.659   0.659 -0.0433  0.7175  0.2438
13117SOL     OW39928   5.597   9.335   9.058  0.1518 -0.4699  0.0396
13117SOL    HW139929   5.679   9.295   9.088 -0.2915 -0.4883  1.2999
13117SOL    HW239930   5.569   9.389   9.132 -1.1643 -0.7639 -0.2150
13118SOL     OW39931   3.401   2.149   8.176  0.0105 -0.2112  0.3318
13118SOL    HW139932   3.487   2.186   8.153 -1.0255  1.1439 -1.6193
13118SOL    HW239933   3.413   2.054   8.167  1.4041 -0.0635  0.4279
13119SOL     OW39934   9.337   1.071   2.546 -0.2903 -0.4941 -0.6279
13119SOL    HW139935   9.290   1.073   2.463  0.2256 -1.1800 -0.9367
13119SOL    HW239936   9.423   1.036   2.525 -0.2062 -0.8130  0.2211
13120SOL     OW39937   9.906   6.015   5.052 -0.9376  0.5445  0.1554
13120SOL    HW139938   9.829   6.033   4.998 -1.5344 -0.3057  0.6839
13120SOL    HW239939   9.945   5.938   5.011  0.1859  1.5171 -0.6577
13121SOL     OW39940   8.102   0.484   6.934 -0.5438 -0.3859  0.2707
13121SOL    HW139941   8.155   0.425   6.988 -0.8180 -0.3199  0.6111
13121SOL    HW239942   8.055   0.426   6.874 -0.1312 -0.4491  0.0030
13122SOL     OW39943   9.306   6.363   3.854  0.2325 -0.0152 -0.3229
13122SOL    HW139944   9.322   6.269   3.842  0.4816  0.0598 -0.5883
13122SOL    HW239945   9.350   6.385   3.936 -0.1240 -0.2007 -0.0779
13123SOL     OW39946   8.432   3.898   1.033  0.1877 -0.1608 -0.2433
13123SOL    HW139947   8.365   3.939   0.979  1.1504  2.1919  0.1828
13123SOL    HW239948   8.514   3.935   1.002  0.8080  1.1315  2.5378
13124SOL     OW39949   0.193   5.837   4.116 -0.1895 -0.0077  0.0605
13124SOL    HW139950   0.163   5.818   4.027  1.1425  1.4984 -0.7684
13124SOL    HW239951   0.285   5.862   4.105  0.1719 -0.3639  1.9559
13125SOL     OW39952   5.271   9.212   7.613 -0.3141 -0.1604  0.0992
13125SOL    HW139953   5.309   9.150   7.676 -1.6548 -1.3857 -0.2200
13125SOL    HW239954   5.346   9.249   7.568  0.6319 -0.0380  1.6885
13126SOL     OW39955   6.694   4.443   0.899  0.2127  0.5141  0.2272
13126SOL    HW139956   6.739   4.399   0.828  1.2819  0.9291  0.6301
13126SOL    HW239957   6.732   4.531   0.902 -1.2868  1.2144 -0.0275
13127SOL     OW39958   3.649   2.844   3.791 -0.4182 -0.7458 -0.2253
13127SOL    HW139959   3.585   2.860   3.860 -0.2315  1.5924 -0.5371
13127SOL    HW239960   3.733   2.866   3.830 -0.2474  0.0103 -0.9888
13128SOL     OW39961   8.643   9.621   3.779  0.9008  0.4818  0.1556
13128SOL    HW139962   8.672   9.570   3.855  1.8676  1.0179  0.1669
13128SOL    HW239963   8.722   9.629   3.725  0.5001  1.0878 -0.3413
13129SOL     OW39964   4.698   7.369   2.834 -0.4388  0.1971 -0.2119
13129SOL    HW139965   4.614   7.350   2.876 -0.7886  1.4121 -0.3230
13129SOL    HW239966   4.728   7.284   2.802 -1.8090 -0.2114 -0.4957
13130SOL     OW39967   4.078   4.375   0.612  0.2062 -0.2637  0.2152
13130SOL    HW139968   3.990   4.357   0.578 -0.6428  2.2900  0.8165
13130SOL    HW239969   4.067   4.374   0.707  0.7436  0.3300  0.2875
13131SOL     OW39970   2.078   9.227   8.954  0.2925 -0.1028 -0.0937
13131SOL    HW139971   1.998   9.280   8.957 -0.3467 -0.9942 -0.6407
13131SOL    HW239972   2.047   9.138   8.973  1.1955 -0.4232 -0.0979
13132SOL     OW39973   7.903   5.547   2.368 -0.2117 -0.1493  0.4625
13132SOL    HW139974   7.887   5.486   2.440 -1.6164 -1.2430 -0.7113
13132SOL    HW239975   7.899   5.493   2.289 -0.6934  1.3183 -0.5677
13133SOL     OW39976   9.621   3.346   7.131  0.3795 -0.3915 -0.1075
13133SOL    HW139977   9.585   3.282   7.192  1.0788 -0.3013  0.4057
13133SOL    HW239978   9.668   3.408   7.186 -0.6608  0.8333 -0.5448
13134SOL     OW39979   1.521   4.302   3.296  0.0487  0.5428  0.5819
13134SOL    HW139980   1.543   4.304   3.389 -0.1190 -3.3057  0.8542
13134SOL    HW239981   1.430   4.274   3.294  0.4859 -0.9003 -0.7311
13135SOL     OW39982   1.641   7.016   4.070 -0.9297  0.1677 -0.2153
13135SOL    HW139983   1.691   6.982   3.996  0.7381  0.3712  0.7855
13135SOL    HW239984   1.552   6.982   4.057 -0.3032 -1.0572 -1.4718
13136SOL     OW39985   7.532   7.737   9.809  0.1203  0.0211 -0.1234
13136SOL    HW139986   7.625   7.715   9.804  0.3605  0.5874  1.4050
13136SOL    HW239987   7.489   7.658   9.842 -0.0205 -0.3856 -1.2471
13137SOL     OW39988   9.135   0.198   4.798 -0.3951  0.5267 -0.5553
13137SOL    HW139989   9.167   0.245   4.721 -1.5564  0.7274 -0.9311
13137SOL    HW239990   9.098   0.266   4.854  1.2898  0.5174  0.6605
13138SOL     OW39991   9.820   5.949   5.981 -0.2610  0.1937 -0.4381
13138SOL    HW139992   9.814   5.960   5.886 -0.8718  0.3794 -0.3850
13138SOL    HW239993   9.867   5.867   5.993  0.6505  0.6339 -0.8888
13139SOL     OW39994   0.001   9.514   2.656 -0.5534  0.1168  0.5698
13139SOL    HW139995   0.046   9.499   2.573  0.1949  0.1045  0.9669
13139SOL    HW239996  -0.032   9.603   2.650  0.3807  0.4835  0.6468
13140SOL     OW39997   4.219   8.645   4.413 -0.1555 -0.4090  0.1595
13140SOL    HW139998   4.176   8.621   4.331  1.9388 -1.1220 -0.7863
13140SOL    HW239999   4.223   8.563   4.462 -0.3369 -0.2273  0.4854
13141SOL     OW40000   9.878   9.732   6.059  0.4940 -0.4461  1.0637
13141SOL    HW140001   9.931   9.786   6.117  2.3335  0.9181 -1.6548
13141SOL    HW240002   9.930   9.726   5.978 -1.6338 -2.6838 -0.2784
13142SOL     OW40003   2.529   0.376   3.540  0.0137  0.3220 -0.5447
13142SOL    HW140004   2.567   0.334   3.617  1.3094  0.0392 -1.2988
13142SOL    HW240005   2.545   0.315   3.468  1.1047  1.6503 -1.4924
13143SOL     OW40006   4.824   7.707   6.981  0.2969  0.1085 -0.1111
13143SOL    HW140007   4.766   7.650   7.030  1.1613 -0.7444 -0.0563
13143SOL    HW240008   4.888   7.738   7.046 -0.9686  2.3214  0.2016
13144SOL     OW40009   4.040   2.899   5.417  0.0088 -0.1019  0.6589
13144SOL    HW140010   4.107   2.836   5.393 -0.0182  0.0672  0.1259
13144SOL    HW240011   3.963   2.874   5.365 -0.4927 -0.5684  1.5953
13145SOL     OW40012   3.331   3.616   5.930  0.0746 -0.3183  0.5635
13145SOL    HW140013   3.326   3.670   6.009 -1.4480  0.3155  0.0744
13145SOL    HW240014   3.384   3.666   5.869 -1.6421  0.8883 -0.0240
13146SOL     OW40015   7.014   0.397   0.909  0.2514 -0.5274  0.0478
13146SOL    HW140016   6.923   0.368   0.915 -0.1259 -0.0880 -2.4529
13146SOL    HW240017   7.015   0.483   0.951 -0.2429 -0.9657  0.9782
13147SOL     OW40018   7.100   5.804   8.767  0.5723 -0.2886 -0.1932
13147SOL    HW140019   7.081   5.882   8.819 -1.4682 -1.5698  1.1219
13147SOL    HW240020   7.089   5.833   8.676 -0.3081  0.9304  0.2682
13148SOL     OW40021   8.037   8.984   4.832  0.3290  0.1003 -0.6844
13148SOL    HW140022   8.059   9.025   4.748 -0.2495  0.8424 -0.4861
13148SOL    HW240023   8.088   8.903   4.834  1.3838  0.7315 -1.1687
13149SOL     OW40024   9.635   2.596   9.082 -0.4132  0.2006  0.6528
13149SOL    HW140025   9.665   2.655   9.152 -0.3188 -1.3369  1.9689
13149SOL    HW240026   9.600   2.654   9.015  1.1244  1.8352  1.1857
13150SOL     OW40027   0.569   0.904   1.263  0.0098 -0.0048 -0.7495
13150SOL    HW140028   0.643   0.945   1.308 -0.8050  1.9892 -1.1450
13150SOL    HW240029   0.498   0.905   1.327  0.0824 -1.2683 -0.6143
13151SOL     OW40030   9.193   4.365   2.092 -0.6888  0.2361 -0.6208
13151SOL    HW140031   9.111   4.319   2.072 -0.8529 -0.6625  1.8434
13151SOL    HW240032   9.181   4.399   2.180  1.6218  0.0131 -0.1659
13152SOL     OW40033   0.333   4.250   2.919  0.6340 -0.2129  0.0416
13152SOL    HW140034   0.266   4.260   2.851  1.2032  0.2720 -0.4620
13152SOL    HW240035   0.321   4.161   2.952 -0.4908 -0.0140  0.2190
13153SOL     OW40036   5.326   8.237   9.202  0.5240 -0.3223  0.5444
13153SOL    HW140037   5.383   8.186   9.144 -0.3176  0.6182 -1.1891
13153SOL    HW240038   5.355   8.214   9.290  0.7077 -3.1861 -0.1602
13154SOL     OW40039   0.130   2.190   9.278 -0.1283  0.7204 -0.3685
13154SOL    HW140040   0.091   2.215   9.194 -2.1422 -1.3255 -0.1183
13154SOL    HW240041   0.114   2.264   9.335 -2.0104  0.6989 -0.8176
13155SOL     OW40042   9.001   5.173   5.055  0.0327 -0.1657  0.2397
13155SOL    HW140043   9.025   5.119   4.980  1.7786 -0.0213  0.6478
13155SOL    HW240044   9.068   5.154   5.121 -0.7039  0.6999  1.2838
13156SOL     OW40045   6.677   3.432   1.510  0.1398  0.2891  0.2506
13156SOL    HW140046   6.613   3.480   1.562  0.4297  0.2353  0.6547
13156SOL    HW240047   6.658   3.339   1.527  0.3897  0.2741  0.4483
13157SOL     OW40048   1.012   9.688   4.652  0.0951 -0.6845 -0.1077
13157SOL    HW140049   0.955   9.699   4.576 -0.1237  2.6448  0.4065
13157SOL    HW240050   0.956   9.704   4.728  1.0519 -0.4077  0.5640
13158SOL     OW40051   3.864   3.672   9.633  0.0396 -0.2754 -0.0443
13158SOL    HW140052   3.787   3.631   9.593  0.4275 -1.0235 -0.0428
13158SOL    HW240053   3.866   3.761   9.595 -0.3240 -0.5424 -0.7122
13159SOL     OW40054   0.965   0.294   6.121  0.0673 -0.2686  0.1432
13159SOL    HW140055   1.042   0.242   6.097 -0.8774 -0.6979 -2.2186
13159SOL    HW240056   0.941   0.262   6.208  1.9174 -0.8402  0.4985
13160SOL     OW40057   5.462   4.270   2.938 -0.0410 -0.1047  0.1888
13160SOL    HW140058   5.412   4.334   2.989  1.2168  1.4802 -0.4550
13160SOL    HW240059   5.396   4.215   2.897 -1.2691  1.7410 -0.4182
13161SOL     OW40060   2.798   0.025   0.367 -0.1573 -0.3045 -0.2147
13161SOL    HW140061   2.717   0.060   0.330 -1.7105 -1.3121  2.0475
13161SOL    HW240062   2.803  -0.065   0.335 -0.6012 -0.6301  0.6037
13162SOL     OW40063   8.814   0.593   8.817 -0.9301 -0.2082  0.4863
13162SOL    HW140064   8.767   0.581   8.734  0.1149 -0.7289 -0.0570
13162SOL    HW240065   8.895   0.543   8.806 -0.0243  1.0368  1.1960
13163SOL     OW40066   2.486   3.336   8.164  0.2502 -0.0792 -0.6049
13163SOL    HW140067   2.449   3.272   8.102  0.1406 -0.7201  0.1167
13163SOL    HW240068   2.515   3.284   8.238  0.6565  0.6601 -0.2401
13164SOL     OW40069   6.234   0.177   2.769  0.3557 -0.0518  0.6187
13164SOL    HW140070   6.180   0.129   2.706  2.4666  0.1384 -1.4567
13164SOL    HW240071   6.277   0.110   2.821  0.1552 -0.2804  0.4881
13165SOL     OW40072   3.386   0.283   5.557  0.4648  0.3599  0.1790
13165SOL    HW140073   3.327   0.295   5.631  0.6364 -2.9311  0.9764
13165SOL    HW240074   3.459   0.343   5.576  0.5471 -0.4308  2.7800
13166SOL     OW40075   8.508   6.100   6.943 -0.1686  0.1803 -0.6745
13166SOL    HW140076   8.427   6.078   6.990  0.4338 -1.8705 -0.5116
13166SOL    HW240077   8.490   6.075   6.852  0.7341 -1.6764 -0.3784
13167SOL     OW40078   2.644   4.863   4.566  0.9951  0.2834  0.2035
13167SOL    HW140079   2.559   4.899   4.593 -0.8698 -1.7524 -2.4502
13167SOL    HW240080   2.705   4.936   4.579 -1.2152  2.0432  1.6353
13168SOL     OW40081   4.246   7.517   9.800 -0.6204 -0.3628 -0.2809
13168SOL    HW140082   4.159   7.535   9.763 -0.7674 -1.0827 -0.2970
13168SOL    HW240083   4.282   7.449   9.743  0.3763  0.6436 -0.8966
13169SOL     OW40084   5.558   7.731   2.251 -0.2124  0.3453 -0.2344
13169SOL    HW140085   5.573   7.790   2.177  0.3571  0.7994  0.2310
13169SOL    HW240086   5.492   7.669   2.220 -0.9821  1.3492 -0.6775
13170SOL     OW40087   6.477   7.491   8.124  0.0646  0.2872 -0.3400
13170SOL    HW140088   6.474   7.562   8.060 -1.5576  0.6170  0.0563
13170SOL    HW240089   6.511   7.533   8.204  1.5757 -0.0048 -0.7962
13171SOL     OW40090   6.618   7.822   4.407  0.4572 -0.2104 -0.2025
13171SOL    HW140091   6.605   7.739   4.362 -0.6976 -0.1658  0.0143
13171SOL    HW240092   6.702   7.813   4.452  0.1062 -1.4315  0.2215
13172SOL     OW40093   5.215   2.939   3.551  0.5439  0.0910  0.0738
13172SOL    HW140094   5.241   2.875   3.484 -0.3176  0.4267 -0.6015
13172SOL    HW240095   5.297   2.983   3.574  0.6774  0.9265 -1.7778
13173SOL     OW40096   1.506   9.475   1.495 -0.3070  0.3914  0.4464
13173SOL    HW140097   1.543   9.402   1.446 -0.1988  0.1436  0.8917
13173SOL    HW240098   1.573   9.543   1.493  0.1073  0.0111  1.0993
13174SOL     OW40099   4.089   2.830   4.493  0.3606  0.0396  0.3067
13174SOL    HW140100   4.016   2.771   4.515  0.4974  0.1628  1.1337
13174SOL    HW240101   4.100   2.820   4.399 -1.4796  0.8846 -0.0386
13175SOL     OW40102   0.369   7.810   9.864 -0.3458  0.3928  0.3063
13175SOL    HW140103   0.461   7.793   9.846 -0.0252  0.5191  1.6938
13175SOL    HW240104   0.359   7.791   9.957 -1.4848  1.3813  0.4073
13176SOL     OW40105   0.323   0.527   3.259  0.2710 -0.0380  0.2402
13176SOL    HW140106   0.231   0.516   3.235 -0.0464  0.7920  1.0122
13176SOL    HW240107   0.367   0.453   3.219 -0.8380 -0.8245  0.4250
13177SOL     OW40108   6.511   8.020   4.814  0.1340 -0.4342 -0.3342
13177SOL    HW140109   6.597   7.982   4.832 -0.6647 -2.6031 -0.7462
13177SOL    HW240110   6.466   7.954   4.761 -2.2700  0.0381  0.9415
13178SOL     OW40111   9.121   6.628   9.079 -0.0542  0.2442 -0.2886
13178SOL    HW140112   9.051   6.565   9.094  0.8090 -0.4653  1.0123
13178SOL    HW240113   9.094   6.706   9.127  0.3251 -0.2645  0.7931
13179SOL     OW40114   3.654   0.745   8.921  0.6577  0.3652 -0.0199
13179SOL    HW140115   3.613   0.711   9.000  2.1356  1.5833  1.3393
13179SOL    HW240116   3.746   0.757   8.945  1.1277  0.8419 -1.9096
13180SOL     OW40117   7.922   4.294   5.693 -0.1958  0.3357 -0.8387
13180SOL    HW140118   7.956   4.300   5.782 -0.1287  1.2410 -0.9117
13180SOL    HW240119   7.849   4.232   5.699  2.2532 -2.8297 -0.9558
13181SOL     OW40120   5.684   6.736   0.732 -0.4461 -0.3184 -0.5858
13181SOL    HW140121   5.690   6.689   0.815  0.1448 -1.1017 -1.0575
13181SOL    HW240122   5.747   6.808   0.741  1.1262 -1.5826 -1.0818
13182SOL     OW40123   0.307   3.268   3.697  0.1421  0.4617 -0.2437
13182SOL    HW140124   0.369   3.234   3.761 -0.4934 -0.9061 -0.3261
13182SOL    HW240125   0.315   3.210   3.621  1.1201  2.2438 -1.5967
13183SOL     OW40126   6.881   8.478   9.299  0.2565  0.6908  0.2404
13183SOL    HW140127   6.969   8.510   9.278  0.0117  1.3338  0.1990
13183SOL    HW240128   6.828   8.557   9.308 -0.3392  0.3008  0.1747
13184SOL     OW40129   9.924   0.884   3.093 -0.2355 -0.4259 -0.0592
13184SOL    HW140130   9.832   0.906   3.105 -0.3312 -0.2079 -1.0928
13184SOL    HW240131   9.962   0.893   3.180 -1.5132 -2.2024  0.7513
13185SOL     OW40132   5.183   9.196   3.909 -0.2557 -1.0434  0.1527
13185SOL    HW140133   5.234   9.206   3.989 -0.5679  1.2632  0.1259
13185SOL    HW240134   5.220   9.118   3.866  2.3375 -0.2478  0.7819
13186SOL     OW40135   0.013   1.959   9.349  0.3824  0.1907  0.5139
13186SOL    HW140136   0.100   1.925   9.371  0.4713  0.2355  0.2401
13186SOL    HW240137   0.023   2.054   9.355  0.9662  0.3308 -1.6378
13187SOL     OW40138   7.062   5.821   6.568 -0.1663  0.1977 -0.3952
13187SOL    HW140139   7.042   5.911   6.594  0.2574  0.7406 -1.7952
13187SOL    HW240140   7.047   5.768   6.646  0.2789  1.5860  0.6600
13188SOL     OW40141   7.581   8.213   2.616 -0.5049  0.0570  0.2022
13188SOL    HW140142   7.509   8.272   2.596 -0.9643 -0.5346  0.0538
13188SOL    HW240143   7.657   8.252   2.574 -0.7443  0.6728  0.3348
13189SOL     OW40144   7.401   5.069   0.157 -0.1052  0.4788 -0.2389
13189SOL    HW140145   7.452   5.085   0.236 -2.2120  3.4774  0.7090
13189SOL    HW240146   7.339   5.000   0.182 -0.4613  1.0913  0.6366
13190SOL     OW40147   7.685   5.104   5.298 -0.0578 -0.7895 -0.6067
13190SOL    HW140148   7.717   5.096   5.388  1.3301 -0.7274 -1.0718
13190SOL    HW240149   7.764   5.101   5.244 -0.7633  0.4102 -1.7572
13191SOL     OW40150   8.675   0.567   4.755  0.4582  0.4166 -0.4459
13191SOL    HW140151   8.737   0.617   4.703  2.0230 -0.7466  0.2032
13191SOL    HW240152   8.697   0.587   4.846  1.3823 -1.6226 -0.1524
13192SOL     OW40153   5.250   3.331   2.805  0.3701 -0.0577  0.0954
13192SOL    HW140154   5.206   3.270   2.747  1.7991 -1.4711  0.4309
13192SOL    HW240155   5.259   3.411   2.754  0.4177 -0.8429 -1.1533
13193SOL     OW40156   4.604   5.692   4.424 -0.7433  0.0300  0.4053
13193SOL    HW140157   4.536   5.633   4.457  2.2304 -3.7434  0.5043
13193SOL    HW240158   4.592   5.690   4.329  0.4393 -2.5213  0.2241
13194SOL     OW40159   3.661   9.526   9.110 -0.1363  0.2735  0.4512
13194SOL    HW140160   3.718   9.491   9.042  0.8878 -2.2224  2.4217
13194SOL    HW240161   3.574   9.491   9.088  0.5042 -1.9603  1.2807
13195SOL     OW40162   2.720   4.925   3.323  0.0391  0.2622 -0.2131
13195SOL    HW140163   2.680   5.006   3.355  0.0842  0.2235 -0.0611
13195SOL    HW240164   2.647   4.866   3.308 -0.1471  0.8327 -1.7712
13196SOL     OW40165   8.673   0.087   3.183  0.0447 -0.4887 -0.1470
13196SOL    HW140166   8.620   0.025   3.233  0.0312 -0.4782 -0.1482
13196SOL    HW240167   8.624   0.100   3.102  0.1927 -0.7027 -0.2741
13197SOL     OW40168   5.439   0.520   8.095  0.0671  0.0586 -0.2902
13197SOL    HW140169   5.485   0.479   8.022 -0.1690 -0.7842  0.0221
13197SOL    HW240170   5.410   0.446   8.150  0.4807  0.6747  0.8016
13198SOL     OW40171   4.647   8.034   4.528 -0.5515 -0.1348  0.2127
13198SOL    HW140172   4.689   8.040   4.614 -0.9775 -0.8583  0.4876
13198SOL    HW240173   4.693   7.963   4.484 -0.2175  0.3535 -0.2306
13199SOL     OW40174   6.937   9.841   0.449 -0.5797 -0.4139  0.4342
13199SOL    HW140175   6.923   9.763   0.502 -1.2361  0.6517  1.8915
13199SOL    HW240176   6.849   9.878   0.435 -0.3286 -0.1644 -0.6183
13200SOL     OW40177   1.499   5.808   0.731  0.0495  0.1817 -0.3228
13200SOL    HW140178   1.594   5.801   0.726  0.1226  0.6642  0.2587
13200SOL    HW240179   1.475   5.863   0.656  0.3193  0.7608  0.0103
13201SOL     OW40180   6.557   3.658   3.408  0.5965  0.3540  0.5574
13201SOL    HW140181   6.520   3.573   3.384 -1.8340  0.9067  1.9778
13201SOL    HW240182   6.524   3.718   3.341  0.8422  0.4780  0.5450
13202SOL     OW40183   2.315   1.737   9.817 -0.1240 -0.4365  0.1382
13202SOL    HW140184   2.306   1.648   9.852 -1.7591 -0.2496  0.2926
13202SOL    HW240185   2.328   1.725   9.723 -0.3441 -0.8465  0.1557
13203SOL     OW40186   1.843   9.391   2.875 -0.1569  0.7309 -0.2045
13203SOL    HW140187   1.873   9.420   2.962 -0.3347  1.0085 -0.2339
13203SOL    HW240188   1.869   9.462   2.816 -1.7502  1.4750 -0.0764
13204SOL     OW40189   0.580   8.089   1.916  0.1031  0.5033  0.1118
13204SOL    HW140190   0.516   8.156   1.938 -1.1537 -0.9741  1.2413
13204SOL    HW240191   0.641   8.088   1.989  0.5722  0.9218 -0.2687
13205SOL     OW40192   6.319   3.594   7.188 -0.2844  0.0878  0.0293
13205SOL    HW140193   6.236   3.640   7.199 -1.1402 -0.5878 -2.7739
13205SOL    HW240194   6.297   3.502   7.198  0.8712  0.0176  2.7137
13206SOL     OW40195   9.279   1.297   0.458 -0.4332  0.5565 -0.4399
13206SOL    HW140196   9.292   1.355   0.533  1.5199  1.7204 -1.5820
13206SOL    HW240197   9.189   1.312   0.432 -1.2020  0.0159  1.7237
13207SOL     OW40198   3.474   7.405   5.837  0.0902 -0.2121  0.1148
13207SOL    HW140199   3.557   7.452   5.835 -0.6006  1.0533 -1.0758
13207SOL    HW240200   3.411   7.470   5.870 -0.3524 -1.3067  1.4968
13208SOL     OW40201   2.005   7.953   7.710 -0.0996  0.5352 -0.6230
13208SOL    HW140202   1.925   7.913   7.746 -0.3669  0.2250 -1.5316
13208SOL    HW240203   2.046   7.997   7.785 -0.9444  0.4057 -0.0720
13209SOL     OW40204   1.928   1.012   6.346  0.4329 -0.3835  0.4306
13209SOL    HW140205   1.884   1.035   6.264 -0.9815 -2.1428  0.6294
13209SOL    HW240206   1.857   1.003   6.409  1.3026 -1.0860  1.3288
13210SOL     OW40207   5.010   1.951   2.831  0.0759  0.0161  0.3794
13210SOL    HW140208   4.962   1.871   2.853  0.9624 -0.6578 -0.0859
13210SOL    HW240209   5.066   1.927   2.758  1.4496  0.6559  1.1751
13211SOL     OW40210   1.278   0.765   1.880  0.3616  0.1335 -0.3921
13211SOL    HW140211   1.369   0.745   1.900 -0.1439 -2.1544 -0.0297
13211SOL    HW240212   1.278   0.788   1.787  1.4532  1.4451 -0.0919
13212SOL     OW40213   4.759   4.350   4.335  0.6578 -0.0857 -0.2288
13212SOL    HW140214   4.673   4.349   4.376  0.8644 -0.4507  0.2060
13212SOL    HW240215   4.751   4.413   4.263  0.5685  1.3866  1.0134
13213SOL     OW40216   4.839   0.850   4.056 -0.5332  0.1446 -0.2132
13213SOL    HW140217   4.870   0.862   3.966  0.5392  0.7070  0.2177
13213SOL    HW240218   4.785   0.770   4.052 -1.2187  0.6419 -1.5167
13214SOL     OW40219   7.375   1.803   7.844  0.0125 -0.1398  0.0507
13214SOL    HW140220   7.429   1.880   7.828 -0.8852  0.9010  1.7410
13214SOL    HW240221   7.310   1.805   7.774 -1.0921  1.7250  1.0452
13215SOL     OW40222   5.040   3.687   1.163 -0.8457 -0.5050  0.9436
13215SOL    HW140223   4.963   3.742   1.148  0.8794  1.6851 -0.5454
13215SOL    HW240224   5.107   3.748   1.194  1.2004 -1.7108 -0.8772
13216SOL     OW40225   5.007   8.172   8.645 -0.2010 -0.4397  0.3454
13216SOL    HW140226   4.959   8.254   8.652 -0.9005 -0.7606 -0.5561
13216SOL    HW240227   5.091   8.196   8.605 -0.6241 -0.2505 -0.4250
13217SOL     OW40228   5.973   8.144   6.479 -0.3593  0.3299 -0.2874
13217SOL    HW140229   5.977   8.229   6.435 -2.6465  1.5948  1.7534
13217SOL    HW240230   5.882   8.135   6.507  0.1983 -2.0563  1.0212
13218SOL     OW40231   2.099   2.751   2.309  0.2363 -0.2924 -0.3201
13218SOL    HW140232   2.069   2.691   2.378 -1.1893  2.1909  1.3863
13218SOL    HW240233   2.157   2.812   2.354  0.2538  0.6790 -1.6061
13219SOL     OW40234   5.962   8.420   9.414  0.1526  0.0035 -1.2900
13219SOL    HW140235   5.875   8.381   9.404  0.2663 -1.2605  1.5832
13219SOL    HW240236   6.021   8.360   9.368 -0.0657 -1.6330  0.4171
13220SOL     OW40237   6.668   6.002   8.774  0.2646  0.4894  0.2197
13220SOL    HW140238   6.744   5.948   8.798  1.3183  1.6104 -0.5013
13220SOL    HW240239   6.633   5.961   8.695  1.3341  1.0818 -0.5850
13221SOL     OW40240   0.119   3.535   6.814 -0.5304  0.0769 -0.2983
13221SOL    HW140241   0.182   3.464   6.802 -0.0256  0.2146  1.3359
13221SOL    HW240242   0.087   3.554   6.725  0.5892 -1.0200 -0.9645
13222SOL     OW40243   1.019   3.642   4.184 -0.4015 -0.2728  0.0344
13222SOL    HW140244   0.991   3.734   4.180 -0.0236 -0.1995 -1.6872
13222SOL    HW240245   1.021   3.622   4.278  0.7003  1.8408  0.5372
13223SOL     OW40246   8.280   9.503   5.012  1.1949  0.0389 -0.1146
13223SOL    HW140247   8.196   9.458   5.002  0.1180  1.5083  1.5969
13223SOL    HW240248   8.346   9.437   4.989 -0.3935 -1.1913 -1.3844
13224SOL     OW40249   1.698   3.212   1.338  0.2689  0.2042 -0.0952
13224SOL    HW140250   1.702   3.128   1.293 -2.2783 -0.8300  1.3810
13224SOL    HW240251   1.700   3.189   1.431  0.8115  1.8941  0.3441
13225SOL     OW40252   8.190   3.764   9.500  0.3062  0.4923  0.2846
13225SOL    HW140253   8.213   3.857   9.507  0.9785  0.3831 -0.3135
13225SOL    HW240254   8.116   3.762   9.439  1.0353  0.5529 -0.6353
13226SOL     OW40255   6.808   5.895   1.445  0.5773  0.4172  0.0365
13226SOL    HW140256   6.892   5.881   1.403  0.8306  0.4926  0.5173
13226SOL    HW240257   6.779   5.980   1.412 -0.3362 -0.5465 -1.8260
13227SOL     OW40258   0.315   4.639   3.010 -0.1559 -0.1845  0.2074
13227SOL    HW140259   0.380   4.624   2.942 -0.8576  2.5113 -1.1671
13227SOL    HW240260   0.242   4.582   2.986  0.3319 -0.6413 -0.2090
13228SOL     OW40261  10.004   2.955   2.109  0.3392 -0.4478 -0.4108
13228SOL    HW140262  10.005   2.911   2.194 -1.9473  2.5901  1.3816
13228SOL    HW240263   9.912   2.976   2.093  0.9591  1.0408 -2.5745
13229SOL     OW40264   9.890   4.931   0.022 -0.1276  0.3802  0.8296
13229SOL    HW140265   9.974   4.960   0.058  0.0400  2.0640 -0.7753
13229SOL    HW240266   9.833   5.008   0.030 -0.9371 -0.1296  0.1259
13230SOL     OW40267   7.859   7.151   3.648  0.0397  0.4698  0.5037
13230SOL    HW140268   7.897   7.123   3.565  0.3623 -0.0289  0.8130
13230SOL    HW240269   7.769   7.118   3.645  0.1826  0.0693  0.5337
13231SOL     OW40270   9.484   8.487   9.257  0.0561 -0.1573  0.2999
13231SOL    HW140271   9.497   8.576   9.288  0.7611 -0.6945  1.6662
13231SOL    HW240272   9.572   8.457   9.232 -0.3369 -0.1035 -1.2997
13232SOL     OW40273   1.864   3.705   4.689 -0.5103  0.0172 -0.4159
13232SOL    HW140274   1.938   3.744   4.736 -1.1580  0.6109  0.1383
13232SOL    HW240275   1.889   3.613   4.677 -0.2666 -0.1428  1.0159
13233SOL     OW40276   4.164   0.433   4.451 -0.2176  0.4890 -0.7631
13233SOL    HW140277   4.135   0.423   4.360  0.4152  1.1467 -1.0382
13233SOL    HW240278   4.169   0.343   4.484 -4.7446  0.2712  0.0379
13234SOL     OW40279   1.501   5.418   3.122 -0.2580  0.4516 -0.0994
13234SOL    HW140280   1.525   5.455   3.207  1.4932 -0.0361 -0.3327
13234SOL    HW240281   1.540   5.331   3.123 -1.4762 -0.1299 -0.8537
13235SOL     OW40282   8.464   0.508   3.651 -0.2369 -0.4200 -0.6175
13235SOL    HW140283   8.376   0.542   3.669 -0.0057 -0.2405  0.2570
13235SOL    HW240284   8.449   0.423   3.609 -0.8292 -0.2037 -0.8448
13236SOL     OW40285   4.110   3.504   1.016  0.0732 -0.3770  0.0118
13236SOL    HW140286   4.065   3.511   1.101 -0.1443  1.7312 -0.2345
13236SOL    HW240287   4.136   3.593   0.995  1.9636 -1.1563 -1.1937
13237SOL     OW40288   2.937   7.147   4.235 -0.6875 -0.1948  0.0039
13237SOL    HW140289   3.023   7.115   4.262  0.0175  1.7401  0.1935
13237SOL    HW240290   2.894   7.070   4.198  1.2138 -1.1551 -0.3455
13238SOL     OW40291   5.562   6.731   7.589 -0.3337  0.1204 -0.8824
13238SOL    HW140292   5.628   6.663   7.579 -0.0872  0.2342 -0.1422
13238SOL    HW240293   5.612   6.813   7.595 -0.2209 -0.0230  2.6036
13239SOL     OW40294   8.962   1.981   4.013 -0.3272 -0.6728 -0.5784
13239SOL    HW140295   9.043   1.981   4.064 -0.8158  1.3882  0.2924
13239SOL    HW240296   8.892   1.971   4.078 -0.8305 -0.9263 -1.1512
13240SOL     OW40297   7.199   8.659   2.702  0.3220  0.2733 -0.2826
13240SOL    HW140298   7.132   8.612   2.653 -0.4282  0.4298  0.5741
13240SOL    HW240299   7.159   8.677   2.787  1.3321  0.6571  0.1311
13241SOL     OW40300   9.714   4.331   0.104  0.5374 -0.8777 -0.4992
13241SOL    HW140301   9.643   4.307   0.044 -1.0869  0.2042  0.9217
13241SOL    HW240302   9.707   4.267   0.175 -0.3981  0.4665  0.6643
13242SOL     OW40303   6.885   7.036   6.143 -0.3474 -0.6882 -0.0822
13242SOL    HW140304   6.831   6.960   6.119 -0.2660 -0.5194 -0.8423
13242SOL    HW240305   6.895   7.084   6.061  0.7832 -0.6080  0.0872
13243SOL     OW40306   5.633   1.729   8.899 -0.3976  0.0713 -0.5639
13243SOL    HW140307   5.574   1.685   8.838  0.0988 -0.5587 -0.6102
13243SOL    HW240308   5.717   1.734   8.852 -0.6204  1.7360 -0.8377
13244SOL     OW40309   2.885   4.374   7.479  0.0550  0.4645 -0.0762
13244SOL    HW140310   2.798   4.375   7.520 -0.6391 -0.5556 -1.4488
13244SOL    HW240311   2.941   4.333   7.545 -0.4399  1.2893  0.8944
13245SOL     OW40312   9.787   1.272   8.966  0.3234  0.0217 -0.0521
13245SOL    HW140313   9.851   1.205   8.989 -0.5518 -0.4686  1.0250
13245SOL    HW240314   9.758   1.309   9.049 -0.1136  0.8926 -0.5677
13246SOL     OW40315   1.189   1.825   1.805  0.1613 -0.0327  0.1555
13246SOL    HW140316   1.130   1.792   1.873  0.2116  2.2063  1.3901
13246SOL    HW240317   1.144   1.903   1.772  1.6792  0.7973 -0.0081
13247SOL     OW40318   1.913   8.951   4.379  0.1393 -0.4425 -0.2054
13247SOL    HW140319   1.824   8.962   4.346  0.4587  0.1507 -0.8914
13247SOL    HW240320   1.947   9.040   4.388 -0.0725 -0.5277  2.2047
13248SOL     OW40321   8.113   2.563   8.681 -0.3156 -0.2453  0.3855
13248SOL    HW140322   8.207   2.545   8.680 -0.5345 -1.4787 -0.9410
13248SOL    HW240323   8.096   2.595   8.770  1.2345 -0.6224  0.8512
13249SOL     OW40324   0.484   3.137   3.833 -0.0096 -0.0395  0.2980
13249SOL    HW140325   0.511   3.213   3.884  1.0186 -0.0502 -0.2069
13249SOL    HW240326   0.560   3.115   3.780 -0.8740 -0.3483 -0.8622
13250SOL     OW40327   5.471   7.973   8.289 -0.1389 -0.3729 -0.1311
13250SOL    HW140328   5.436   8.025   8.361  0.6749  1.2230 -0.8293
13250SOL    HW240329   5.563   8.001   8.282 -0.3423 -0.0547 -2.1324
13251SOL     OW40330   8.535   2.167   8.287 -0.5763  0.0337  0.1527
13251SOL    HW140331   8.620   2.145   8.249  0.1514  0.0903  1.6807
13251SOL    HW240332   8.502   2.239   8.233  1.3690  1.5422  0.8550
13252SOL     OW40333   5.834   2.829   3.275 -0.2403 -0.0732  0.2906
13252SOL    HW140334   5.740   2.845   3.283 -0.4901 -0.3343 -1.6694
13252SOL    HW240335   5.872   2.917   3.264 -0.7348 -0.1578 -2.7317
13253SOL     OW40336   6.878   3.159   5.871  0.2785  1.1477  0.4068
13253SOL    HW140337   6.783   3.151   5.881  0.3560 -1.2834 -0.2982
13253SOL    HW240338   6.895   3.139   5.779  1.5755  0.2703  0.8131
13254SOL     OW40339   1.996   5.317   1.378 -0.3745 -0.3015  0.2095
13254SOL    HW140340   1.918   5.371   1.363 -0.3904 -0.5729 -0.7321
13254SOL    HW240341   1.976   5.268   1.458 -1.7264 -1.3333 -0.7228
13255SOL     OW40342   1.089   0.091   5.352  0.3132 -0.1333 -0.7488
13255SOL    HW140343   1.148   0.156   5.392 -1.1513  0.3833  0.7052
13255SOL    HW240344   1.002   0.126   5.368 -0.4403 -1.4420 -1.8401
13256SOL     OW40345   4.564   5.361   3.193  0.0330 -0.1777  0.1307
13256SOL    HW140346   4.643   5.322   3.230  0.0415  0.0207  0.3232
13256SOL    HW240347   4.596   5.418   3.122  0.1192  0.4077  0.6310
13257SOL     OW40348   5.407   1.713   4.250 -0.1979 -0.4943  0.1036
13257SOL    HW140349   5.392   1.629   4.207 -1.7929 -0.4548  0.5250
13257SOL    HW240350   5.397   1.695   4.344 -2.1198  0.4153  0.1292
13258SOL     OW40351   3.266   3.146   6.109  0.3438 -0.1319 -0.5516
13258SOL    HW140352   3.333   3.146   6.177 -0.5499  0.0736  0.3492
13258SOL    HW240353   3.297   3.212   6.046  1.3746 -0.6067 -0.5739
13259SOL     OW40354   2.760   3.219   1.420  0.3404 -0.2498 -0.5202
13259SOL    HW140355   2.772   3.125   1.434 -1.3666 -0.2534  1.3765
13259SOL    HW240356   2.776   3.258   1.505 -2.4976  0.7302 -0.3310
13260SOL     OW40357   2.200   9.412   8.210  0.0806 -0.0449  0.2955
13260SOL    HW140358   2.225   9.427   8.119 -1.9569  0.1803 -0.2838
13260SOL    HW240359   2.105   9.422   8.211 -0.0689 -1.0605  2.2603
13261SOL     OW40360   3.756   8.936   3.791  0.0674  0.6928 -0.4843
13261SOL    HW140361   3.797   8.861   3.747 -0.3352  0.4293 -0.4183
13261SOL    HW240362   3.826   9.000   3.798  0.5108  0.1906 -0.2343
13262SOL     OW40363   0.317   9.465   2.818 -0.3059  0.6561 -0.1618
13262SOL    HW140364   0.353   9.520   2.887  0.9282 -0.0407 -0.2179
13262SOL    HW240365   0.307   9.523   2.743  1.8696  0.6479 -0.5098
13263SOL     OW40366   5.941   6.557   1.976  0.1988  0.0576 -0.0651
13263SOL    HW140367   6.016   6.534   2.030 -0.3731  0.7735  1.0657
13263SOL    HW240368   5.970   6.634   1.926  0.6197 -0.4204 -0.5793
13264SOL     OW40369   6.085   7.383   4.781  0.3246  0.0789 -0.1659
13264SOL    HW140370   6.160   7.351   4.832  1.6677  0.9267 -1.5483
13264SOL    HW240371   6.095   7.478   4.780 -1.4970  0.3180  0.6727
13265SOL     OW40372   7.474   9.797   3.819  0.2825  0.2460  0.0009
13265SOL    HW140373   7.523   9.715   3.814 -0.8167 -0.5929  1.8802
13265SOL    HW240374   7.536   9.864   3.790  0.9204 -1.3004 -2.5397
13266SOL     OW40375   5.218   2.745   7.126  0.0313  0.3917  0.1403
13266SOL    HW140376   5.202   2.672   7.187 -0.7906  0.4199 -0.0414
13266SOL    HW240377   5.239   2.702   7.043  0.3510  0.3600  0.2353
13267SOL     OW40378   3.972   5.725   6.032 -0.1281 -0.1451 -0.2685
13267SOL    HW140379   4.039   5.662   6.057  1.9792  1.7922 -0.6271
13267SOL    HW240380   3.935   5.691   5.950  1.5628 -0.5368 -0.9075
13268SOL     OW40381   1.263   2.778   8.625 -0.2343  0.0986  0.4672
13268SOL    HW140382   1.270   2.743   8.536  0.6007 -0.4803  0.7547
13268SOL    HW240383   1.237   2.703   8.678  2.0983 -0.2931  1.1799
13269SOL     OW40384   5.850   5.538   6.351 -0.3104  0.3627 -0.0741
13269SOL    HW140385   5.760   5.547   6.383  0.0315 -0.3402  1.1551
13269SOL    HW240386   5.866   5.618   6.301 -1.3377  0.8831  0.3985
13270SOL     OW40387   6.786   0.019   8.070  0.5516  0.0204  0.1752
13270SOL    HW140388   6.788   0.115   8.066 -0.3174  0.0163 -0.5882
13270SOL    HW240389   6.700  -0.002   8.105  0.0755 -0.5093 -1.2606
13271SOL     OW40390   3.326   4.111   1.871 -0.3938  0.4489  0.3173
13271SOL    HW140391   3.284   4.189   1.909 -1.2093 -0.0671  0.5011
13271SOL    HW240392   3.289   4.105   1.782 -0.0822  0.4569  0.1860
13272SOL     OW40393   4.722   4.603   9.403  0.2982  0.4528 -0.1271
13272SOL    HW140394   4.776   4.641   9.333  1.1699  0.5726  0.5949
13272SOL    HW240395   4.785   4.574   9.469 -0.1662 -3.3877 -1.1076
13273SOL     OW40396   4.096   4.330   9.162  0.3509 -0.2916 -0.5659
13273SOL    HW140397   4.158   4.372   9.221  0.4430  0.7020 -1.3551
13273SOL    HW240398   4.116   4.366   9.076 -0.1603 -1.2928 -1.1235
13274SOL     OW40399   4.118   5.183   5.907  0.1636 -0.6199  0.4809
13274SOL    HW140400   4.061   5.214   5.836 -0.8221 -0.5652  1.2676
13274SOL    HW240401   4.195   5.148   5.863 -0.8967 -1.5748 -0.6885
13275SOL     OW40402   5.312   1.193   8.840  0.3885 -0.2368  0.8177
13275SOL    HW140403   5.406   1.177   8.840  0.5154  0.3985  2.1607
13275SOL    HW240404   5.303   1.286   8.858 -0.4826  0.0235 -0.7700
13276SOL     OW40405   2.446   0.835   5.186  0.4986 -0.1730 -0.1130
13276SOL    HW140406   2.481   0.753   5.222 -0.1501 -0.4310 -0.0540
13276SOL    HW240407   2.500   0.853   5.110  1.3356 -0.0884  0.4809
13277SOL     OW40408   8.952   3.158   8.985  0.4961 -0.2500 -0.6044
13277SOL    HW140409   9.029   3.142   8.930  0.3217 -0.6786 -0.7307
13277SOL    HW240410   8.954   3.252   9.003  1.2323 -0.3072 -0.3330
13278SOL     OW40411   8.296   2.169   6.413  0.0385 -0.1109 -0.2759
13278SOL    HW140412   8.320   2.262   6.416 -1.4992  0.3066 -0.1073
13278SOL    HW240413   8.275   2.147   6.504  0.5024 -0.6618 -0.2985
13279SOL     OW40414   0.556   1.834   8.439  0.0915  0.4517 -0.4195
13279SOL    HW140415   0.649   1.817   8.425  0.2895  0.0493  1.2060
13279SOL    HW240416   0.548   1.850   8.533 -1.3237  1.6014 -0.7000
13280SOL     OW40417   3.604   4.357   9.034 -0.5849  0.4170 -0.6169
13280SOL    HW140418   3.623   4.303   9.111  1.9255  1.3115 -0.5047
13280SOL    HW240419   3.672   4.333   8.971 -0.6541  1.9819 -1.3287
13281SOL     OW40420   3.667   5.052   5.350 -0.0113 -0.3230 -0.4392
13281SOL    HW140421   3.615   5.129   5.324 -2.3903 -1.1128  1.5665
13281SOL    HW240422   3.609   5.002   5.407  2.9605 -1.3680  1.9518
13282SOL     OW40423   1.366   0.660   7.879 -0.3168  0.1621 -0.2744
13282SOL    HW140424   1.423   0.717   7.826  0.5549 -0.0319  0.4201
13282SOL    HW240425   1.330   0.597   7.817  0.0644  0.4225 -0.7665
13283SOL     OW40426   6.622   2.671   5.913  0.5816 -0.5149 -0.0241
13283SOL    HW140427   6.646   2.738   5.849 -0.8469 -0.0498 -0.1123
13283SOL    HW240428   6.655   2.589   5.877  0.1684 -0.1966 -1.1528
13284SOL     OW40429   6.730   4.474   8.997  0.2832  0.1255 -0.2861
13284SOL    HW140430   6.746   4.501   8.907  1.2924 -0.1282 -0.1867
13284SOL    HW240431   6.782   4.395   9.009  1.5220  1.0725  1.0077
13285SOL     OW40432   0.457   6.729   6.563  0.4065 -0.3140 -0.7181
13285SOL    HW140433   0.528   6.773   6.610  0.4593 -1.5685  0.4441
13285SOL    HW240434   0.399   6.800   6.536 -0.5682  0.4291  2.8355
13286SOL     OW40435   7.751   5.415   7.310 -0.1901  0.4227 -0.5249
13286SOL    HW140436   7.751   5.505   7.342 -2.0389 -0.2574  1.7029
13286SOL    HW240437   7.826   5.374   7.354 -1.0267  0.2235  0.7918
13287SOL     OW40438   0.392   6.913   2.141  0.2012 -0.2711  0.3279
13287SOL    HW140439   0.459   6.891   2.076 -0.7784 -1.0785 -0.4348
13287SOL    HW240440   0.394   7.009   2.146 -1.5126  0.0804 -2.9267
13288SOL     OW40441   5.160   9.675   1.680  0.3973 -0.1937 -0.2210
13288SOL    HW140442   5.215   9.601   1.706 -0.2317  0.0883  2.0394
13288SOL    HW240443   5.184   9.745   1.741 -0.2722  0.9263 -1.2093
13289SOL     OW40444   6.131   2.883   3.970  0.3343  0.1174  0.3924
13289SOL    HW140445   6.160   2.837   4.050  1.5224 -0.8407 -0.5424
13289SOL    HW240446   6.059   2.829   3.937  1.4020 -0.8482 -0.4348
13290SOL     OW40447   7.115   1.822   0.820  0.5018 -0.3476 -0.1035
13290SOL    HW140448   7.128   1.786   0.732  1.4747  1.4710 -0.7755
13290SOL    HW240449   7.140   1.751   0.879 -0.5029 -1.7288 -1.2742
13291SOL     OW40450   2.895   5.209   8.738 -0.6973 -0.0918  0.2159
13291SOL    HW140451   2.872   5.292   8.778 -0.2830 -0.2604  0.8122
13291SOL    HW240452   2.872   5.143   8.803 -0.2944 -0.3848  0.0701
13292SOL     OW40453   6.466   9.126   3.433  0.0291 -0.6220  0.3442
13292SOL    HW140454   6.493   9.084   3.515  0.6375  0.6475  0.8294
13292SOL    HW240455   6.373   9.145   3.446 -0.5767 -2.7995 -0.3538
13293SOL     OW40456   4.234   8.345   9.906  0.4544 -0.0238 -0.4053
13293SOL    HW140457   4.276   8.368   9.989  2.2011 -0.4283 -1.1536
13293SOL    HW240458   4.225   8.429   9.860  1.2429 -0.0329 -0.5912
13294SOL     OW40459   9.545   0.060   6.528  0.0127 -0.4228 -0.2748
13294SOL    HW140460   9.487  -0.016   6.515  0.5014 -0.9128  0.3806
13294SOL    HW240461   9.602   0.035   6.600 -0.0410  0.7083  0.1868
13295SOL     OW40462   9.941   6.085   5.707 -0.1799  0.2021  0.1183
13295SOL    HW140463   9.851   6.053   5.697  0.2593 -0.8626 -0.6740
13295SOL    HW240464   9.995   6.014   5.673  1.0426  0.3230  1.7085
13296SOL     OW40465   0.770   9.232   7.880  0.1980 -0.0185  0.1869
13296SOL    HW140466   0.755   9.287   7.957 -1.5342 -0.0084 -0.1201
13296SOL    HW240467   0.809   9.152   7.915  1.0591  0.6638  0.8487
13297SOL     OW40468   0.785   3.026   2.858  0.0263 -0.2833  0.3905
13297SOL    HW140469   0.734   3.075   2.793 -1.3845  0.5210  2.0359
13297SOL    HW240470   0.867   3.005   2.812 -0.5189  1.0547 -1.3389
13298SOL     OW40471   1.568   4.081   9.401  0.5353  0.0221 -0.7218
13298SOL    HW140472   1.581   4.124   9.316  0.5005 -2.6971 -2.1899
13298SOL    HW240473   1.550   3.990   9.380  0.6884 -0.8015  2.2505
13299SOL     OW40474   0.235   4.347   5.343  0.1493 -0.0022 -0.4524
13299SOL    HW140475   0.263   4.437   5.326 -0.1209  0.0475 -0.6526
13299SOL    HW240476   0.246   4.335   5.437  0.3526  0.1831 -0.4536
13300SOL     OW40477   4.667   3.016   6.685  0.1461 -0.4578  0.2255
13300SOL    HW140478   4.700   3.101   6.714 -0.1628  0.3438 -1.6306
13300SOL    HW240479   4.628   2.977   6.763 -1.6064  2.0180  0.6995
13301SOL     OW40480   1.519   3.433   7.800  0.7676  0.6840  0.1091
13301SOL    HW140481   1.506   3.519   7.840 -1.6327  0.1676  0.5719
13301SOL    HW240482   1.451   3.426   7.734  0.6011 -1.0502  0.4097
13302SOL     OW40483   5.625   1.664   2.150 -0.1400 -0.2269 -0.4335
13302SOL    HW140484   5.720   1.661   2.137 -0.1387  1.6821 -1.1781
13302SOL    HW240485   5.602   1.576   2.178  2.0555 -0.3836  1.1780
13303SOL     OW40486   4.247   8.510   8.059 -0.0781 -0.4172  0.1865
13303SOL    HW140487   4.242   8.427   8.012 -0.0053  0.3784 -1.2656
13303SOL    HW240488   4.292   8.488   8.141 -0.7566 -1.9457  0.1827
13304SOL     OW40489   5.065   6.190   1.925 -0.6228 -0.2482  0.2171
13304SOL    HW140490   5.016   6.163   1.847 -2.0596  0.4461  0.8584
13304SOL    HW240491   5.133   6.248   1.891 -0.4261 -0.9527 -0.6422
13305SOL     OW40492   4.296   3.965   0.902 -0.9127 -0.8499  0.1470
13305SOL    HW140493   4.262   4.024   0.835 -0.1763 -2.6798 -1.9484
13305SOL    HW240494   4.389   3.989   0.910 -0.8867 -0.9618  0.1791
13306SOL     OW40495   8.341   4.765   2.815  0.2732 -0.2167  0.3923
13306SOL    HW140496   8.318   4.756   2.908  0.7284 -2.2861  0.3459
13306SOL    HW240497   8.280   4.706   2.770 -0.2509  1.1105 -0.6971
13307SOL     OW40498   3.003   8.144   5.438 -0.0217 -0.6626 -0.5128
13307SOL    HW140499   2.972   8.087   5.508 -0.7877 -0.5781 -0.7803
13307SOL    HW240500   2.989   8.233   5.470  3.1956 -0.5148  0.8372
13308SOL     OW40501   4.674   2.985   5.909 -0.1530 -0.4707  0.6855
13308SOL    HW140502   4.728   3.021   5.979  0.3589  2.3959 -1.0308
13308SOL    HW240503   4.732   2.923   5.863  1.5862  1.9876 -0.6613
13309SOL     OW40504   6.762   8.995   3.485 -0.3963 -0.3220  0.0970
13309SOL    HW140505   6.685   8.938   3.479  0.1190 -0.9896 -0.3643
13309SOL    HW240506   6.808   8.981   3.402 -1.3537  2.4222 -1.0321
13310SOL     OW40507   3.841   2.527   2.277  0.1289  0.2186 -0.1621
13310SOL    HW140508   3.759   2.569   2.252 -0.2477 -0.1930  0.3635
13310SOL    HW240509   3.836   2.439   2.240  0.9923  0.6732 -1.4103
13311SOL     OW40510   6.180   4.757   9.039  0.1807  0.2603 -0.4340
13311SOL    HW140511   6.270   4.726   9.048 -0.8141 -3.3430 -1.4622
13311SOL    HW240512   6.143   4.747   9.127  0.7113  1.7965  0.0035
13312SOL     OW40513   4.024   8.578   8.217 -0.4475  0.2023  0.0233
13312SOL    HW140514   4.050   8.494   8.255 -2.1945 -0.9088 -1.0706
13312SOL    HW240515   4.100   8.607   8.167 -0.3304 -1.5749 -0.8983
13313SOL     OW40516   7.392   1.127   4.401  0.0903 -0.0904 -0.0623
13313SOL    HW140517   7.472   1.088   4.367 -0.6329 -0.7343 -1.0882
13313SOL    HW240518   7.390   1.101   4.493  2.5065  2.3872  0.8225
13314SOL     OW40519   5.802   4.223   0.785  0.1920 -0.2780 -0.0573
13314SOL    HW140520   5.823   4.277   0.709  1.0998 -1.3984 -0.6310
13314SOL    HW240521   5.885   4.182   0.810 -0.1432 -0.1182  1.4006
13315SOL     OW40522   6.355   9.299   7.090  0.5662 -0.3675 -0.3614
13315SOL    HW140523   6.366   9.318   7.183  0.3000  0.7916 -0.5544
13315SOL    HW240524   6.263   9.273   7.082  0.0609  1.3466 -0.5644
13316SOL     OW40525   8.007   2.277   8.074 -0.2220  0.8077  0.2694
13316SOL    HW140526   7.950   2.255   8.000 -1.8937 -0.2287  1.7774
13316SOL    HW240527   8.090   2.233   8.054 -1.2752 -1.1577 -0.0946
13317SOL     OW40528   1.765   5.768   7.877 -0.2935 -0.1646 -0.1536
13317SOL    HW140529   1.685   5.717   7.889  0.2396 -0.8754  0.5063
13317SOL    HW240530   1.826   5.733   7.942 -0.0461  1.6390  0.6536
13318SOL     OW40531   2.560   5.791   3.369  0.2193 -0.1341 -0.1532
13318SOL    HW140532   2.565   5.795   3.465  0.0685 -0.6411 -0.1223
13318SOL    HW240533   2.618   5.861   3.339  0.8119 -0.4185  0.3019
13319SOL     OW40534   6.626   0.801   8.935  0.7097 -0.4457  0.0263
13319SOL    HW140535   6.703   0.850   8.908 -0.5232  0.5924 -1.8315
13319SOL    HW240536   6.596   0.757   8.856 -0.1554 -1.4939  0.8964
13320SOL     OW40537   4.424   9.506   3.052  0.0899  0.1668  0.3149
13320SOL    HW140538   4.432   9.412   3.035 -0.9636 -0.1426  1.3995
13320SOL    HW240539   4.495   9.545   3.001  0.9545 -1.2676  0.3412
13321SOL     OW40540   0.857   7.297   3.171  0.1547  0.1325  0.3824
13321SOL    HW140541   0.813   7.226   3.124  1.6169 -0.4930 -0.0968
13321SOL    HW240542   0.901   7.253   3.244  0.1859  0.7080  0.7135
13322SOL     OW40543   8.431   5.125   9.196  0.0304 -0.2674 -0.7450
13322SOL    HW140544   8.364   5.057   9.196 -0.0419 -0.1977 -0.4923
13322SOL    HW240545   8.457   5.133   9.288 -1.3298  1.3839 -0.4560
13323SOL     OW40546   4.768   3.484   1.474  0.0872  0.2912 -0.1923
13323SOL    HW140547   4.776   3.460   1.382 -0.7488 -0.5700 -0.0439
13323SOL    HW240548   4.855   3.466   1.511  0.1201 -0.3772 -0.5800
13324SOL     OW40549   5.190   5.822   1.049  0.0043 -0.0479  0.5529
13324SOL    HW140550   5.239   5.771   1.114 -0.1244 -0.9328 -0.0335
13324SOL    HW240551   5.101   5.825   1.084 -0.2322 -1.1424  0.0810
13325SOL     OW40552   9.875   4.349   4.434 -0.0368 -0.5391  0.2462
13325SOL    HW140553   9.889   4.391   4.349  2.7085 -1.0069  0.3785
13325SOL    HW240554   9.918   4.264   4.426 -1.0770 -1.2355  1.6358
13326SOL     OW40555   7.548   6.248   2.160  0.0546  0.1122  0.6762
13326SOL    HW140556   7.610   6.202   2.104 -1.8514 -0.5936 -0.9889
13326SOL    HW240557   7.530   6.329   2.114  0.3277  0.6908  1.5615
13327SOL     OW40558   9.070   9.886   3.577  0.1848 -0.3319 -0.0033
13327SOL    HW140559   9.007   9.857   3.510 -0.0385 -1.3534  0.6316
13327SOL    HW240560   9.019   9.893   3.657  0.3669  1.2961  0.0024
13328SOL     OW40561   3.767   3.731   1.458  0.3408 -0.3428  0.1335
13328SOL    HW140562   3.745   3.718   1.550  2.4244 -1.9155  0.4998
13328SOL    HW240563   3.858   3.761   1.460  1.2052 -2.6018 -1.4116
13329SOL     OW40564   0.190   5.012   6.643  0.2694 -0.0824 -0.1252
13329SOL    HW140565   0.198   4.996   6.737  1.7903 -0.1328 -0.2449
13329SOL    HW240566   0.096   5.030   6.630  0.1226  0.5011  1.4778
13330SOL     OW40567   6.657   0.881   3.856  0.2297 -0.7860  0.6754
13330SOL    HW140568   6.709   0.817   3.905  1.2896 -0.9360 -0.5916
13330SOL    HW240569   6.640   0.839   3.771  0.0174  0.1862  0.2183
13331SOL     OW40570   2.755   6.126   8.047 -0.1985  0.3541  0.1384
13331SOL    HW140571   2.801   6.115   8.130 -0.7722  0.7348  0.5137
13331SOL    HW240572   2.825   6.123   7.981  0.0831 -1.6413  0.4725
13332SOL     OW40573   0.668   0.866   6.730 -0.0821 -0.1286  0.5220
13332SOL    HW140574   0.758   0.860   6.762 -0.0438 -0.3590  0.3670
13332SOL    HW240575   0.654   0.785   6.681 -0.7748 -0.6696  1.5678
13333SOL     OW40576   2.171   2.160   3.719  0.4852 -0.8740 -0.3538
13333SOL    HW140577   2.079   2.132   3.715 -0.3549  1.8013 -1.7080
13333SOL    HW240578   2.182   2.193   3.808 -0.3860  0.2680 -0.6429
13334SOL     OW40579   6.325   5.586   0.096 -0.2538  0.3088  0.2609
13334SOL    HW140580   6.310   5.665   0.043  1.4384  0.3330 -0.2555
13334SOL    HW240581   6.345   5.620   0.183  0.7648  0.4947 -0.0305
13335SOL     OW40582   2.791   4.073   3.253 -0.1024 -0.2160 -0.1298
13335SOL    HW140583   2.869   4.028   3.285  0.8758  1.4947  0.0010
13335SOL    HW240584   2.793   4.061   3.158  1.5719  1.6101 -0.3900
13336SOL     OW40585   8.512   3.819   6.216 -0.0923  0.3569 -0.2903
13336SOL    HW140586   8.475   3.756   6.154  1.7998 -0.7894 -0.3497
13336SOL    HW240587   8.537   3.894   6.163 -3.5677  1.8557 -0.0408
13337SOL     OW40588   8.759   8.601   1.096 -0.7250  0.3364 -0.1455
13337SOL    HW140589   8.854   8.614   1.090 -0.7440  0.3054 -0.5531
13337SOL    HW240590   8.744   8.572   1.186 -0.4236  0.9816  0.1143
13338SOL     OW40591   6.050   2.347   8.398  0.4267  0.0802  0.6954
13338SOL    HW140592   5.982   2.401   8.437  0.6714  1.4925 -0.7194
13338SOL    HW240593   6.107   2.410   8.353  3.5276 -0.8712  2.9985
13339SOL     OW40594   7.636   6.413   3.733 -0.1650  0.1587  0.0322
13339SOL    HW140595   7.716   6.362   3.720  0.0730  0.6497 -0.4291
13339SOL    HW240596   7.618   6.406   3.827  1.9612  2.3426  0.6750
13340SOL     OW40597   9.896   4.102   6.375  0.2672 -0.0927 -0.3894
13340SOL    HW140598   9.806   4.129   6.392  0.9834  2.1488  0.2374
13340SOL    HW240599   9.893   4.007   6.373 -2.0461 -0.0801 -0.0815
13341SOL     OW40600   5.490   5.851   8.196 -0.3965  0.2004 -0.3481
13341SOL    HW140601   5.438   5.926   8.167 -0.8448 -0.1986 -0.5992
13341SOL    HW240602   5.581   5.880   8.188 -0.5304  0.3619 -1.4635
13342SOL     OW40603   4.608   9.934   1.669  0.1874  0.3685 -0.1558
13342SOL    HW140604   4.584   9.878   1.743  0.3262 -0.4615 -0.7241
13342SOL    HW240605   4.681   9.987   1.702  0.3711 -0.1219  0.2440
13343SOL     OW40606   8.567   8.107   1.215  0.2940  0.0319 -0.0333
13343SOL    HW140607   8.659   8.120   1.193  0.5175 -2.3803 -0.8316
13343SOL    HW240608   8.543   8.026   1.170 -1.4757 -0.8520  2.3082
13344SOL     OW40609   8.269   6.298   6.887  0.1947 -0.1741 -0.0468
13344SOL    HW140610   8.258   6.386   6.851  0.2971  0.0712  0.5094
13344SOL    HW240611   8.284   6.312   6.980  0.9493 -0.7406 -0.0766
13345SOL     OW40612   2.684   1.035   9.664 -0.2638 -0.0400  0.0937
13345SOL    HW140613   2.641   1.055   9.581 -1.9305  2.7825  1.4846
13345SOL    HW240614   2.766   1.085   9.661 -0.0347 -0.4301 -0.1052
13346SOL     OW40615   4.822   5.652   7.540 -0.1413 -0.3107  0.3464
13346SOL    HW140616   4.759   5.623   7.473 -1.2315  0.2821  1.0947
13346SOL    HW240617   4.906   5.648   7.495 -0.8992  0.6292 -1.2770
13347SOL     OW40618   7.796   4.720   0.104  0.4411 -0.3012 -0.5016
13347SOL    HW140619   7.714   4.764   0.086 -0.5509 -1.1553  1.6075
13347SOL    HW240620   7.857   4.791   0.124  0.5377  0.3959 -2.9214
13348SOL     OW40621   9.499   1.972   3.970 -0.0970  0.6815  0.3908
13348SOL    HW140622   9.593   1.982   3.955  0.1804 -0.3356  1.3555
13348SOL    HW240623   9.485   2.001   4.060 -0.6524  0.4671  0.3795
13349SOL     OW40624   1.305   4.068   0.531 -0.4650  0.3558 -0.4621
13349SOL    HW140625   1.251   4.027   0.598  0.9193 -4.4033 -1.8661
13349SOL    HW240626   1.243   4.099   0.465 -1.7245 -3.3186 -1.1799
13350SOL     OW40627   7.936   3.688   1.966  0.8693  0.1041  0.5220
13350SOL    HW140628   7.853   3.646   1.941  0.0333  1.6387  0.5987
13350SOL    HW240629   7.981   3.622   2.019  0.3237 -1.2700 -0.6415
13351SOL     OW40630   3.429   9.364   9.064 -0.1557 -0.1026 -0.0458
13351SOL    HW140631   3.360   9.389   9.003 -1.2436 -1.3173  0.6523
13351SOL    HW240632   3.383   9.336   9.143  1.1385 -0.7988  0.4938
13352SOL     OW40633   6.995   5.340   8.542 -0.0104  0.6814 -0.0503
13352SOL    HW140634   6.982   5.384   8.626 -0.7297 -0.2191  0.3232
13352SOL    HW240635   7.000   5.411   8.478 -1.0400  1.3166  0.5574
13353SOL     OW40636   7.803   7.264   9.217 -0.1882 -0.1012  0.0768
13353SOL    HW140637   7.876   7.322   9.241 -0.1456 -0.0682 -0.1349
13353SOL    HW240638   7.754   7.253   9.298 -1.9501  2.6578 -0.4993
13354SOL     OW40639   3.138   0.565   1.600 -0.0259  0.1804 -0.6174
13354SOL    HW140640   3.184   0.511   1.665 -0.2977 -1.6677 -1.8971
13354SOL    HW240641   3.047   0.562   1.628 -0.8894 -3.9492 -3.0486
13355SOL     OW40642   2.423   5.854   2.080  0.1420 -0.1846  0.2257
13355SOL    HW140643   2.414   5.789   2.010 -2.2807  0.6698 -0.3398
13355SOL    HW240644   2.362   5.824   2.148 -0.2892  0.9713  0.3682
13356SOL     OW40645   8.145   0.911   8.087 -0.4475 -0.2307 -0.2351
13356SOL    HW140646   8.176   0.991   8.046 -1.4382 -0.1251 -0.7859
13356SOL    HW240647   8.209   0.844   8.060  0.8717  0.5125  0.9310
13357SOL     OW40648   4.681   7.397   1.916 -0.2723 -0.4307 -0.4737
13357SOL    HW140649   4.630   7.476   1.895 -0.2931 -0.8799 -2.2338
13357SOL    HW240650   4.770   7.429   1.930 -0.3272 -0.0651 -0.9476
13358SOL     OW40651   8.420   9.894   2.330 -0.6738  0.3432  0.1717
13358SOL    HW140652   8.424   9.957   2.258  0.9918  2.7463  2.1730
13358SOL    HW240653   8.507   9.855   2.333 -0.3441  1.0988  1.4719
13359SOL     OW40654   9.302   6.763   2.559 -0.0694 -0.1742  0.1033
13359SOL    HW140655   9.226   6.819   2.572 -0.1749 -0.3587  0.2767
13359SOL    HW240656   9.371   6.823   2.528 -0.4459 -0.1055 -0.6019
13360SOL     OW40657   7.217   5.118   0.919 -0.1300 -0.2561 -0.0428
13360SOL    HW140658   7.208   5.138   0.826  0.6961 -0.0148 -0.0786
13360SOL    HW240659   7.137   5.070   0.941  0.4007 -1.7875 -1.2789
13361SOL     OW40660   1.762   3.250   3.332  0.1173 -0.2732  0.2304
13361SOL    HW140661   1.755   3.345   3.332  1.5734 -0.1200 -1.2677
13361SOL    HW240662   1.796   3.229   3.419  2.1576  0.8409 -0.2394
13362SOL     OW40663   9.357   3.418   6.833 -0.4843 -0.1130 -0.2185
13362SOL    HW140664   9.317   3.348   6.885 -2.2332  0.2290 -1.0521
13362SOL    HW240665   9.356   3.386   6.743 -0.9855  0.8178 -0.5641
13363SOL     OW40666   5.831   6.881   9.648 -0.1159  0.4073 -0.0016
13363SOL    HW140667   5.897   6.949   9.656  0.6837 -0.5099  1.6035
13363SOL    HW240668   5.793   6.872   9.735 -0.0932 -1.2818 -0.1227
13364SOL     OW40669   3.074   3.944   9.193  0.2144  0.3242  0.4039
13364SOL    HW140670   3.143   4.010   9.204 -0.1310  0.9186 -0.7619
13364SOL    HW240671   3.094   3.902   9.109  0.1094 -0.6775  0.8659
13365SOL     OW40672   5.694   0.991   6.154  0.7737  0.2004  0.5440
13365SOL    HW140673   5.644   1.035   6.085  1.3203  1.4094  0.8898
13365SOL    HW240674   5.634   0.984   6.227  0.4012 -0.4804  0.1849
13366SOL     OW40675   8.778   1.423   5.747 -0.6581 -0.3681 -0.0178
13366SOL    HW140676   8.862   1.378   5.747 -1.1379 -1.3350  1.2810
13366SOL    HW240677   8.716   1.360   5.785 -1.2724  1.4363  2.2263
13367SOL     OW40678   5.816   8.275   0.855 -0.3923 -0.0554 -0.2730
13367SOL    HW140679   5.750   8.246   0.793 -1.7860 -0.9297  1.5263
13367SOL    HW240680   5.899   8.246   0.817 -1.1679 -0.4080 -1.7797
13368SOL     OW40681   0.934   2.232   1.207 -0.1954 -0.0410 -0.2152
13368SOL    HW140682   0.852   2.204   1.164 -1.2330  0.7352  1.1720
13368SOL    HW240683   0.983   2.151   1.220 -1.7039 -0.8385  0.8193
13369SOL     OW40684   6.042   1.210   0.736  0.0802 -0.3144 -0.3092
13369SOL    HW140685   6.020   1.215   0.829  0.9644 -0.2923 -0.0917
13369SOL    HW240686   5.990   1.280   0.695 -0.8364 -0.7751  0.0526
13370SOL     OW40687   6.404   5.751   5.403 -0.2059  0.1266 -0.4414
13370SOL    HW140688   6.340   5.821   5.391 -0.5756 -0.4958 -2.3534
13370SOL    HW240689   6.485   5.786   5.366 -0.3628 -0.3997 -1.3021
13371SOL     OW40690   4.280   9.785   2.121  0.9252  0.1548 -0.0342
13371SOL    HW140691   4.277   9.755   2.212 -2.8305  0.4486  0.1326
13371SOL    HW240692   4.324   9.870   2.125  2.0689 -0.4651  1.2608
13372SOL     OW40693   4.856   8.367   6.608  1.0030 -0.0571 -0.0073
13372SOL    HW140694   4.892   8.301   6.549 -0.2976  1.7442 -3.0437
13372SOL    HW240695   4.815   8.316   6.678  2.7432 -2.3275 -0.5086
13373SOL     OW40696   9.408   2.104   5.121 -0.3723 -0.5839  0.1540
13373SOL    HW140697   9.355   2.035   5.082 -0.5798  0.0219 -0.6624
13373SOL    HW240698   9.488   2.060   5.150 -0.9612 -1.3523  0.6354
13374SOL     OW40699   7.335   6.701   3.638  0.0858 -0.0883  0.2434
13374SOL    HW140700   7.317   6.646   3.714  1.4909 -2.0957 -0.7706
13374SOL    HW240701   7.426   6.680   3.614  0.6835  2.6701 -0.2772
13375SOL     OW40702   5.641   1.165   7.071  0.0224  0.1329 -0.1893
13375SOL    HW140703   5.666   1.181   6.980  1.5198 -1.1192 -0.0200
13375SOL    HW240704   5.594   1.081   7.068  2.3620 -1.2688  0.5073
13376SOL     OW40705   2.897   9.469   6.789 -0.7734 -0.2697  0.5594
13376SOL    HW140706   2.865   9.409   6.855 -0.0559  0.1855  1.3433
13376SOL    HW240707   2.834   9.541   6.789 -2.8206 -1.8844 -1.8449
13377SOL     OW40708   5.855   9.923   7.302  0.3898  0.2264 -0.5786
13377SOL    HW140709   5.941   9.949   7.333  0.0201  0.9489 -0.1161
13377SOL    HW240710   5.812  10.005   7.279  0.0113 -0.1656 -1.3129
13378SOL     OW40711   3.432   1.882   8.214  0.0535  0.6919 -0.1457
13378SOL    HW140712   3.480   1.853   8.292  1.4038  1.1248 -0.7669
13378SOL    HW240713   3.379   1.807   8.188  2.7615 -1.0061 -1.2122
13379SOL     OW40714   4.882   4.009   7.393 -0.3363  0.1296  0.3068
13379SOL    HW140715   4.960   3.998   7.338 -1.3360  2.4595 -1.7780
13379SOL    HW240716   4.845   3.921   7.399  1.1457 -0.6136 -0.7138
13380SOL     OW40717   1.505   3.996   5.859  0.5565 -0.0776 -0.0059
13380SOL    HW140718   1.424   3.947   5.873  0.6758 -0.7122 -1.3986
13380SOL    HW240719   1.478   4.088   5.865 -0.0676 -0.2797  0.5201
13381SOL     OW40720   3.848   5.280   3.405 -1.3398 -0.1790 -0.0652
13381SOL    HW140721   3.904   5.230   3.345 -0.9219  0.5590 -0.2996
13381SOL    HW240722   3.906   5.346   3.443 -1.7673 -0.1912  0.6270
13382SOL     OW40723   4.204   6.178   6.189 -0.6771  0.0276 -0.3727
13382SOL    HW140724   4.168   6.225   6.114 -1.0536  0.8167  0.2933
13382SOL    HW240725   4.193   6.238   6.263 -1.6191 -1.2864  0.5927
13383SOL     OW40726   6.864   2.963   3.372  0.2986 -0.4825 -0.0001
13383SOL    HW140727   6.789   2.954   3.431  0.2430  0.7333  0.1479
13383SOL    HW240728   6.941   2.954   3.429  0.2459  0.9747  0.3433
13384SOL     OW40729   8.559   5.262   8.171 -0.3927 -0.0813  0.2990
13384SOL    HW140730   8.597   5.230   8.089  1.2980  0.7900  0.6890
13384SOL    HW240731   8.552   5.184   8.226  3.0785 -0.0538  1.0129
13385SOL     OW40732   9.192   0.610   5.046 -0.0921  0.4835  0.1273
13385SOL    HW140733   9.155   0.567   4.969 -0.4406 -1.4371  1.3010
13385SOL    HW240734   9.119   0.615   5.108  1.0090 -1.3956  1.6758
13386SOL     OW40735   8.220   2.444   0.399 -0.2359  0.4105 -0.5478
13386SOL    HW140736   8.179   2.357   0.400  0.8245 -0.1292  1.2349
13386SOL    HW240737   8.293   2.436   0.338  0.9457 -0.5439  0.9292
13387SOL     OW40738   7.719   9.093   0.192  0.2397 -0.0198 -0.1540
13387SOL    HW140739   7.791   9.031   0.183  0.3261  0.1172 -0.4114
13387SOL    HW240740   7.668   9.060   0.267  2.2480  1.5148  2.0469
13388SOL     OW40741   6.394   8.725   8.579  0.0660  0.3160  0.4788
13388SOL    HW140742   6.341   8.715   8.500  2.0691  0.4760 -0.9537
13388SOL    HW240743   6.426   8.637   8.597 -1.2594  0.0730  1.8041
13389SOL     OW40744   8.521   0.179   4.260 -0.3388  0.2600  0.0596
13389SOL    HW140745   8.563   0.135   4.186 -0.2109  1.2093 -0.4434
13389SOL    HW240746   8.594   0.214   4.312 -0.2325 -2.9245  2.3251
13390SOL     OW40747   5.454   6.047   6.244 -0.3818 -0.2512  0.1623
13390SOL    HW140748   5.497   5.973   6.288  2.8827  0.8692 -0.8182
13390SOL    HW240749   5.421   6.010   6.162  0.8826 -0.7483 -0.1541
13391SOL     OW40750   0.306   8.828   2.340  0.1098 -0.1519  0.7755
13391SOL    HW140751   0.338   8.745   2.376  0.2066 -0.5485 -0.1716
13391SOL    HW240752   0.378   8.890   2.356  2.1785 -1.3544 -2.5733
13392SOL     OW40753   6.779   6.934   9.001 -0.6378  0.7630 -0.1826
13392SOL    HW140754   6.699   6.890   9.031  0.0777  0.5788  1.5598
13392SOL    HW240755   6.812   6.878   8.931 -1.8016  0.6412 -0.6691
13393SOL     OW40756   8.191   5.643   9.918 -0.6574  0.3784 -0.4316
13393SOL    HW140757   8.126   5.691   9.970 -0.3784 -0.3486  0.6264
13393SOL    HW240758   8.170   5.551   9.935 -0.2934  0.1361 -1.2910
13394SOL     OW40759   9.155   5.498   4.409  0.5907 -0.4226  0.5145
13394SOL    HW140760   9.086   5.461   4.464 -0.5609 -0.3669 -0.8533
13394SOL    HW240761   9.169   5.433   4.340  1.2761 -0.0239  0.2608
13395SOL     OW40762   6.165   3.054   8.419 -0.2463  0.0350 -0.2972
13395SOL    HW140763   6.235   3.106   8.459 -0.0412 -0.0458 -0.5474
13395SOL    HW240764   6.124   3.113   8.356  0.7359 -0.4469 -1.4233
13396SOL     OW40765   9.826   8.615   4.702  0.0918  0.2061 -0.6171
13396SOL    HW140766   9.887   8.648   4.635 -0.1545  0.0249 -0.9349
13396SOL    HW240767   9.823   8.521   4.686  1.6352 -0.1569  0.9718
13397SOL     OW40768   6.991   4.127   7.369  0.7669 -0.1407  0.1562
13397SOL    HW140769   7.007   4.161   7.282  0.3760 -1.4446 -0.4549
13397SOL    HW240770   6.897   4.108   7.370  0.7659 -0.1316  0.8571
13398SOL     OW40771   9.900   4.328   8.395 -0.3462 -0.4415 -0.1154
13398SOL    HW140772   9.807   4.329   8.373 -0.3293 -1.6270 -0.3044
13398SOL    HW240773   9.940   4.388   8.332 -1.1208  1.0634  0.7610
13399SOL     OW40774   5.545   7.941   8.771  0.7430 -0.3490  0.0404
13399SOL    HW140775   5.574   7.980   8.689  3.7739 -2.0685  0.1468
13399SOL    HW240776   5.450   7.942   8.766  0.8093  1.3640 -2.5959
13400SOL     OW40777   1.856   4.455   8.079 -0.0586 -0.3696  0.1304
13400SOL    HW140778   1.773   4.498   8.060 -0.8941 -0.9567  2.1752
13400SOL    HW240779   1.884   4.417   7.996 -1.6720  0.0794 -0.6483
13401SOL     OW40780   6.450   9.950   0.537  0.3548 -0.2841  0.1364
13401SOL    HW140781   6.365   9.915   0.564 -0.8089 -0.1130 -2.9294
13401SOL    HW240782   6.441  10.045   0.549 -0.6134 -0.0808 -1.7075
13402SOL     OW40783   0.038   0.130   7.574 -0.0522  0.1242 -0.3248
13402SOL    HW140784  -0.018   0.089   7.640 -1.8819 -0.0540 -1.8914
13402SOL    HW240785   0.104   0.064   7.553 -0.1489 -0.2378  0.5023
13403SOL     OW40786   4.145   4.457   4.011 -0.2051 -0.0403 -0.5887
13403SOL    HW140787   4.140   4.532   4.071  4.3386  0.3843 -0.3575
13403SOL    HW240788   4.200   4.489   3.938 -0.9487 -2.1903 -2.1825
13404SOL     OW40789   8.159   2.742   6.977  0.0270  0.5442 -0.4159
13404SOL    HW140790   8.248   2.710   6.963  0.3465  1.8972 -1.7735
13404SOL    HW240791   8.112   2.668   7.017  1.8684 -0.0247  0.8068
13405SOL     OW40792   0.429   7.754   2.090 -0.2266  0.1151 -0.5026
13405SOL    HW140793   0.370   7.826   2.115  2.2613  2.0803  0.0920
13405SOL    HW240794   0.400   7.680   2.144 -1.4387  1.3255  0.5883
13406SOL     OW40795   5.814   1.810   5.192  0.1717 -0.3401 -0.2346
13406SOL    HW140796   5.842   1.849   5.109 -0.4557  0.0688 -0.2665
13406SOL    HW240797   5.719   1.801   5.183  0.0034  0.3272  0.6756
13407SOL     OW40798   9.498   9.445   6.210 -0.1096 -0.6453 -0.1696
13407SOL    HW140799   9.422   9.481   6.165 -0.9021 -1.0365  0.8057
13407SOL    HW240800   9.551   9.522   6.234 -0.5694 -0.3114 -0.2153
13408SOL     OW40801   7.769   4.118   8.684 -0.4119  0.2295 -0.4176
13408SOL    HW140802   7.796   4.054   8.750 -0.9974 -0.0528 -0.4457
13408SOL    HW240803   7.847   4.131   8.630 -0.1685 -0.1618 -0.1644
13409SOL     OW40804   3.831   3.257   1.997 -0.0605 -0.3014  0.3788
13409SOL    HW140805   3.859   3.184   1.942 -0.5320 -0.8953  0.9126
13409SOL    HW240806   3.833   3.333   1.939  1.1347 -0.5994  0.0023
13410SOL     OW40807   3.410   1.931   3.720  0.6520 -0.0209  0.7914
13410SOL    HW140808   3.486   1.931   3.662 -0.5664 -0.0486 -0.8755
13410SOL    HW240809   3.374   2.019   3.713 -0.7516 -0.6379 -0.2373
13411SOL     OW40810   7.822   7.784   7.870 -0.1122  0.0667 -0.1555
13411SOL    HW140811   7.815   7.719   7.939  0.3588  1.7114  1.5307
13411SOL    HW240812   7.837   7.733   7.790 -1.3625 -1.9308  0.7958
13412SOL     OW40813   2.111   0.515   7.021  0.0670 -0.0882  0.2946
13412SOL    HW140814   2.031   0.463   7.021  0.5829 -0.9302  1.8496
13412SOL    HW240815   2.134   0.524   6.928 -1.1469 -0.8849 -0.0967
13413SOL     OW40816   2.325   4.851   9.706  0.1341 -0.2472  0.3658
13413SOL    HW140817   2.321   4.759   9.680  1.6648  0.1392 -1.5523
13413SOL    HW240818   2.333   4.850   9.801 -1.1196 -2.0164  0.4844
13414SOL     OW40819   6.188   5.151   0.880  1.1134 -0.2708  0.1584
13414SOL    HW140820   6.247   5.075   0.877  2.0924  0.4292  1.2413
13414SOL    HW240821   6.217   5.207   0.808  1.3108 -0.2624  0.2436
13415SOL     OW40822   0.118   6.480   9.921  0.2893 -0.1168 -0.3467
13415SOL    HW140823   0.138   6.553   9.862  0.4473 -0.7719 -1.1196
13415SOL    HW240824   0.135   6.402   9.869 -0.7985 -0.7114  0.1572
13416SOL     OW40825   1.741   7.960   1.837 -0.1376  0.2715  0.1689
13416SOL    HW140826   1.653   7.933   1.810  0.5625 -0.6173 -1.3116
13416SOL    HW240827   1.726   8.013   1.915 -1.9533 -0.2667  0.2408
13417SOL     OW40828   3.797   5.000   3.812 -0.2332  0.4523 -0.3629
13417SOL    HW140829   3.885   5.020   3.781 -0.6195  1.2971 -0.9398
13417SOL    HW240830   3.767   4.929   3.756  0.1540  0.0096 -0.0200
13418SOL     OW40831   7.438   4.850   8.451  0.0649  0.1300 -0.3306
13418SOL    HW140832   7.387   4.858   8.371  0.9324 -0.6154 -0.9708
13418SOL    HW240833   7.480   4.764   8.446  2.0538  1.0263 -0.2366
13419SOL     OW40834   0.273   6.029   2.458  0.5073  0.1245 -0.4073
13419SOL    HW140835   0.278   6.099   2.393  0.4928  0.2682 -0.2553
13419SOL    HW240836   0.242   6.072   2.538  1.0616  0.0601 -0.1509
13420SOL     OW40837   6.868   4.070   0.476 -0.8668  0.0730  0.3660
13420SOL    HW140838   6.957   4.039   0.493 -1.7170 -4.1262 -1.6096
13420SOL    HW240839   6.879   4.163   0.456  2.6288  0.3668  2.7087
13421SOL     OW40840   1.238   0.227   4.101 -0.3267  0.1743 -0.5344
13421SOL    HW140841   1.280   0.154   4.147 -0.1003  0.9472  0.5189
13421SOL    HW240842   1.212   0.190   4.017 -0.6134 -1.2371  0.1399
13422SOL     OW40843   8.762   4.009   3.485  0.3871 -0.1442  0.2065
13422SOL    HW140844   8.733   4.017   3.394  0.9167  0.5936  0.0871
13422SOL    HW240845   8.834   3.946   3.482  2.9668  2.5885 -0.5673
13423SOL     OW40846   6.719   5.748   6.293  0.3062  0.1794 -0.5318
13423SOL    HW140847   6.635   5.782   6.324  0.8582  1.1787 -0.0827
13423SOL    HW240848   6.710   5.747   6.198 -0.2096  0.2972 -0.4893
13424SOL     OW40849   5.977   7.024   3.355 -0.1010 -0.0726 -0.5766
13424SOL    HW140850   5.963   6.932   3.380  0.5494  0.2689  1.1748
13424SOL    HW240851   6.072   7.036   3.363 -0.3367  1.1397  0.7055
13425SOL     OW40852   6.699   2.075   4.319  0.0783  0.4455  0.1638
13425SOL    HW140853   6.701   1.986   4.285 -0.4845  0.1703  0.8163
13425SOL    HW240854   6.769   2.121   4.273 -0.1593 -0.1163 -0.7769
13426SOL     OW40855   8.261   6.320   1.984 -0.0735 -0.1203  0.5146
13426SOL    HW140856   8.286   6.279   2.067  0.1536 -1.2605 -0.0936
13426SOL    HW240857   8.325   6.390   1.971  0.2286 -0.2972  1.0408
13427SOL     OW40858   7.343   6.347   3.647  0.3419  0.5328  0.5618
13427SOL    HW140859   7.425   6.300   3.658 -0.5118 -1.4209 -0.7989
13427SOL    HW240860   7.338   6.406   3.722  3.4824  1.5512  0.1203
13428SOL     OW40861   1.126   7.137   3.854 -0.0239  0.3649  0.3834
13428SOL    HW140862   1.158   7.189   3.780  3.2711 -0.6475  0.9332
13428SOL    HW240863   1.122   7.200   3.927  1.2460  0.4873  0.3816
13429SOL     OW40864   6.400   5.759   5.844 -0.0575 -0.3072 -0.1817
13429SOL    HW140865   6.439   5.805   5.918  0.5184 -1.0850  0.0106
13429SOL    HW240866   6.475   5.725   5.795 -0.3190  1.7998 -2.2255
13430SOL     OW40867   2.919   2.458   6.944  0.2251  0.1853  0.3055
13430SOL    HW140868   2.966   2.410   7.013 -0.0717 -0.7375 -0.1201
13430SOL    HW240869   2.905   2.545   6.982  0.3565 -0.1998  1.2886
13431SOL     OW40870   7.344   3.403   1.036 -0.0549  0.6294 -0.2252
13431SOL    HW140871   7.268   3.435   0.986 -0.7512 -0.4422  0.1135
13431SOL    HW240872   7.313   3.322   1.076  1.9104 -0.9819 -1.7751
13432SOL     OW40873   6.565   1.113   3.177  0.1775 -0.1724 -0.4241
13432SOL    HW140874   6.489   1.140   3.230  0.2432  0.1414 -0.4877
13432SOL    HW240875   6.640   1.139   3.230  0.2406 -0.3804 -0.4132
13433SOL     OW40876   8.861   1.426   8.721 -0.2113  0.5173  0.0602
13433SOL    HW140877   8.950   1.420   8.756  0.0052  1.0764 -0.3788
13433SOL    HW240878   8.847   1.342   8.677 -0.3995 -0.0983  1.2523
13434SOL     OW40879   1.652   3.640   8.437 -0.7327 -0.0726  0.1436
13434SOL    HW140880   1.565   3.600   8.435 -0.0799 -1.6860  1.6062
13434SOL    HW240881   1.678   3.637   8.529 -0.5675  3.7613  0.3923
13435SOL     OW40882   7.407   4.321   6.994  0.4322 -0.2669 -0.3340
13435SOL    HW140883   7.389   4.227   6.996  0.3875 -0.2540  0.8396
13435SOL    HW240884   7.324   4.361   6.970  0.1362 -0.4748  0.3067
13436SOL     OW40885   4.004   9.186   7.972 -0.2487  0.2374  0.2208
13436SOL    HW140886   3.947   9.247   7.925 -0.3677 -0.8370 -1.0914
13436SOL    HW240887   4.069   9.242   8.015 -1.7139  1.4130  0.9830
13437SOL     OW40888   7.847   0.947   2.252 -0.1325 -0.3739  0.0466
13437SOL    HW140889   7.878   1.008   2.318 -1.0409  0.0158  0.1326
13437SOL    HW240890   7.923   0.928   2.198  0.1675  0.8167  0.0339
13438SOL     OW40891   9.773   9.907   2.811 -0.0441  0.0679 -0.0689
13438SOL    HW140892   9.839   9.855   2.766 -0.1789  0.8872 -1.2683
13438SOL    HW240893   9.813   9.993   2.822 -1.1607  0.8364 -1.5819
13439SOL     OW40894   6.137   0.560   9.441 -0.1539  0.6689 -0.9401
13439SOL    HW140895   6.195   0.577   9.366  1.3642 -3.4050 -0.9655
13439SOL    HW240896   6.185   0.593   9.517 -0.2504  2.0110 -1.4474
13440SOL     OW40897   3.387   4.365   9.304 -0.5469  0.5933  0.1569
13440SOL    HW140898   3.308   4.411   9.329 -0.0806  2.0192 -0.8743
13440SOL    HW240899   3.357   4.277   9.280 -1.6311  0.7340  0.9292
13441SOL     OW40900   9.959   9.746   9.854 -0.1190 -0.4517  0.6850
13441SOL    HW140901   9.931   9.655   9.847 -0.9332 -0.0733 -1.3829
13441SOL    HW240902   9.886   9.790   9.897  0.0245 -0.6439  1.1365
13442SOL     OW40903   6.441   3.029   0.667 -0.2006  0.5668 -0.3397
13442SOL    HW140904   6.477   2.941   0.662 -0.4920  0.5028 -1.4792
13442SOL    HW240905   6.413   3.049   0.578  0.5568  2.1055 -0.2594
13443SOL     OW40906   7.848   2.535   9.064 -0.3188  0.3992  0.0921
13443SOL    HW140907   7.826   2.563   8.975 -3.2426  1.0335  0.9093
13443SOL    HW240908   7.915   2.468   9.052 -0.8925  0.1885 -2.6151
13444SOL     OW40909   2.704   0.623   0.257  0.0244 -0.2834  0.4905
13444SOL    HW140910   2.770   0.571   0.211 -1.0176 -3.0809  1.8887
13444SOL    HW240911   2.627   0.620   0.201  0.1069  0.1202  0.3607
13445SOL     OW40912   8.427   9.481   8.167 -0.4636 -0.1134 -0.5591
13445SOL    HW140913   8.451   9.454   8.079 -0.8462  1.4308 -1.1626
13445SOL    HW240914   8.511   9.507   8.207 -0.6175  2.1161 -1.5467
13446SOL     OW40915   5.220   1.927   3.009  0.1903 -0.1430  0.1687
13446SOL    HW140916   5.141   1.933   2.955  0.4498 -0.3498 -0.2411
13446SOL    HW240917   5.190   1.944   3.098  0.0777  2.3113 -0.2598
13447SOL     OW40918   2.649   6.359   0.321 -0.4020 -0.2747  0.1244
13447SOL    HW140919   2.706   6.359   0.243 -0.3784 -1.7438  0.1234
13447SOL    HW240920   2.672   6.279   0.367  1.0445  1.5109  2.7614
13448SOL     OW40921   6.808   3.109   5.602  0.0620 -0.3031  0.4412
13448SOL    HW140922   6.752   3.180   5.573  0.1437 -0.2130  0.5020
13448SOL    HW240923   6.883   3.111   5.543 -1.3325 -2.2889 -1.5561
13449SOL     OW40924   9.875  10.002   1.510 -0.2352  0.2111  0.3702
13449SOL    HW140925   9.828  10.016   1.593 -1.5449  1.6677 -0.5680
13449SOL    HW240926   9.891   9.908   1.507 -0.8888  0.0233  1.8887
13450SOL     OW40927   6.825   0.204   7.607  0.1196  0.1983 -0.0244
13450SOL    HW140928   6.887   0.250   7.663  1.5451 -1.4769 -0.1319
13450SOL    HW240929   6.878   0.139   7.561 -1.4252 -0.0885 -1.5060
13451SOL     OW40930   9.107   4.138   9.251  0.4927 -0.0720 -0.6102
13451SOL    HW140931   9.045   4.069   9.231  0.6748 -0.4737  0.1762
13451SOL    HW240932   9.180   4.093   9.294  0.2569  0.7041  0.6441
13452SOL     OW40933   0.079   0.813   4.280  0.0591 -0.3012 -0.0199
13452SOL    HW140934   0.135   0.746   4.242  0.1282 -0.0616 -0.3410
13452SOL    HW240935   0.041   0.771   4.358  1.3142 -0.2127  0.6792
13453SOL     OW40936   1.020   6.355   5.847  0.5144  0.1735  0.1728
13453SOL    HW140937   1.111   6.329   5.841  0.0699 -1.5762  0.4470
13453SOL    HW240938   0.971   6.273   5.852 -0.9470  1.0648  1.9401
13454SOL     OW40939   1.090   6.606   1.216  0.3150 -0.2708 -0.2090
13454SOL    HW140940   1.184   6.598   1.235  0.4311 -1.0043 -1.0485
13454SOL    HW240941   1.074   6.544   1.145 -0.4487  1.1095 -1.2978
13455SOL     OW40942   6.259   4.423   1.427 -0.0622  0.3523 -0.3916
13455SOL    HW140943   6.343   4.377   1.431 -1.1704 -1.7555 -0.0447
13455SOL    HW240944   6.263   4.485   1.500 -0.2057 -2.3868  2.1483
13456SOL     OW40945   2.368   0.518   7.491  0.1747  0.1223 -0.4865
13456SOL    HW140946   2.460   0.546   7.500  0.3488 -0.6970  0.4851
13456SOL    HW240947   2.363   0.480   7.404  0.9373 -0.4030 -0.3120
13457SOL     OW40948   2.551   5.828   2.328 -0.3105 -0.2914 -0.1014
13457SOL    HW140949   2.477   5.873   2.370 -1.3087 -2.2894  0.4000
13457SOL    HW240950   2.525   5.821   2.236 -0.2555 -0.0768 -0.1351
13458SOL     OW40951   0.209   1.536   2.671 -0.0272 -0.1417 -0.5444
13458SOL    HW140952   0.289   1.585   2.652  0.8734 -0.9166  1.0610
13458SOL    HW240953   0.217   1.511   2.763 -2.7412  0.8682  0.0727
13459SOL     OW40954   9.648   3.048   3.288 -0.1297 -0.5621  0.2716
13459SOL    HW140955   9.596   3.103   3.347  1.6419  0.0324  1.3729
13459SOL    HW240956   9.674   2.973   3.342  1.8150  0.1644  0.4181
13460SOL     OW40957   6.085   8.786   5.479 -0.4384  0.0735  0.4225
13460SOL    HW140958   6.054   8.786   5.388 -1.4402 -2.2139  0.7137
13460SOL    HW240959   6.155   8.720   5.480 -1.0043 -0.5294  1.4716
13461SOL     OW40960   8.948   2.523   6.526 -0.0644  0.3488 -0.1641
13461SOL    HW140961   8.911   2.563   6.447 -2.1811 -0.9115  0.1141
13461SOL    HW240962   8.899   2.562   6.598  0.9294  0.4978  0.4510
13462SOL     OW40963   8.342   9.843   7.047 -0.0054  0.3981  0.2301
13462SOL    HW140964   8.260   9.805   7.078  0.9475 -1.1830  0.9174
13462SOL    HW240965   8.342   9.828   6.953  0.1089 -0.8893  0.4140
13463SOL     OW40966   7.276   2.453   0.486  0.6201 -0.0818 -0.1881
13463SOL    HW140967   7.316   2.511   0.551 -0.2631  0.2346  0.0859
13463SOL    HW240968   7.298   2.493   0.402 -1.8129  1.9714  0.0239
13464SOL     OW40969   1.170   6.243   6.788 -0.2825 -0.1881 -0.0056
13464SOL    HW140970   1.227   6.216   6.716 -1.4927  0.5188 -1.2505
13464SOL    HW240971   1.087   6.198   6.772 -0.8215  0.5982  0.5103
13465SOL     OW40972   3.943   2.976   8.552  0.3373 -0.2647 -0.1141
13465SOL    HW140973   3.907   2.944   8.469  0.8353 -0.7016 -0.1683
13465SOL    HW240974   3.957   2.897   8.605  0.2672 -0.0123  0.2849
13466SOL     OW40975   1.522   0.708   2.032  0.0040  0.5449  0.3511
13466SOL    HW140976   1.520   0.803   2.022  0.5661  0.5036 -0.2261
13466SOL    HW240977   1.562   0.694   2.118 -0.7326  0.8310  0.7566
13467SOL     OW40978   5.284   2.269   7.147  0.2047  0.0992 -0.3233
13467SOL    HW140979   5.377   2.294   7.147 -0.1485  1.5174 -1.0599
13467SOL    HW240980   5.238   2.347   7.176 -0.7490 -0.7541  0.5212
13468SOL     OW40981   1.847   9.022   3.436  0.3001  0.7693  0.1684
13468SOL    HW140982   1.775   9.027   3.499  0.5264  0.0384  0.5009
13468SOL    HW240983   1.826   8.946   3.382  0.5564  0.8690 -0.0728
13469SOL     OW40984   7.148   0.643   5.954 -0.4945 -0.6882  0.2651
13469SOL    HW140985   7.137   0.657   6.048 -1.3989  0.7669 -0.0299
13469SOL    HW240986   7.080   0.697   5.914 -0.3719 -1.5893 -1.2197
13470SOL     OW40987   9.419   9.056   8.959 -0.2083 -0.5730  0.6753
13470SOL    HW140988   9.428   9.133   9.014  3.4685 -1.5811  1.7266
13470SOL    HW240989   9.466   9.078   8.879 -0.6753 -1.1059  0.2461
13471SOL     OW40990   8.959   1.531   9.374  0.0690  0.1099 -0.0472
13471SOL    HW140991   9.052   1.526   9.394  0.0215  0.9821  0.4619
13471SOL    HW240992   8.949   1.614   9.327 -0.5505  0.3792  0.5375
13472SOL     OW40993   6.825   0.192   0.557  0.1265  0.1844 -0.2988
13472SOL    HW140994   6.896   0.227   0.612 -0.6874  1.7036 -0.1644
13472SOL    HW240995   6.771   0.268   0.536 -2.5676 -1.1736  1.1728
13473SOL     OW40996   8.964   2.450   0.138 -0.2790 -0.6087  0.4302
13473SOL    HW140997   8.996   2.538   0.116 -0.4718 -0.8471 -0.8558
13473SOL    HW240998   8.869   2.459   0.139 -0.3316 -0.9978 -0.5983
13474SOL     OW40999   9.280   4.098   1.636  0.2183  0.5634  0.4193
13474SOL    HW141000   9.290   4.162   1.566 -3.2893  0.6686 -0.1994
13474SOL    HW241001   9.232   4.025   1.596  0.8222 -0.7908  1.9963
13475SOL     OW41002   2.702   7.672   2.162  0.0937  0.0443 -0.0090
13475SOL    HW141003   2.677   7.616   2.235 -1.1814  1.8300  1.0001
13475SOL    HW241004   2.793   7.697   2.182  0.5493 -1.2978 -0.2818
13476SOL     OW41005   4.973   0.312   1.412  0.3085  0.2366  0.3408
13476SOL    HW141006   4.930   0.311   1.327 -1.1831 -2.4915  1.0041
13476SOL    HW241007   5.056   0.266   1.397 -0.2897 -0.9261  0.4437
13477SOL     OW41008   8.537   0.478   0.747 -0.2082  0.1914 -0.5535
13477SOL    HW141009   8.461   0.488   0.689 -1.7432 -0.9109  1.1240
13477SOL    HW241010   8.576   0.395   0.720  0.8598  1.0922 -1.8707
13478SOL     OW41011   7.919   8.858   9.895  0.1782  0.2564 -0.7124
13478SOL    HW141012   7.852   8.789   9.893 -0.1712  0.5861 -0.3890
13478SOL    HW241013   8.002   8.810   9.894 -0.0600 -0.1894  0.1875
13479SOL     OW41014   9.799   5.383   7.703 -0.2245 -0.3487 -0.6870
13479SOL    HW141015   9.875   5.332   7.674  0.8936  1.3751 -0.9232
13479SOL    HW241016   9.822   5.474   7.684 -2.2897  0.2527 -0.5968
13480SOL     OW41017   7.464   1.139   9.006  0.0575  0.2150  0.6435
13480SOL    HW141018   7.388   1.093   8.968 -0.1149 -0.5851  1.9066
13480SOL    HW241019   7.500   1.189   8.933  0.2921 -1.9707 -0.8428
13481SOL     OW41020   3.901   5.851   2.500  0.1282 -0.1384  0.3190
13481SOL    HW141021   3.917   5.944   2.519  2.9130 -0.1915 -1.3291
13481SOL    HW241022   3.953   5.804   2.565  1.4587 -0.4398 -0.9149
13482SOL     OW41023   8.733   6.979   9.902 -0.4303  0.4190 -0.1137
13482SOL    HW141024   8.651   6.978   9.950  0.0166  0.5696  0.6675
13482SOL    HW241025   8.714   7.033   9.824 -1.0344  0.5440  0.1132
13483SOL     OW41026   6.728   9.027   9.682 -0.5671 -0.0844  0.4112
13483SOL    HW141027   6.664   9.012   9.752  0.3452 -2.8266  0.7660
13483SOL    HW241028   6.684   8.994   9.603  1.0224 -4.1503  1.0027
13484SOL     OW41029   4.268   0.844   3.054  0.6201 -0.0523  0.0877
13484SOL    HW141030   4.245   0.788   3.128 -0.9126  1.9317  1.2111
13484SOL    HW241031   4.201   0.824   2.988  0.3970  0.0800  0.2738
13485SOL     OW41032   7.001   2.673   4.992 -0.4768 -0.2425 -0.5567
13485SOL    HW141033   6.977   2.647   4.904  1.0125 -0.3348 -0.9609
13485SOL    HW241034   6.932   2.734   5.019 -1.2773 -0.6978 -1.5308
13486SOL     OW41035   5.604   8.180   0.704 -0.1222 -0.0285  0.2196
13486SOL    HW141036   5.545   8.202   0.776  0.7732 -0.2928  1.0369
13486SOL    HW241037   5.557   8.210   0.626 -0.9247  0.6250  0.9303
13487SOL     OW41038   7.766   1.773   3.889  0.1632 -0.3564  0.6094
13487SOL    HW141039   7.807   1.728   3.815  0.9792  0.7529  0.3410
13487SOL    HW241040   7.778   1.866   3.869  0.4278 -0.0370  2.1472
13488SOL     OW41041   7.973   3.782   7.366  0.0481  0.1887  0.1953
13488SOL    HW141042   7.971   3.768   7.271 -3.1831  1.2849 -0.0000
13488SOL    HW241043   8.067   3.780   7.388  0.7906 -3.0365 -2.4644
13489SOL     OW41044   9.808   4.204   7.647 -0.2045 -0.2568 -0.2324
13489SOL    HW141045   9.744   4.185   7.579  0.5928  0.8200 -1.3366
13489SOL    HW241046   9.775   4.160   7.725 -2.2798  0.2527 -0.7616
13490SOL     OW41047   8.550   6.311   8.464 -0.3302 -0.1656  0.1899
13490SOL    HW141048   8.471   6.363   8.476  0.2679  1.3688 -1.8190
13490SOL    HW241049   8.550   6.288   8.371  1.3724 -0.4754  0.2207
13491SOL     OW41050   8.824   4.540   4.858 -0.3784  0.5541 -0.1866
13491SOL    HW141051   8.857   4.630   4.864 -0.2989  0.5247 -0.1881
13491SOL    HW241052   8.814   4.525   4.764 -0.2326  0.5026 -0.1943
13492SOL     OW41053   2.982   9.790   7.819 -0.2535 -0.3929  0.8124
13492SOL    HW141054   2.892   9.761   7.802 -0.4064 -0.6694  2.0311
13492SOL    HW241055   2.973   9.882   7.844 -0.0471 -0.0394 -0.3482
13493SOL     OW41056   7.002   9.267   3.054  0.0778  0.0088  0.0010
13493SOL    HW141057   6.937   9.337   3.051 -1.2783 -1.1445  0.7855
13493SOL    HW241058   7.010   9.238   2.963 -0.7516 -0.0220 -0.0735
13494SOL     OW41059   1.187   2.606   8.808  0.4697  0.2713 -0.4706
13494SOL    HW141060   1.163   2.514   8.816 -0.8606  0.4017 -2.2806
13494SOL    HW241061   1.113   2.654   8.846  1.7959  0.6486  1.8306
13495SOL     OW41062   4.391   6.920   0.565 -0.4080 -0.1316 -0.5604
13495SOL    HW141063   4.321   6.857   0.582 -0.0516 -0.5218 -0.5544
13495SOL    HW241064   4.468   6.867   0.546 -0.4873  0.2936 -2.2316
13496SOL     OW41065   8.047   2.241   3.980  0.3477  0.4811  0.0656
13496SOL    HW141066   7.965   2.204   4.011  0.1104  0.0964 -0.9710
13496SOL    HW241067   8.059   2.321   4.031 -1.4394  1.3474 -0.7834
13497SOL     OW41068   9.669   0.042   4.517 -0.0824  0.5613 -0.1017
13497SOL    HW141069   9.680   0.029   4.423  0.0406  1.6642 -0.2579
13497SOL    HW241070   9.593  -0.011   4.540 -2.3703  2.9807 -1.5295
13498SOL     OW41071   7.318   0.914   6.826  0.0481 -0.1371 -0.5137
13498SOL    HW141072   7.277   0.995   6.857 -0.1408 -0.4551  0.0808
13498SOL    HW241073   7.394   0.903   6.883 -0.0797 -0.5249 -0.4201
13499SOL     OW41074   0.532   7.634   7.358 -0.4375  0.1766 -0.0091
13499SOL    HW141075   0.603   7.640   7.294 -0.4328  2.3492  0.1133
13499SOL    HW241076   0.569   7.583   7.430  0.5591  0.1768 -0.4991
13500SOL     OW41077   2.025   8.130   3.344 -0.0026 -1.4485 -0.1140
13500SOL    HW141078   2.001   8.144   3.252 -0.2248 -0.9911  0.0083
13500SOL    HW241079   1.981   8.049   3.369 -0.6458 -1.1143 -0.1646
13501SOL     OW41080   2.683   4.614   4.702 -0.2926  0.1617  0.2465
13501SOL    HW141081   2.683   4.693   4.647 -0.5879  0.7547  1.0674
13501SOL    HW241082   2.634   4.550   4.652 -0.8498  0.8001 -0.0432
13502SOL     OW41083   3.959   3.734   4.908 -0.0715 -0.3277  0.5820
13502SOL    HW141084   3.968   3.685   4.990 -2.0799  0.5549  1.4063
13502SOL    HW241085   3.943   3.824   4.935 -0.2054  0.0920 -0.8011
13503SOL     OW41086   7.023   0.872   6.249  0.6752 -0.4847  0.2566
13503SOL    HW141087   7.022   0.962   6.281 -3.1143 -0.1222 -0.4387
13503SOL    HW241088   6.996   0.819   6.325 -0.8765 -0.5070 -0.2712
13504SOL     OW41089   9.143   7.831   8.285 -0.4208 -0.0432  0.0191
13504SOL    HW141090   9.153   7.796   8.197 -0.4227  0.1689 -0.0654
13504SOL    HW241091   9.117   7.922   8.273 -1.3164 -0.2635  0.2433
13505SOL     OW41092   5.375   3.345   5.968  0.4443  0.1826 -0.3011
13505SOL    HW141093   5.417   3.430   5.953  0.9307  0.5522  2.5608
13505SOL    HW241094   5.319   3.360   6.045  0.7607 -2.1394  0.4413
13506SOL     OW41095   9.339   4.242   9.119 -0.4626  0.7295 -0.3585
13506SOL    HW141096   9.263   4.203   9.163 -0.0107 -0.6157 -0.7131
13506SOL    HW241097   9.309   4.260   9.030 -0.0315 -1.1072 -0.9339
13507SOL     OW41098   5.982   2.676   1.862 -0.3558  0.7797 -0.0561
13507SOL    HW141099   6.011   2.692   1.773  0.7018 -1.4106 -0.1584
13507SOL    HW241100   6.062   2.674   1.914 -0.7160 -0.4038  0.5013
13508SOL     OW41101   2.385   8.676   8.384 -0.7076  0.4254 -0.2010
13508SOL    HW141102   2.315   8.739   8.365 -0.4337  0.5517 -0.8103
13508SOL    HW241103   2.457   8.702   8.327  0.0380  0.6104  0.8062
13509SOL     OW41104   0.600   4.253   9.699 -0.6656  0.1803  0.1202
13509SOL    HW141105   0.687   4.264   9.660  0.5809 -4.6702  0.8746
13509SOL    HW241106   0.610   4.281   9.789  0.4432 -1.0577  0.4151
13510SOL     OW41107   4.718   3.790   4.908  0.2238  0.1273  0.3954
13510SOL    HW141108   4.678   3.796   4.821  1.4678  0.4376 -0.1824
13510SOL    HW241109   4.812   3.804   4.892  0.4776  0.1470  1.7850
13511SOL     OW41110   2.151   1.161   9.909 -0.2922  0.2887 -0.0966
13511SOL    HW141111   2.088   1.095   9.880  1.1956 -1.1418 -0.2068
13511SOL    HW241112   2.202   1.117   9.977  1.7818  0.7803 -1.2637
13512SOL     OW41113   2.744   7.718   1.381 -0.3219 -0.8300 -0.1058
13512SOL    HW141114   2.689   7.780   1.427  0.2522 -1.2927  1.2626
13512SOL    HW241115   2.687   7.643   1.363 -0.4848 -0.7496  0.0845
13513SOL     OW41116   0.694   2.647   0.549  0.7161  0.1492 -0.1697
13513SOL    HW141117   0.690   2.552   0.563  0.4142  0.4564  2.0761
13513SOL    HW241118   0.662   2.685   0.630 -0.9979  2.1994 -1.6753
13514SOL     OW41119   2.782   7.599   1.728 -0.6189  0.1808  0.0040
13514SOL    HW141120   2.770   7.536   1.656 -2.6306  0.2600  0.2123
13514SOL    HW241121   2.777   7.546   1.807 -0.8014  0.4027  0.1414
13515SOL     OW41122   5.981   3.175   9.724  0.2949  0.2398 -0.5115
13515SOL    HW141123   5.915   3.185   9.792  1.1462 -1.7463  0.7028
13515SOL    HW241124   6.063   3.203   9.765  0.5252  0.8097 -1.3465
13516SOL     OW41125   5.379   1.322   5.195  0.4509  0.0109 -0.6493
13516SOL    HW141126   5.309   1.387   5.195  0.2760 -0.0646  2.1920
13516SOL    HW241127   5.422   1.332   5.280  1.7159 -2.2257 -0.9327
13517SOL     OW41128   1.427   8.831   4.280 -0.0436 -0.5271 -0.4677
13517SOL    HW141129   1.509   8.850   4.326 -1.0962 -0.7423  1.5877
13517SOL    HW241130   1.384   8.916   4.270 -0.6919 -0.6973  0.7264
13518SOL     OW41131   2.678   0.727   0.934 -0.0269  0.1737 -0.2509
13518SOL    HW141132   2.653   0.759   0.848 -0.1154  0.9656  0.0572
13518SOL    HW241133   2.743   0.659   0.917 -0.7508 -0.3488 -0.9692
13519SOL     OW41134   7.090   0.132   3.356  0.6167 -0.6048 -0.1755
13519SOL    HW141135   7.145   0.065   3.316  2.0507 -0.4250  1.3432
13519SOL    HW241136   7.023   0.084   3.403  0.3276 -0.8820 -0.8607
13520SOL     OW41137   3.079   4.886   6.207 -0.0814 -0.3376  0.0529
13520SOL    HW141138   3.000   4.870   6.258  0.0487  0.3388  0.4884
13520SOL    HW241139   3.048   4.926   6.126 -0.2234 -0.5675 -0.0062
13521SOL     OW41140   9.787   5.215   8.891  0.0274  0.3945 -0.1348
13521SOL    HW141141   9.720   5.170   8.840 -0.4241  0.1103  0.6843
13521SOL    HW241142   9.863   5.219   8.834 -0.6573  0.6412 -1.0529
13522SOL     OW41143   4.180   3.344   3.308  0.2312  0.8008  0.4525
13522SOL    HW141144   4.113   3.376   3.247  2.1139 -0.0163 -2.2160
13522SOL    HW241145   4.227   3.423   3.335  0.3833  1.0331 -0.4624
13523SOL     OW41146   3.867   5.509   0.787  0.0053  0.0184 -0.2407
13523SOL    HW141147   3.901   5.528   0.700 -0.8960  2.0946 -0.1849
13523SOL    HW241148   3.791   5.566   0.797  0.0390 -0.2118  1.8784
13524SOL     OW41149   5.050   6.959   5.797 -0.1815 -0.1942  0.0370
13524SOL    HW141150   5.029   6.914   5.879 -0.0998 -0.4361 -0.0727
13524SOL    HW241151   4.966   6.993   5.766  0.0717  1.6636  1.2454
13525SOL     OW41152   0.387   0.990   0.753 -0.7456 -0.8548  0.1606
13525SOL    HW141153   0.437   0.966   0.831 -0.7248 -1.6556 -0.0858
13525SOL    HW241154   0.452   0.991   0.682 -0.5561  0.9572  0.3240
13526SOL     OW41155   0.804   1.092   8.247  0.1407 -0.3122 -0.0346
13526SOL    HW141156   0.892   1.122   8.266  0.3241  0.3953 -1.8395
13526SOL    HW241157   0.762   1.166   8.203 -0.7074 -1.2969 -0.9514
13527SOL     OW41158   5.594   4.911   3.739  0.2898  0.0391  0.1488
13527SOL    HW141159   5.545   4.834   3.709  1.8743 -0.8369 -0.3096
13527SOL    HW241160   5.652   4.932   3.666  1.1589  0.5547  0.9634
13528SOL     OW41161   0.594   8.680   7.419 -0.3470  0.0161 -0.1460
13528SOL    HW141162   0.510   8.651   7.455 -0.1127  1.3260  1.5757
13528SOL    HW241163   0.638   8.725   7.492  1.4417  0.2114 -1.2736
13529SOL     OW41164   4.568   3.515   7.837 -0.0056  0.2774 -0.4673
13529SOL    HW141165   4.638   3.491   7.897  0.9421  0.2867 -1.5442
13529SOL    HW241166   4.522   3.586   7.882 -1.3708 -1.8412  1.6833
13530SOL     OW41167   6.723   2.341   3.899  0.6092  0.6378  0.1942
13530SOL    HW141168   6.812   2.376   3.912  0.3620  1.3172  0.1290
13530SOL    HW241169   6.735   2.265   3.843  1.2272  0.2982  0.7615
13531SOL     OW41170   4.506   4.611   8.998 -0.1642 -0.2074 -0.1784
13531SOL    HW141171   4.556   4.531   9.008  3.1420  1.8394  1.3541
13531SOL    HW241172   4.558   4.666   8.940 -1.2128  1.6402  0.5250
13532SOL     OW41173   7.462   6.301   5.546 -0.1546  0.1694  0.1707
13532SOL    HW141174   7.425   6.240   5.610  1.3636 -1.4751 -0.4245
13532SOL    HW241175   7.539   6.337   5.589 -0.1209  0.4059 -0.0878
13533SOL     OW41176   9.930   9.783   2.588  0.7099 -0.2092 -0.0463
13533SOL    HW141177   9.969   9.860   2.546 -2.2927  1.4291 -0.1239
13533SOL    HW241178   9.854   9.761   2.534 -0.0265 -1.5756  1.4356
13534SOL     OW41179   2.024   7.411   2.746  0.0414 -0.5139  0.4082
13534SOL    HW141180   2.011   7.447   2.834 -0.4657 -0.0467  0.1504
13534SOL    HW241181   1.988   7.478   2.687  2.0440  0.0379 -0.2775
13535SOL     OW41182   5.347   2.728   0.771  0.2136  0.3866 -0.0630
13535SOL    HW141183   5.400   2.782   0.712  0.5863 -2.2776 -2.3498
13535SOL    HW241184   5.406   2.706   0.843  0.8273  0.9169 -0.3917
13536SOL     OW41185   7.685   7.655   4.011  0.2546  0.1827 -0.5378
13536SOL    HW141186   7.624   7.673   3.940 -0.6449  1.3986  0.5060
13536SOL    HW241187   7.755   7.720   4.000 -0.9115  1.7469  0.8218
13537SOL     OW41188   6.253   7.834   8.888  0.0451 -0.1356  0.3268
13537SOL    HW141189   6.270   7.772   8.817 -2.0304 -0.2500 -0.1347
13537SOL    HW241190   6.229   7.915   8.844  0.6521  0.3873  0.9276
13538SOL     OW41191   0.516   6.299   3.921 -0.1245  0.0154  0.4983
13538SOL    HW141192   0.498   6.238   3.992 -1.5039 -1.0628 -0.7244
13538SOL    HW241193   0.519   6.385   3.964  0.1877 -0.7206  2.0057
13539SOL     OW41194   9.203   8.880   6.573 -0.3055  0.4915 -0.1908
13539SOL    HW141195   9.278   8.896   6.515  0.7470  2.3756  1.5454
13539SOL    HW241196   9.232   8.810   6.630 -0.3143  0.4255 -0.2666
13540SOL     OW41197   1.519   2.662   3.901  0.2245  0.5539  0.0597
13540SOL    HW141198   1.607   2.670   3.939 -0.1794  1.4747  0.8500
13540SOL    HW241199   1.463   2.712   3.960 -0.7904  0.2222 -0.5975
13541SOL     OW41200   4.494   6.697   6.550  0.1101  0.8258 -0.0990
13541SOL    HW141201   4.458   6.697   6.639  1.2169  0.6652  0.3711
13541SOL    HW241202   4.545   6.616   6.545  2.0644  1.9917 -0.0198
13542SOL     OW41203   7.235   4.997   9.611  0.0930  0.4688 -0.4049
13542SOL    HW141204   7.207   5.015   9.521 -1.5106  0.6525  0.0943
13542SOL    HW241205   7.224   5.080   9.656 -1.9593 -0.2681  0.6029
13543SOL     OW41206   4.140   0.376   6.539 -0.4292 -0.2633  0.2593
13543SOL    HW141207   4.124   0.293   6.585 -0.9325  0.5881  1.6667
13543SOL    HW241208   4.075   0.377   6.468  1.0452 -2.0858 -1.2508
13544SOL     OW41209   5.088   5.148   1.940 -0.3668  0.0612 -0.5983
13544SOL    HW141210   5.125   5.164   2.027 -2.0125 -0.4710  0.2653
13544SOL    HW241211   5.146   5.194   1.880  0.5552  0.8535  0.8231
13545SOL     OW41212   2.309   5.665   3.880 -0.3345  0.5365 -0.2979
13545SOL    HW141213   2.235   5.706   3.926 -0.8777 -1.5373  0.7820
13545SOL    HW241214   2.379   5.664   3.945 -0.4107 -0.4429 -0.2286
13546SOL     OW41215   3.817   5.503   2.592  0.1086 -0.3850  0.4096
13546SOL    HW141216   3.881   5.573   2.603  1.3967 -1.5714  0.6667
13546SOL    HW241217   3.768   5.503   2.675  0.7614 -0.4159  0.8048
13547SOL     OW41218   1.646   2.303   5.821 -0.2332  0.6655 -0.1426
13547SOL    HW141219   1.619   2.394   5.837 -1.2895  0.0629  1.7626
13547SOL    HW241220   1.567   2.259   5.792 -0.0501  0.0573  0.2699
13548SOL     OW41221   1.553   2.579   3.635  0.9020 -0.1235 -0.1179
13548SOL    HW141222   1.510   2.612   3.714  1.3008 -1.5147  0.7090
13548SOL    HW241223   1.639   2.621   3.635  0.4340  0.8912 -0.5518
13549SOL     OW41224   3.399   0.537   1.367 -0.3606  0.1866  0.1528
13549SOL    HW141225   3.434   0.586   1.441  0.8283 -0.7950  0.2609
13549SOL    HW241226   3.305   0.556   1.368 -0.0569  1.7524  0.7048
13550SOL     OW41227   5.776   8.420   6.907 -0.1163  0.1643  0.5783
13550SOL    HW141228   5.710   8.377   6.961 -0.2968  0.3695  0.5243
13550SOL    HW241229   5.860   8.392   6.944 -0.2050  1.9850  2.3680
13551SOL     OW41230   3.003   4.252   1.045 -0.2497 -0.7259 -0.1195
13551SOL    HW141231   3.052   4.206   0.977  0.3974 -1.6944  0.9685
13551SOL    HW241232   3.061   4.252   1.121 -1.3006 -0.4663  0.7101
13552SOL     OW41233   8.417   7.180   1.100 -1.0328 -0.4548  0.6627
13552SOL    HW141234   8.502   7.224   1.091 -0.4647 -1.6671 -0.3971
13552SOL    HW241235   8.437   7.087   1.084 -2.5479 -0.7730  0.4737
13553SOL     OW41236   4.946   3.847   4.209  0.7013  0.7363 -0.3755
13553SOL    HW141237   4.884   3.842   4.281 -0.1013  1.8366 -0.9693
13553SOL    HW241238   4.997   3.926   4.226 -0.2853  1.6661 -1.6148
13554SOL     OW41239   7.560   7.472   0.431 -0.9457  0.6286  0.5234
13554SOL    HW141240   7.624   7.437   0.493 -1.2494 -0.2296  0.3672
13554SOL    HW241241   7.595   7.557   0.405  0.1598  0.1490  0.4075
13555SOL     OW41242   8.127   3.012   7.977  0.2233 -0.5842  0.0150
13555SOL    HW141243   8.073   2.938   8.004  2.6146 -1.8599  1.6774
13555SOL    HW241244   8.161   3.048   8.059  2.3208 -0.2227 -0.9360
13556SOL     OW41245   1.587   7.783   2.093 -0.1734 -0.0618 -0.0489
13556SOL    HW141246   1.561   7.781   2.185 -2.9635 -1.3458 -0.7411
13556SOL    HW241247   1.516   7.831   2.050  0.6353 -0.2358 -1.6456
13557SOL     OW41248   1.696   4.484   6.639  0.7959  0.1705 -0.9138
13557SOL    HW141249   1.741   4.405   6.669 -0.5767  0.3980  2.1272
13557SOL    HW241250   1.747   4.556   6.675  0.3938  0.5804 -1.1555
13558SOL     OW41251   5.415   4.365   0.182 -0.5373 -0.0229 -0.1417
13558SOL    HW141252   5.509   4.378   0.187 -0.7158  0.7693  2.2706
13558SOL    HW241253   5.380   4.449   0.154 -0.7045  0.6975  2.0697
13559SOL     OW41254   5.620   1.803   3.378  0.0523 -0.3964  0.2273
13559SOL    HW141255   5.615   1.899   3.386  1.4013 -0.1612 -1.2029
13559SOL    HW241256   5.698   1.779   3.427  1.2836 -0.3886 -1.6293
13560SOL     OW41257   7.683   5.021   9.848 -0.1441  0.4045  0.4445
13560SOL    HW141258   7.678   4.975   9.765 -1.8925 -1.7287  1.6015
13560SOL    HW241259   7.651   4.957   9.912 -2.2117  3.0608  2.2646
13561SOL     OW41260   0.435   9.693   1.346  0.8607 -0.0286  0.2840
13561SOL    HW141261   0.515   9.743   1.358  0.0875  1.4703 -0.4574
13561SOL    HW241262   0.443   9.655   1.259  0.2228  1.2785 -0.3854
13562SOL     OW41263   7.758   1.986   0.655 -0.6877 -0.9420  0.2175
13562SOL    HW141264   7.781   2.040   0.731 -2.1820  0.5657 -0.3330
13562SOL    HW241265   7.682   1.936   0.682 -2.3580  0.9335 -0.7598
13563SOL     OW41266   7.579   3.132   8.804 -0.1073  0.0762  0.6400
13563SOL    HW141267   7.525   3.129   8.884  0.5363  0.5314  1.0946
13563SOL    HW241268   7.575   3.042   8.770 -1.1186  0.0905  0.6820
13564SOL     OW41269   7.628   2.351   9.032  0.1873  0.1332 -0.3668
13564SOL    HW141270   7.712   2.395   9.021  0.0762 -0.0774 -2.2679
13564SOL    HW241271   7.594   2.385   9.115  2.6415 -0.6682  1.0515
13565SOL     OW41272   1.431   2.389   4.138  0.1344 -0.2252  0.0100
13565SOL    HW141273   1.360   2.328   4.119  1.4092 -1.5192 -0.8037
13565SOL    HW241274   1.399   2.473   4.105 -0.4701 -1.0584 -1.6911
13566SOL     OW41275   6.638   3.493   5.823  0.2012  0.1938  0.0052
13566SOL    HW141276   6.620   3.577   5.780 -0.4256  0.3519  0.5522
13566SOL    HW241277   6.733   3.492   5.833  0.0888  2.0743  2.3376
13567SOL     OW41278   8.833   5.812   1.789 -0.0446 -0.3228 -0.3812
13567SOL    HW141279   8.761   5.816   1.852 -0.6616  0.4469 -1.1037
13567SOL    HW241280   8.829   5.896   1.743 -0.0042 -1.0816 -1.8400
13568SOL     OW41281   4.596   1.901   2.309  0.3252 -0.0890 -0.3448
13568SOL    HW141282   4.571   1.984   2.350  1.6791 -0.1428  0.6329
13568SOL    HW241283   4.649   1.927   2.234 -0.5346 -0.0497 -0.9572
13569SOL     OW41284   5.347   9.297   9.313 -0.0987 -0.3226 -0.1717
13569SOL    HW141285   5.411   9.369   9.314  0.3734 -0.7371  0.8033
13569SOL    HW241286   5.309   9.300   9.225  0.8709  0.2848 -0.5892
13570SOL     OW41287   5.007   8.544   5.554 -0.0957  0.1875  0.0110
13570SOL    HW141288   4.966   8.621   5.592  0.1979 -0.4737  1.7722
13570SOL    HW241289   5.003   8.478   5.623 -0.0995 -1.3082 -1.3397
13571SOL     OW41290   9.560   8.329   5.181 -0.1621 -0.8922  0.1039
13571SOL    HW141291   9.644   8.320   5.135  1.2662  4.1000  1.1125
13571SOL    HW241292   9.582   8.321   5.273 -0.6897  0.4983  0.3808
13572SOL     OW41293   3.567   6.148   9.605 -0.3095 -0.1415  0.2173
13572SOL    HW141294   3.635   6.183   9.548  0.0413 -0.1106  0.6488
13572SOL    HW241295   3.526   6.078   9.554  0.7470 -0.8728  0.3368
13573SOL     OW41296   7.776   1.707   2.666  0.5705  0.1679  0.1971
13573SOL    HW141297   7.714   1.763   2.618  0.5238  0.2781  0.3842
13573SOL    HW241298   7.831   1.668   2.598 -0.7626 -1.2424 -0.1288
13574SOL     OW41299   6.065   7.152   5.369  0.0173  0.1711  0.2897
13574SOL    HW141300   6.092   7.080   5.312  0.7470  0.6391  0.0250
13574SOL    HW241301   5.971   7.139   5.381 -0.4337  0.8068 -2.0951
13575SOL     OW41302   0.505   6.451   6.644  0.1972  0.1349  0.0781
13575SOL    HW141303   0.425   6.424   6.601  0.9166 -1.0387 -0.5646
13575SOL    HW241304   0.510   6.545   6.629 -0.3982  0.0068 -0.9794
13576SOL     OW41305   9.424   3.416   2.024  0.0104 -0.3418 -0.3985
13576SOL    HW141306   9.359   3.486   2.018 -0.0732 -0.3853  0.0205
13576SOL    HW241307   9.413   3.367   1.942  0.5305  0.5287 -1.0113
13577SOL     OW41308   0.554   3.154   5.886  0.1411 -0.1687 -0.5119
13577SOL    HW141309   0.639   3.124   5.854  1.1168 -0.3560  2.0266
13577SOL    HW241310   0.571   3.179   5.977 -1.7662  3.1565 -0.9283
13578SOL     OW41311   8.510   2.551   1.368  0.4868  0.3030 -0.7744
13578SOL    HW141312   8.478   2.624   1.422 -3.8856 -1.5329 -0.4909
13578SOL    HW241313   8.529   2.591   1.283 -0.1937  2.0352 -0.1672
13579SOL     OW41314   5.550   3.141   1.995 -0.2551 -0.5405 -0.0624
13579SOL    HW141315   5.536   3.182   1.910  1.8334  2.5993  0.9357
13579SOL    HW241316   5.475   3.168   2.047 -0.5651 -0.8396 -0.3489
13580SOL     OW41317   4.902   6.008   2.760 -0.7642  0.0475 -0.6699
13580SOL    HW141318   4.908   6.038   2.670  0.9149 -2.4553 -1.5020
13580SOL    HW241319   4.989   6.022   2.797 -0.9741 -0.4382  0.0448
13581SOL     OW41320   1.853   5.189   7.080 -1.0881 -0.4054 -0.2074
13581SOL    HW141321   1.928   5.188   7.140 -0.9898 -2.4025 -0.3224
13581SOL    HW241322   1.868   5.116   7.021 -3.7812 -1.7461  0.5920
13582SOL     OW41323   2.538   8.101   0.056 -0.1691  0.5548  0.1278
13582SOL    HW141324   2.597   8.175   0.069  0.9759 -0.5260  1.4345
13582SOL    HW241325   2.541   8.084  -0.038  0.6415  1.2974  0.0075
13583SOL     OW41326   4.525   0.291   2.724  0.1578  0.7302  0.1370
13583SOL    HW141327   4.618   0.287   2.742 -0.0488  1.0662  1.3735
13583SOL    HW241328   4.506   0.210   2.676  1.2188  1.0679 -0.9122
13584SOL     OW41329   6.110   6.190   1.917  0.0659 -1.4440 -0.3464
13584SOL    HW141330   6.071   6.172   2.002 -0.6832  2.6601  0.3662
13584SOL    HW241331   6.204   6.175   1.930 -0.1421 -1.7331  0.9191
13585SOL     OW41332   1.474   2.361   6.545  0.0831  0.2120  0.3636
13585SOL    HW141333   1.429   2.444   6.526 -1.2669 -0.6825 -0.5516
13585SOL    HW241334   1.404   2.301   6.572  0.8706 -0.9205 -0.0330
13586SOL     OW41335   9.212   4.273   3.925  0.7881 -0.0175 -0.2379
13586SOL    HW141336   9.193   4.184   3.896  0.4884  0.7023 -2.4753
13586SOL    HW241337   9.307   4.275   3.937  0.5559 -1.3446  2.6843
13587SOL     OW41338   3.922   8.841   2.361  0.2005 -0.2563  0.4025
13587SOL    HW141339   3.941   8.847   2.455 -0.4556 -0.9313  0.5866
13587SOL    HW241340   3.996   8.791   2.325 -0.8991 -2.4749  1.0406
13588SOL     OW41341   1.243   6.173   2.184  0.1700  0.1606 -0.3225
13588SOL    HW141342   1.279   6.260   2.165  1.4925 -0.6025 -1.4625
13588SOL    HW241343   1.319   6.120   2.207 -0.3794 -1.1342 -1.3685
13589SOL     OW41344   2.911   3.123   3.109  0.0299  0.1544  0.2430
13589SOL    HW141345   2.854   3.056   3.071 -1.3037  1.2145  0.3289
13589SOL    HW241346   2.861   3.204   3.103  1.6271  1.1743  0.1156
13590SOL     OW41347   3.885   4.574   8.790 -0.1222  0.6145 -0.3493
13590SOL    HW141348   3.848   4.619   8.867 -0.8167  0.1758 -0.4243
13590SOL    HW241349   3.849   4.622   8.715 -0.0860  0.5357 -0.4169
13591SOL     OW41350   5.694   3.800   8.978 -0.0307  0.2934  0.1185
13591SOL    HW141351   5.755   3.860   9.022 -0.6629  1.8283 -1.0317
13591SOL    HW241352   5.619   3.854   8.955 -1.5353 -1.3878  0.8003
13592SOL     OW41353   9.557   3.119   3.994  0.0480 -0.2868 -0.4023
13592SOL    HW141354   9.508   3.045   4.029 -2.2137  1.4875  0.4980
13592SOL    HW241355   9.606   3.084   3.920 -1.1904 -2.5828 -0.1969
13593SOL     OW41356   8.654   1.865   5.495 -0.4319  0.0190 -0.0533
13593SOL    HW141357   8.590   1.870   5.424 -1.1383 -2.9574  0.2634
13593SOL    HW241358   8.733   1.829   5.454 -0.3826 -0.3790  0.3742
13594SOL     OW41359   3.901   3.084   1.782 -0.3286  0.4444  0.1355
13594SOL    HW141360   3.854   3.016   1.735 -1.6489 -0.3310  2.4129
13594SOL    HW241361   3.993   3.063   1.770 -0.6896 -1.0407 -0.2139
13595SOL     OW41362   0.603   0.517   5.723  1.0058  0.4210  0.1016
13595SOL    HW141363   0.615   0.610   5.704  1.6240  0.6254  1.4119
13595SOL    HW241364   0.546   0.516   5.800 -2.0200 -0.3894 -1.9650
13596SOL     OW41365   2.762   4.968   0.955 -0.6132 -0.5719 -0.3516
13596SOL    HW141366   2.822   4.971   1.030 -1.5102  1.3162  0.3758
13596SOL    HW241367   2.675   4.981   0.994 -1.2380 -0.8192 -1.6157
13597SOL     OW41368   8.353   2.074   7.190 -0.6163  0.1423  0.2780
13597SOL    HW141369   8.394   2.052   7.106 -1.5495 -0.5341 -0.0151
13597SOL    HW241370   8.387   2.008   7.251 -0.8652 -0.0975  0.1568
13598SOL     OW41371   6.848   5.342   1.553 -0.3187  0.1365 -0.1271
13598SOL    HW141372   6.878   5.429   1.527 -0.3346  0.0355 -0.4932
13598SOL    HW241373   6.925   5.286   1.541 -0.4316  0.0195 -0.3240
13599SOL     OW41374   8.832   4.544   0.523 -0.1435  0.0457 -0.0792
13599SOL    HW141375   8.772   4.612   0.493 -0.1742  0.1271  0.1596
13599SOL    HW241376   8.864   4.577   0.608 -0.8156 -0.6353  0.4430
13600SOL     OW41377   4.538   7.744   7.905 -0.4159  0.6415  0.5526
13600SOL    HW141378   4.623   7.729   7.946 -1.0721  0.1329  1.8075
13600SOL    HW241379   4.551   7.819   7.847  0.5656  1.4061  1.7252
13601SOL     OW41380   6.817   2.533   4.218 -0.6686  0.2949 -0.1479
13601SOL    HW141381   6.905   2.569   4.211 -1.2897  2.0391  0.4350
13601SOL    HW241382   6.767   2.578   4.149 -1.0931 -0.7542 -0.5492
13602SOL     OW41383   2.200   3.013   2.138 -0.3633 -0.4745  0.0420
13602SOL    HW141384   2.261   2.963   2.084  1.6799  1.8149  0.0650
13602SOL    HW241385   2.209   2.976   2.226  0.3088 -0.7476 -0.1398
13603SOL     OW41386   3.012   0.485   7.767 -0.4459  0.9294 -0.0176
13603SOL    HW141387   3.078   0.437   7.817  0.2767  2.6815  0.8053
13603SOL    HW241388   3.054   0.506   7.684 -1.1173 -0.6588 -0.8077
13604SOL     OW41389   2.082   5.733   1.980  0.3703  0.5486  0.1461
13604SOL    HW141390   2.031   5.807   2.014  1.2132  1.1978  0.0351
13604SOL    HW241391   2.131   5.701   2.055 -0.2115 -0.1021  0.2603
13605SOL     OW41392   2.903   7.115   2.946  0.8712  0.4264 -0.1076
13605SOL    HW141393   2.920   7.107   3.040  1.1409  0.8208 -0.1192
13605SOL    HW241394   2.989   7.101   2.905  0.4853 -1.3587 -0.4043
13606SOL     OW41395   4.027   9.139   1.206 -0.3060 -0.2985 -0.5268
13606SOL    HW141396   4.112   9.177   1.184 -0.2185  0.7078  1.3233
13606SOL    HW241397   3.969   9.165   1.135  0.5121  0.6037 -0.8824
13607SOL     OW41398   1.401   5.864   7.283  0.8618  0.6444 -0.3546
13607SOL    HW141399   1.478   5.887   7.231 -0.1821  2.2498 -1.3066
13607SOL    HW241400   1.327   5.886   7.226 -0.3253 -1.3183  0.3348
13608SOL     OW41401   0.375   4.756   9.740 -0.5709  0.2424 -0.2144
13608SOL    HW141402   0.468   4.768   9.720 -0.2310 -0.2911  0.9537
13608SOL    HW241403   0.371   4.672   9.786 -1.5229  0.6015  0.3925
13609SOL     OW41404   4.766   9.462   7.477  0.7577  0.9119  0.3334
13609SOL    HW141405   4.828   9.513   7.425 -1.7411  2.5236 -1.2844
13609SOL    HW241406   4.690   9.451   7.420 -0.6727 -0.5415  2.3553
13610SOL     OW41407   3.200   5.171   9.099 -0.2633  0.0306  0.4195
13610SOL    HW141408   3.273   5.168   9.037 -1.7373  1.3043 -1.4984
13610SOL    HW241409   3.165   5.082   9.098  0.3586 -0.2214  0.2364
13611SOL     OW41410   6.256   7.657   8.277 -0.0241  0.4075 -0.5565
13611SOL    HW141411   6.250   7.721   8.207  2.9907  0.0317 -1.2904
13611SOL    HW241412   6.350   7.643   8.289 -0.5165 -1.8927  1.4008
13612SOL     OW41413   2.337   8.151   7.544  0.2318  0.3262 -0.4035
13612SOL    HW141414   2.397   8.082   7.571  0.5383  0.8973  0.4176
13612SOL    HW241415   2.323   8.203   7.623 -0.4197  0.8898 -0.8745
13613SOL     OW41416   3.374   0.144   5.301  0.3971 -0.1677 -0.1167
13613SOL    HW141417   3.389   0.049   5.309  1.0606 -0.1150 -0.6391
13613SOL    HW241418   3.374   0.175   5.391  0.9452 -0.5595  0.0276
13614SOL     OW41419   1.329   9.882   4.283  0.3598  0.1608  0.1104
13614SOL    HW141420   1.324   9.899   4.189 -1.1735 -0.1073  0.1149
13614SOL    HW241421   1.412   9.835   4.295 -0.1488 -1.2259 -1.3673
13615SOL     OW41422   8.545   8.226   4.699 -0.2698  0.2850 -0.3372
13615SOL    HW141423   8.459   8.252   4.730 -0.3121  0.9441 -0.9811
13615SOL    HW241424   8.553   8.134   4.725 -0.7970  0.4627  0.5059
13616SOL     OW41425   7.214   5.821   3.205  0.1752  0.3511 -0.0573
13616SOL    HW141426   7.200   5.866   3.122 -0.9698 -1.0136 -0.6570
13616SOL    HW241427   7.294   5.858   3.240  0.3559  1.3804 -1.4867
13617SOL     OW41428   7.351   3.732   1.585  0.0481  0.0191 -0.1993
13617SOL    HW141429   7.301   3.735   1.504 -0.6038  0.6478  0.2147
13617SOL    HW241430   7.389   3.644   1.587 -0.3358 -0.1687 -0.9356
13618SOL     OW41431   4.354   8.262   7.708 -0.1833  0.2814 -0.2164
13618SOL    HW141432   4.442   8.229   7.691  0.0201  1.1593 -0.9533
13618SOL    HW241433   4.315   8.273   7.621 -0.3956  1.5306  0.0204
13619SOL     OW41434   6.392   7.716   2.997 -0.9024  0.4347 -0.2613
13619SOL    HW141435   6.351   7.630   3.008 -0.5289  0.2720 -0.1088
13619SOL    HW241436   6.394   7.753   3.085 -0.0429  0.1240 -0.1451
13620SOL     OW41437   8.181   1.503   5.302  0.1954 -0.5605 -0.0727
13620SOL    HW141438   8.120   1.507   5.376  0.6264 -0.7659  0.2980
13620SOL    HW241439   8.236   1.581   5.312  0.3324 -0.6528 -0.1132
13621SOL     OW41440   3.605   6.705   6.717  0.1575 -0.8703 -0.0899
13621SOL    HW141441   3.676   6.691   6.779  0.9207 -0.0045 -0.7335
13621SOL    HW241442   3.539   6.753   6.767 -0.1413 -1.9907  0.6104
13622SOL     OW41443   1.960   4.130   1.346  0.0923 -0.6744  0.0664
13622SOL    HW141444   2.049   4.126   1.313  0.2970  0.4331  0.4509
13622SOL    HW241445   1.909   4.076   1.285  1.0234 -1.3726 -0.1138
13623SOL     OW41446   4.429   3.303   7.732 -0.6290 -0.1355  0.2851
13623SOL    HW141447   4.468   3.379   7.775 -0.5663 -0.6092  1.0712
13623SOL    HW241448   4.347   3.287   7.779 -1.5250  0.4994 -0.9885
13624SOL     OW41449   9.700   5.144   0.081 -0.0768 -0.2243  0.2301
13624SOL    HW141450   9.675   5.180  -0.004 -1.1449 -1.0111  0.1895
13624SOL    HW241451   9.631   5.080   0.101 -2.0679  2.5822  3.4693
13625SOL     OW41452   0.227   2.494   2.910 -0.2775  0.3306  0.2193
13625SOL    HW141453   0.165   2.524   2.843  0.2627 -1.6824 -1.2656
13625SOL    HW241454   0.302   2.462   2.861  0.3611 -0.7718  1.8298
13626SOL     OW41455   2.292   2.215   0.393 -0.3881 -0.0974  0.2241
13626SOL    HW141456   2.281   2.135   0.341  2.1094 -0.6351  0.3513
13626SOL    HW241457   2.259   2.285   0.337 -0.7278 -1.0146 -0.7630
13627SOL     OW41458   6.677   9.072   2.317 -0.0176 -0.0227  0.0709
13627SOL    HW141459   6.669   9.007   2.247 -1.1282  0.7621 -0.5596
13627SOL    HW241460   6.684   9.020   2.397  1.3396 -0.9338 -0.6028
13628SOL     OW41461   1.158   2.371   5.996  0.3536  0.0742  0.8847
13628SOL    HW141462   1.075   2.411   6.024 -0.0634 -0.5072  0.4968
13628SOL    HW241463   1.177   2.410   5.911 -0.0623 -0.5409  0.4978
13629SOL     OW41464   5.906   7.677   8.565  0.3695  0.4181  0.1487
13629SOL    HW141465   5.961   7.753   8.547 -0.5235  0.6126 -2.0245
13629SOL    HW241466   5.937   7.610   8.504  1.1822 -1.0393  2.0697
13630SOL     OW41467   1.367   9.188   7.824 -0.0563 -0.0423  0.5671
13630SOL    HW141468   1.419   9.159   7.898 -0.9341 -0.9300  0.8616
13630SOL    HW241469   1.421   9.255   7.781  1.0992 -0.5892  1.1269
13631SOL     OW41470   2.426   5.704   1.704  0.3588 -0.3349  0.3958
13631SOL    HW141471   2.360   5.758   1.661  0.5413 -1.0548 -0.8213
13631SOL    HW241472   2.485   5.768   1.745 -0.7304  0.3253  0.9835
13632SOL     OW41473   4.468   5.616   0.015 -0.1626  0.2061 -0.0150
13632SOL    HW141474   4.459   5.612   0.110  1.2907  0.4309  0.1589
13632SOL    HW241475   4.469   5.710  -0.005 -0.5036  0.1581 -0.2611
13633SOL     OW41476   5.272   8.388   1.750  0.0492  0.0680 -0.1876
13633SOL    HW141477   5.261   8.474   1.709 -1.2096  1.3024  2.4936
13633SOL    HW241478   5.183   8.351   1.753  0.0521  0.1113  1.4829
13634SOL     OW41479   1.463   2.791   2.075  0.0259  0.3108 -0.1024
13634SOL    HW141480   1.513   2.717   2.042  0.9157  0.6705  0.4029
13634SOL    HW241481   1.416   2.756   2.151 -0.4812 -0.0220 -0.5632
13635SOL     OW41482   8.057   0.234   2.948 -0.0381  0.1211 -1.1039
13635SOL    HW141483   8.060   0.309   2.889 -0.0159  0.4360 -0.7016
13635SOL    HW241484   8.039   0.271   3.034 -0.2815 -0.3559 -0.9431
13636SOL     OW41485   2.279   9.375   5.907 -0.3819 -0.0681  0.4485
13636SOL    HW141486   2.230   9.338   5.833  1.1824 -0.6881 -0.3264
13636SOL    HW241487   2.344   9.432   5.866 -0.0252  0.2282  1.4086
13637SOL     OW41488   4.767   1.802   1.013  0.2069  0.3906  0.1729
13637SOL    HW141489   4.799   1.776   1.099 -0.1416  0.0037  0.1860
13637SOL    HW241490   4.801   1.736   0.953  1.0413  1.0506 -0.0945
13638SOL     OW41491   1.235   8.669   7.244 -0.2613  0.3328  0.1637
13638SOL    HW141492   1.236   8.763   7.228 -1.5594  0.4452  0.6181
13638SOL    HW241493   1.297   8.633   7.181 -0.7969  1.3608 -0.9918
13639SOL     OW41494   5.681   8.700   0.990  0.7654  0.0085 -0.2251
13639SOL    HW141495   5.627   8.648   0.931 -0.0042 -0.0212  0.4926
13639SOL    HW241496   5.743   8.746   0.932 -0.2993  0.3726 -1.1047
13640SOL     OW41497   7.284   9.206   4.174  0.4316  0.6101  0.2823
13640SOL    HW141498   7.354   9.239   4.230  0.4250  1.7771 -0.3695
13640SOL    HW241499   7.220   9.277   4.170 -0.4596 -0.1572  0.2731
13641SOL     OW41500   4.188   3.164   3.772  0.0417  0.4305 -0.3167
13641SOL    HW141501   4.227   3.215   3.701  0.1691 -0.0080 -0.5710
13641SOL    HW241502   4.141   3.228   3.825  0.6121  0.8823 -0.3421
13642SOL     OW41503   9.073   9.370   6.024  0.5592  0.0485 -0.0043
13642SOL    HW141504   9.126   9.299   6.061 -0.1729  0.2345  1.4671
13642SOL    HW241505   9.131   9.446   6.026  1.1786 -0.3718 -1.1153
13643SOL     OW41506   3.400   7.125   6.929  0.1214 -0.1313 -0.7933
13643SOL    HW141507   3.407   7.116   7.024 -1.5243 -0.7768 -0.7038
13643SOL    HW241508   3.491   7.129   6.899  0.6774 -0.3842  0.7596
13644SOL     OW41509   2.368   3.844   5.655 -0.1464 -0.3508 -0.2595
13644SOL    HW141510   2.278   3.875   5.660 -0.3824 -1.2185  1.9019
13644SOL    HW241511   2.405   3.864   5.741  0.9161 -2.3191 -0.1914
13645SOL     OW41512   1.254   8.049   3.270  0.3612  0.5475 -0.6746
13645SOL    HW141513   1.235   7.994   3.194 -1.0478  0.3864 -0.2353
13645SOL    HW241514   1.332   8.098   3.245 -0.6801  1.3067 -2.6821
13646SOL     OW41515   3.043   8.496   4.645 -0.5175  0.1847 -0.7106
13646SOL    HW141516   3.016   8.429   4.582  1.8300 -0.1137 -1.5136
13646SOL    HW241517   3.049   8.450   4.728 -0.4264 -0.2408 -0.9469
13647SOL     OW41518   0.001   5.371   9.383 -0.1063  0.4088  0.3259
13647SOL    HW141519   0.096   5.382   9.386 -0.0435  0.0092 -0.1070
13647SOL    HW241520  -0.016   5.331   9.298 -0.5551 -0.4973  0.8273
13648SOL     OW41521   0.299   0.380   4.043 -0.8359  0.2037 -0.0425
13648SOL    HW141522   0.276   0.366   3.951 -0.2631  0.1576 -0.1787
13648SOL    HW241523   0.366   0.315   4.061 -0.9209  0.2364  0.4039
13649SOL     OW41524   4.085   2.313   5.305 -0.2000 -0.2795  0.1636
13649SOL    HW141525   4.001   2.304   5.350 -0.5686 -0.7777 -0.6122
13649SOL    HW241526   4.123   2.393   5.341 -1.1638  0.1441  0.2619
13650SOL     OW41527   3.137   6.429   2.487 -0.3510  0.0040  0.3391
13650SOL    HW141528   3.165   6.514   2.455 -0.5261 -0.6374 -1.6567
13650SOL    HW241529   3.145   6.371   2.412  0.6326 -1.9684  1.8700
13651SOL     OW41530   1.816   6.903   4.341 -0.1011  0.3276  0.3454
13651SOL    HW141531   1.759   6.915   4.417  1.2261  0.6412  1.3284
13651SOL    HW241532   1.773   6.951   4.271 -1.2180  0.2536  0.9568
13652SOL     OW41533   5.676   8.687   8.041 -0.3745 -0.0706 -0.1294
13652SOL    HW141534   5.668   8.610   8.098  0.9952 -0.4056 -0.3414
13652SOL    HW241535   5.588   8.702   8.008 -0.6484 -1.6692 -0.2193
13653SOL     OW41536   1.469   1.402   4.748  0.1918 -0.5418 -0.0553
13653SOL    HW141537   1.394   1.359   4.708 -0.1424 -1.4456  1.4735
13653SOL    HW241538   1.498   1.466   4.682  0.0366 -2.3139 -1.9513
13654SOL     OW41539   0.565   9.607   3.747 -0.0136 -0.2489 -0.0575
13654SOL    HW141540   0.589   9.515   3.737  0.8569  0.0360 -0.6427
13654SOL    HW241541   0.648   9.653   3.760 -0.4260  0.4792  0.0786
13655SOL     OW41542   5.020   3.989   1.907 -0.2808 -0.0904  0.1820
13655SOL    HW141543   5.014   3.894   1.903 -0.1005 -0.0659 -1.2644
13655SOL    HW241544   4.929   4.019   1.914 -0.4381 -0.3530 -0.5834
13656SOL     OW41545   1.780   5.407   4.483  0.2984 -0.0142  0.5775
13656SOL    HW141546   1.780   5.456   4.400  0.7392 -0.1226  0.5078
13656SOL    HW241547   1.790   5.474   4.550 -0.3597  0.1001  0.5615
13657SOL     OW41548   5.410   6.818   0.709  0.5173  0.0786  0.0122
13657SOL    HW141549   5.384   6.777   0.627  1.3790  1.8019 -1.1889
13657SOL    HW241550   5.496   6.781   0.729  0.5865  0.1130 -0.2189
13658SOL     OW41551   2.310   6.356   7.874  0.3651 -0.1896 -0.0752
13658SOL    HW141552   2.394   6.312   7.889 -0.4971 -1.6262  0.7057
13658SOL    HW241553   2.255   6.288   7.834 -1.5334 -0.4158  2.6833
13659SOL     OW41554   8.070   0.076   4.071 -0.1905  0.2886  0.2987
13659SOL    HW141555   8.010   0.024   4.017 -2.9446  1.8346  1.6826
13659SOL    HW241556   8.086   0.022   4.148  0.7900 -0.3847 -0.3457
13660SOL     OW41557   9.092   1.460   0.663 -0.2922  0.3042 -0.5770
13660SOL    HW141558   9.078   1.504   0.579 -4.0696 -0.1966 -0.3796
13660SOL    HW241559   9.179   1.490   0.691  0.7019  1.2886 -4.1114
13661SOL     OW41560   0.253   2.991   4.132 -0.4902 -0.1061 -0.4831
13661SOL    HW141561   0.216   3.072   4.169  0.1350 -0.2163  0.4047
13661SOL    HW241562   0.347   2.998   4.147 -0.3361 -0.6316 -1.1463
13662SOL     OW41563   0.163   9.305   9.503 -0.0444  0.5444  0.2527
13662SOL    HW141564   0.193   9.324   9.414  0.8961  0.6667  0.5907
13662SOL    HW241565   0.183   9.385   9.552 -1.1690  0.7322  0.4330
13663SOL     OW41566   0.887   6.698   1.353  0.6198  0.1349  0.5661
13663SOL    HW141567   0.905   6.676   1.444  1.4313 -2.5527 -0.1456
13663SOL    HW241568   0.961   6.661   1.304 -1.9404 -2.6364 -1.5720
13664SOL     OW41569   7.539   1.602   4.408  0.6754 -0.3170  0.3069
13664SOL    HW141570   7.631   1.611   4.384  0.0037  0.1297 -2.4518
13664SOL    HW241571   7.523   1.675   4.469  1.8835  0.2488 -0.0267
13665SOL     OW41572   0.547   9.000   2.263  0.3330  0.4650 -0.4037
13665SOL    HW141573   0.625   9.055   2.259  0.9045 -0.2481  0.3904
13665SOL    HW241574   0.566   8.937   2.333 -0.2858 -0.7314 -1.2640
13666SOL     OW41575   3.441   9.624   6.944 -0.0869  0.0036  0.0569
13666SOL    HW141576   3.436   9.720   6.941 -0.4478 -0.0245 -1.4731
13666SOL    HW241577   3.444   9.598   6.852  1.4766 -1.4029  0.4624
13667SOL     OW41578   5.004   9.341   1.337 -0.1462 -0.0924  0.0801
13667SOL    HW141579   5.050   9.308   1.260  0.5671 -1.1577  0.9238
13667SOL    HW241580   5.073   9.368   1.397 -0.6871  0.5363  0.4303
13668SOL     OW41581   2.318   2.012   7.634  0.9175 -0.0351 -0.6277
13668SOL    HW141582   2.271   1.929   7.637  1.8078 -0.6211 -1.8469
13668SOL    HW241583   2.315   2.038   7.542  1.6401  0.6864 -0.4641
13669SOL     OW41584   8.812   6.344   9.777  0.1471 -0.4738  0.3569
13669SOL    HW141585   8.883   6.382   9.725 -0.5622  0.9899  0.4012
13669SOL    HW241586   8.809   6.252   9.750 -1.6533  0.6211 -4.0310
13670SOL     OW41587   1.963   2.296   1.755 -0.1021  0.4780  0.7168
13670SOL    HW141588   1.924   2.324   1.838 -0.7591 -0.7464  0.8481
13670SOL    HW241589   1.983   2.203   1.768 -0.6919  0.1243 -0.6471
13671SOL     OW41590   0.938   2.949   7.723  0.4883 -0.0727  0.1014
13671SOL    HW141591   0.998   3.024   7.720 -1.0001  1.2452  1.5887
13671SOL    HW241592   0.963   2.902   7.802 -0.8570  0.8969  1.1372
13672SOL     OW41593   8.238   8.691   2.650  0.3147 -0.5062  0.4586
13672SOL    HW141594   8.158   8.714   2.602  1.6441 -1.8160 -2.6105
13672SOL    HW241595   8.207   8.632   2.719 -1.5185  0.1187  0.2406
13673SOL     OW41596   4.160   2.949   1.702 -0.5545 -0.3126 -0.4278
13673SOL    HW141597   4.131   2.947   1.610  0.7131  0.1377 -0.8606
13673SOL    HW241598   4.256   2.947   1.696 -0.4265 -3.0881  0.9608
13674SOL     OW41599   5.739   4.031   7.786  0.3471 -0.3217 -0.4815
13674SOL    HW141600   5.801   3.988   7.727  2.9272 -3.0474  3.6819
13674SOL    HW241601   5.792   4.093   7.835 -1.0842 -0.0108  0.7197
13675SOL     OW41602   6.540   5.423   2.562  0.0323 -0.1667  0.4175
13675SOL    HW141603   6.524   5.341   2.514 -2.8862  1.3506 -1.4226
13675SOL    HW241604   6.528   5.399   2.654  0.6003 -2.0431  0.0616
13676SOL     OW41605   4.080   5.033   9.777 -0.1094  0.3342 -0.2684
13676SOL    HW141606   4.104   5.084   9.854 -0.8655 -2.3758  1.9516
13676SOL    HW241607   4.003   4.983   9.805  0.2653 -1.5906 -2.3919
13677SOL     OW41608   0.899   9.896   6.178 -0.7954 -0.1155  0.1588
13677SOL    HW141609   0.908   9.802   6.192  0.1867 -0.2505 -1.2312
13677SOL    HW241610   0.989   9.929   6.172 -1.0259  0.2156 -3.4334
13678SOL     OW41611   1.627   2.570   3.355 -0.5244 -0.7358 -0.0729
13678SOL    HW141612   1.601   2.508   3.424 -0.9985  0.6834  1.0755
13678SOL    HW241613   1.697   2.621   3.395 -2.3937  1.7141  0.3217
13679SOL     OW41614   8.877   6.390   6.355  0.3925  0.0070 -0.5785
13679SOL    HW141615   8.840   6.310   6.392 -1.2658  0.9092 -0.2021
13679SOL    HW241616   8.928   6.360   6.280  1.0442 -1.5263  0.4445
13680SOL     OW41617   3.527   7.044   8.014 -0.1902 -0.1679  0.5602
13680SOL    HW141618   3.598   6.980   8.012 -1.5831 -1.7981  0.1276
13680SOL    HW241619   3.552   7.106   8.083  1.3703 -0.9902  0.7797
13681SOL     OW41620   6.654   3.657   0.454  0.0525 -0.1883 -0.1279
13681SOL    HW141621   6.662   3.724   0.387 -0.6716  0.0932  0.0574
13681SOL    HW241622   6.615   3.582   0.409  0.4892 -0.3458 -0.2445
13682SOL     OW41623   7.203   8.568   9.620  0.3673  0.3029 -0.1553
13682SOL    HW141624   7.242   8.630   9.681 -0.1367  1.7234 -1.2107
13682SOL    HW241625   7.151   8.510   9.675  1.3456  0.4041  0.9295
13683SOL     OW41626   2.280   0.602   0.240 -0.0691 -0.2347  0.2252
13683SOL    HW141627   2.358   0.582   0.189  0.3963  0.2957  0.7237
13683SOL    HW241628   2.294   0.691   0.272 -2.0210  0.9025 -1.8080
13684SOL     OW41629   1.315   1.748   5.234 -0.3122 -0.6636  0.7783
13684SOL    HW141630   1.278   1.689   5.168 -1.3148  0.9801 -0.1960
13684SOL    HW241631   1.253   1.745   5.307 -1.6371  0.9352 -0.2366
13685SOL     OW41632   8.442   9.051   1.905  0.0931 -0.1643 -0.7148
13685SOL    HW141633   8.529   9.038   1.943  1.1524  1.4810 -2.3990
13685SOL    HW241634   8.431   8.980   1.842  0.4950 -0.0188 -0.9489
13686SOL     OW41635   6.760   9.569   7.339  1.1053  0.5140 -0.3207
13686SOL    HW141636   6.707   9.511   7.393  0.5929  0.7776 -0.5335
13686SOL    HW241637   6.752   9.534   7.251  0.8565  0.8576 -0.4384
13687SOL     OW41638   6.090   8.688   0.948  0.3061  0.7627  0.1399
13687SOL    HW141639   6.107   8.627   1.020  0.3088  0.7833  0.1562
13687SOL    HW241640   6.156   8.757   0.959  1.0692  0.1757 -0.5579
13688SOL     OW41641   0.427   9.721   4.936 -1.0108  0.1150  0.6040
13688SOL    HW141642   0.488   9.673   4.992  1.7674  0.3952 -1.9383
13688SOL    HW241643   0.429   9.811   4.971  1.7840  0.6202 -0.5814
13689SOL     OW41644   6.467   3.007   7.460 -0.5051 -0.0793  0.6063
13689SOL    HW141645   6.413   3.041   7.531 -4.0101 -1.3050 -1.2331
13689SOL    HW241646   6.476   2.914   7.479  0.5280  0.0114  0.5953
13690SOL     OW41647   3.614   8.720   2.699  0.7391  0.1652  0.3567
13690SOL    HW141648   3.660   8.715   2.783 -0.0319 -0.6763  0.7391
13690SOL    HW241649   3.614   8.814   2.678  0.2408  0.4890  1.6965
13691SOL     OW41650   5.122   7.634   8.121 -0.1956  0.4828 -0.0880
13691SOL    HW141651   5.190   7.665   8.182 -1.6536  2.4875  0.6109
13691SOL    HW241652   5.078   7.564   8.169 -0.7304  1.4210  0.8527
13692SOL     OW41653   5.886   3.985   8.678  0.2822 -0.1540 -1.0115
13692SOL    HW141654   5.871   4.015   8.588 -1.4232  0.8902 -0.4377
13692SOL    HW241655   5.804   4.005   8.723  1.1382 -0.5745  0.8072
13693SOL     OW41656   1.877   8.432   0.283  0.0493 -0.2227 -0.1303
13693SOL    HW141657   1.881   8.522   0.315  0.9930 -0.3954  0.2772
13693SOL    HW241658   1.883   8.378   0.362 -1.6943 -0.6594 -0.2575
13694SOL     OW41659   1.322   2.171   8.987 -0.4110  0.8091  0.7794
13694SOL    HW141660   1.311   2.169   8.892  0.8616  1.4385  0.5975
13694SOL    HW241661   1.364   2.255   9.005 -1.3201  1.0305  1.9922
13695SOL     OW41662   4.347   0.508   2.864  0.1926  0.3013 -0.0360
13695SOL    HW141663   4.382   0.589   2.826  0.7186  0.1865  0.1861
13695SOL    HW241664   4.414   0.442   2.844  0.7501  0.3449  1.5563
13696SOL     OW41665   1.886   1.611   7.004 -0.2597  0.1918 -0.0227
13696SOL    HW141666   1.962   1.576   7.049 -0.5042  0.7251  0.8246
13696SOL    HW241667   1.868   1.547   6.935 -1.3911 -2.0501  2.1769
13697SOL     OW41668   1.503   9.616   7.608  0.1933 -0.3465  0.0457
13697SOL    HW141669   1.471   9.552   7.544  0.7512  0.4124 -1.0192
13697SOL    HW241670   1.440   9.688   7.603  0.4942 -0.0823 -0.0037
13698SOL     OW41671   8.338   1.933   9.651 -0.4877  0.0320 -0.6005
13698SOL    HW141672   8.380   2.019   9.659 -1.2286  0.6431 -2.5690
13698SOL    HW241673   8.399   1.882   9.597 -0.4301 -0.4244 -0.1104
13699SOL     OW41674   7.758   7.826   2.811  0.5829 -0.0739 -0.1968
13699SOL    HW141675   7.732   7.885   2.741  0.0576  1.1632  0.9970
13699SOL    HW241676   7.838   7.865   2.846  0.9084 -0.7461 -0.1800
13700SOL     OW41677   9.752   5.545   7.305 -0.5409  0.0147  0.2374
13700SOL    HW141678   9.813   5.614   7.281 -1.1277  1.0834  1.6337
13700SOL    HW241679   9.805   5.478   7.348  0.1524 -0.8272 -1.8245
13701SOL     OW41680   8.716   7.516   6.948 -0.6393  0.2365 -0.1082
13701SOL    HW141681   8.795   7.543   6.902  0.9551  0.0843  2.4094
13701SOL    HW241682   8.711   7.421   6.934  1.4530 -0.3118  2.2300
13702SOL     OW41683   5.910   5.496   2.028  0.0830 -0.5719  0.2348
13702SOL    HW141684   5.876   5.500   2.117  0.4047  1.4164  0.3118
13702SOL    HW241685   5.946   5.408   2.019  0.4010 -0.6673  2.1965
13703SOL     OW41686   9.449   6.551   9.539  0.0606 -0.3110 -0.6141
13703SOL    HW141687   9.504   6.503   9.478  0.5877 -0.8997  0.3032
13703SOL    HW241688   9.474   6.518   9.625  0.1412  1.2857  0.0231
13704SOL     OW41689   0.306   7.813   0.732 -0.1980  0.4831  0.4453
13704SOL    HW141690   0.251   7.891   0.742  0.6344  1.1086  0.2590
13704SOL    HW241691   0.263   7.746   0.786 -0.6753  1.2058  0.9851
13705SOL     OW41692   2.151   7.583   9.160  0.1450 -0.0614 -0.4903
13705SOL    HW141693   2.150   7.589   9.256  2.0256  0.1496 -0.4445
13705SOL    HW241694   2.222   7.641   9.133 -0.6386  0.2233 -2.0703
13706SOL     OW41695   8.309   1.665   6.103  0.1373  0.4444  0.4407
13706SOL    HW141696   8.379   1.636   6.045 -1.1422  1.6263 -1.8412
13706SOL    HW241697   8.247   1.592   6.105  0.8815 -0.1916  1.6228
13707SOL     OW41698   5.000   5.988   0.753  0.3449  0.3086 -0.4075
13707SOL    HW141699   4.956   5.933   0.818 -0.9646 -0.6973 -2.0599
13707SOL    HW241700   5.028   5.927   0.685  1.7331  1.3200 -0.8017
13708SOL     OW41701   4.871   3.581   0.514 -0.2687  0.7482  0.0979
13708SOL    HW141702   4.797   3.599   0.456  0.5845  2.0317 -0.6359
13708SOL    HW241703   4.837   3.516   0.576 -1.4674 -0.0257 -1.3014
13709SOL     OW41704   4.812   4.696   9.750 -0.2668 -0.4355  0.5761
13709SOL    HW141705   4.721   4.667   9.753 -0.9086  1.2170 -1.2290
13709SOL    HW241706   4.855   4.635   9.689 -0.6325 -0.0707 -0.0522
13710SOL     OW41707   4.129   7.920   9.857  0.0747  0.1984  0.3112
13710SOL    HW141708   4.123   7.832   9.821  0.2986  0.9057 -1.6076
13710SOL    HW241709   4.122   7.909   9.951  0.1517 -1.8637  0.1105
13711SOL     OW41710   9.670   8.317   1.071 -0.1424  0.1140 -0.2562
13711SOL    HW141711   9.653   8.411   1.063 -2.5617 -0.3526 -1.4468
13711SOL    HW241712   9.585   8.280   1.094  0.6767 -1.8582 -0.2594
13712SOL     OW41713   5.842   7.733   9.312  0.3049  0.0885 -0.0775
13712SOL    HW141714   5.906   7.749   9.243  0.4159  0.8778  0.1985
13712SOL    HW241715   5.791   7.814   9.317 -1.2578 -0.8022 -0.8527
13713SOL     OW41716   4.351   8.438   5.474 -0.4339  1.0169  0.4029
13713SOL    HW141717   4.426   8.431   5.533 -1.4661  0.5674  1.6958
13713SOL    HW241718   4.277   8.456   5.532 -1.2783  1.8151 -0.8822
13714SOL     OW41719   7.344   8.708   9.157  0.1272 -0.1403  0.9044
13714SOL    HW141720   7.279   8.760   9.204 -1.3504 -1.1977  0.1156
13714SOL    HW241721   7.293   8.655   9.095  1.9570  0.9305 -1.6893
13715SOL     OW41722   0.402   0.147   1.574 -0.0693 -0.2875 -0.3946
13715SOL    HW141723   0.349   0.182   1.645  0.9009  0.5778 -0.0702
13715SOL    HW241724   0.374   0.056   1.566  1.6243 -1.2602  2.9385
13716SOL     OW41725   6.064   8.168   0.824 -0.2288  0.0083  0.4823
13716SOL    HW141726   6.150   8.133   0.847  0.6103  1.7446  0.1563
13716SOL    HW241727   6.056   8.153   0.730  0.1305  0.6521  0.3425
13717SOL     OW41728   5.774   2.785   6.952  0.6647 -0.2673  0.3220
13717SOL    HW141729   5.782   2.878   6.928 -0.7758  0.5713  2.6801
13717SOL    HW241730   5.720   2.748   6.882  0.6981  0.8332 -0.3272
13718SOL     OW41731   8.891   0.619   2.146 -0.1668  0.2789 -0.2847
13718SOL    HW141732   8.865   0.645   2.057 -0.3457  0.1940 -0.2578
13718SOL    HW241733   8.955   0.685   2.172 -2.2667  2.0589  0.6575
13719SOL     OW41734   2.987   9.510   9.293  0.4022 -0.3145 -0.2859
13719SOL    HW141735   2.948   9.545   9.213  1.9293 -0.0847 -0.9584
13719SOL    HW241736   3.022   9.587   9.338 -0.4689 -0.4383  0.6426
13720SOL     OW41737   9.668   9.565   4.421  0.6473 -0.5869 -0.0156
13720SOL    HW141738   9.674   9.624   4.347  1.3879  1.8342  1.8371
13720SOL    HW241739   9.718   9.608   4.490 -1.3124 -1.9311  2.4093
13721SOL     OW41740   6.451   4.524   4.077  0.2648 -0.2144  0.7038
13721SOL    HW141741   6.368   4.536   4.031  0.9081 -0.8590 -0.6855
13721SOL    HW241742   6.517   4.551   4.013  1.1181  0.7362  1.9487
13722SOL     OW41743   0.382   4.667   4.295  0.1607 -0.4158 -0.1985
13722SOL    HW141744   0.440   4.739   4.319 -1.4907  0.9155  0.0457
13722SOL    HW241745   0.440   4.597   4.265  1.9009  0.5219  0.8269
13723SOL     OW41746   8.873   8.548   0.377 -0.3410 -0.1943 -0.8915
13723SOL    HW141747   8.889   8.465   0.333  1.3419 -0.5299  0.2501
13723SOL    HW241748   8.950   8.601   0.358 -1.1366  0.9088 -1.1406
13724SOL     OW41749   7.555   8.199   2.165  0.2546  0.0607  0.1489
13724SOL    HW141750   7.627   8.158   2.118  0.9984  0.4646  0.8890
13724SOL    HW241751   7.597   8.270   2.215 -0.3394 -0.8866  2.0856
13725SOL     OW41752   8.873   6.562   4.713  0.5403  0.0341 -0.5240
13725SOL    HW141753   8.961   6.530   4.694  0.7132  0.0641  0.1811
13725SOL    HW241754   8.863   6.640   4.658  0.5992 -0.4823 -1.2895
13726SOL     OW41755   1.093   2.268   3.197  0.0036  0.2707 -0.4166
13726SOL    HW141756   1.123   2.288   3.109  0.0954 -1.5740 -0.8449
13726SOL    HW241757   1.004   2.236   3.186 -0.8061  2.0930  0.4347
13727SOL     OW41758   0.994   5.108   2.179 -0.4388  0.4181 -0.0885
13727SOL    HW141759   1.024   5.113   2.270  0.0345 -1.6463 -0.0794
13727SOL    HW241760   1.073   5.092   2.128 -0.9663 -1.1143 -0.5142
13728SOL     OW41761   7.104   6.275   5.066  0.2254 -0.0926 -0.1283
13728SOL    HW141762   7.045   6.232   5.004  0.1025 -0.8691  0.5216
13728SOL    HW241763   7.050   6.344   5.105 -0.2440 -0.7448  0.4016
13729SOL     OW41764   5.277   8.459   5.814 -0.8846 -0.0988 -0.1984
13729SOL    HW141765   5.308   8.513   5.742 -0.0016 -1.2834 -0.7358
13729SOL    HW241766   5.342   8.471   5.883 -0.4474 -0.7842 -0.4780
13730SOL     OW41767   7.121   7.754   9.821  0.1413 -0.1336  0.4056
13730SOL    HW141768   7.185   7.697   9.778 -0.9149 -0.1286 -1.2743
13730SOL    HW241769   7.115   7.720   9.910  2.0791 -0.4451  0.4596
13731SOL     OW41770   6.796   6.788   0.447 -0.2484  0.6064  0.1264
13731SOL    HW141771   6.887   6.769   0.423  0.6504  2.0571  2.1095
13731SOL    HW241772   6.758   6.826   0.369  2.1252  3.8780  0.3367
13732SOL     OW41773   3.801   8.088   0.872  0.0872 -0.0126  0.0212
13732SOL    HW141774   3.818   8.090   0.966  0.5616  1.0810 -0.0710
13732SOL    HW241775   3.888   8.079   0.832  0.3397  3.1723 -0.3868
13733SOL     OW41776   5.815   3.805   9.477  0.6058 -0.2823 -0.1463
13733SOL    HW141777   5.801   3.757   9.559 -0.5807  0.5131  0.1458
13733SOL    HW241778   5.729   3.807   9.436  0.6692  1.3584 -0.2621
13734SOL     OW41779   2.561   2.410   6.885  0.0900 -0.4989  0.4836
13734SOL    HW141780   2.610   2.350   6.942  1.2072  0.6382  0.7536
13734SOL    HW241781   2.478   2.423   6.931  0.5946 -0.3563  1.3858
13735SOL     OW41782   9.387   7.135   8.332 -0.3698  0.3460 -0.2761
13735SOL    HW141783   9.421   7.219   8.302 -0.8356  0.2311 -1.1817
13735SOL    HW241784   9.302   7.156   8.370  0.8148  0.6978  2.3991
13736SOL     OW41785   9.529   4.264   9.905 -0.2964  0.4676  0.1559
13736SOL    HW141786   9.472   4.193   9.875 -2.3961  2.7599 -1.6641
13736SOL    HW241787   9.576   4.292   9.827  1.3444  0.3986  1.0800
13737SOL     OW41788   6.216   2.826   0.518 -0.3837 -0.2534  0.5149
13737SOL    HW141789   6.291   2.775   0.486 -1.2399 -1.3466  0.1919
13737SOL    HW241790   6.208   2.898   0.456 -0.0131 -0.5102  0.1632
13738SOL     OW41791   9.478   9.974   0.240  0.1732  0.3279  0.1652
13738SOL    HW141792   9.399   9.954   0.290  0.3144  0.3010  0.3809
13738SOL    HW241793   9.539  10.009   0.305  0.5626 -0.2499  0.1153
13739SOL     OW41794   3.894   3.917   6.994 -0.1021  0.1823 -0.0139
13739SOL    HW141795   3.940   3.901   6.911 -1.1906 -0.9986 -0.4116
13739SOL    HW241796   3.920   3.845   7.050 -1.0729 -0.2304 -0.0787
13740SOL     OW41797   0.392   0.139   9.581  0.1179 -0.1647 -0.4374
13740SOL    HW141798   0.411   0.115   9.671 -0.1740  0.1639 -0.2871
13740SOL    HW241799   0.472   0.183   9.551  0.9462 -1.9355 -0.9510
13741SOL     OW41800   0.965   1.307   0.201  0.4446 -0.1617  0.5662
13741SOL    HW141801   0.931   1.280   0.116  1.5314 -2.9123  0.9176
13741SOL    HW241802   1.060   1.312   0.188  0.4664  1.7039  1.0758
13742SOL     OW41803   8.306   9.486   0.202 -0.2042  0.1702  0.2192
13742SOL    HW141804   8.323   9.471   0.295  1.1876  0.3380  0.0040
13742SOL    HW241805   8.267   9.574   0.199 -1.8801 -0.5164  0.7882
13743SOL     OW41806   4.411   0.288   7.139  0.5278  0.0164 -0.1662
13743SOL    HW141807   4.486   0.333   7.178  0.6687  1.2749 -1.8012
13743SOL    HW241808   4.349   0.279   7.211  1.2450  1.1780  0.6369
13744SOL     OW41809   6.966   6.139   6.886 -0.3836 -0.1061 -0.1533
13744SOL    HW141810   6.909   6.139   6.809  0.0849  0.3948 -0.5041
13744SOL    HW241811   6.993   6.231   6.896 -1.1488  0.0075  1.1319
13745SOL     OW41812   5.987   2.868   2.682 -0.4284 -0.0333 -0.2712
13745SOL    HW141813   6.050   2.905   2.743 -0.4594  0.0525 -0.2912
13745SOL    HW241814   5.969   2.939   2.620 -0.2386 -0.1853 -0.5024
13746SOL     OW41815   3.723   4.234   3.046  0.2862  0.1343  0.3439
13746SOL    HW141816   3.684   4.319   3.027  1.3586  0.8100  1.0595
13746SOL    HW241817   3.706   4.219   3.139 -1.7229 -1.4460 -0.2051
13747SOL     OW41818   2.829   1.336   6.399 -0.6032  0.3220 -0.4005
13747SOL    HW141819   2.854   1.421   6.435  0.7968  0.3490 -1.3898
13747SOL    HW241820   2.833   1.276   6.473  1.0769  0.6003 -0.2429
13748SOL     OW41821   7.533   5.442   1.594  0.2303  0.1877  1.2772
13748SOL    HW141822   7.623   5.426   1.623  0.4458  0.0007  0.5105
13748SOL    HW241823   7.519   5.536   1.610  1.0358  0.5228  0.1351
13749SOL     OW41824   2.417   9.798   8.571 -0.0070  0.4448 -0.2618
13749SOL    HW141825   2.507   9.772   8.556  0.1326  1.4640 -1.3667
13749SOL    HW241826   2.403   9.873   8.512 -1.2904  0.8845  0.5465
13750SOL     OW41827   6.855   5.517   6.927  0.1372  0.2841 -0.4204
13750SOL    HW141828   6.850   5.544   7.019  1.9017 -1.8237  0.3796
13750SOL    HW241829   6.833   5.424   6.928  1.8070 -0.1731 -1.8715
13751SOL     OW41830   7.248   5.490   0.361 -0.1212  0.0761 -0.5572
13751SOL    HW141831   7.199   5.494   0.443  2.0838 -1.0726  0.9472
13751SOL    HW241832   7.221   5.408   0.320  0.1525 -0.2966 -0.0014
13752SOL     OW41833   0.736   2.644   9.704 -0.3634  0.0490 -0.7411
13752SOL    HW141834   0.643   2.637   9.727  0.1259  1.8385  2.3211
13752SOL    HW241835   0.736   2.683   9.617 -2.4093 -2.8827 -2.2452
13753SOL     OW41836   8.033   4.938   2.350 -0.0358  0.0805 -0.5810
13753SOL    HW141837   7.939   4.928   2.338 -0.3254  0.7812  0.8226
13753SOL    HW241838   8.061   4.999   2.282 -0.7562  0.5008 -0.5063
13754SOL     OW41839   7.670   8.898   5.307  0.2927  0.0879 -0.1153
13754SOL    HW141840   7.719   8.857   5.378  0.9309 -0.7801 -1.0262
13754SOL    HW241841   7.578   8.878   5.326  0.5445 -1.2221 -0.1930
13755SOL     OW41842   7.670   6.124   1.671  0.1398 -0.7759  0.4524
13755SOL    HW141843   7.683   6.214   1.642  1.2711 -0.7948  0.8536
13755SOL    HW241844   7.757   6.084   1.665  0.1336 -1.1943  2.4174
13756SOL     OW41845   1.333   0.286   1.209  0.4227  0.0472 -0.3416
13756SOL    HW141846   1.416   0.260   1.170  1.1140 -0.6385  1.4923
13756SOL    HW241847   1.282   0.205   1.213  0.7321 -0.1057  0.9969
13757SOL     OW41848   9.152   8.083   7.181 -0.4983  0.7222 -0.1329
13757SOL    HW141849   9.223   8.050   7.126 -0.0551  1.3403  0.0472
13757SOL    HW241850   9.165   8.178   7.183 -1.3171  0.8405 -0.0694
13758SOL     OW41851   9.353   8.371   6.100 -0.3473 -0.0118  0.0688
13758SOL    HW141852   9.276   8.332   6.140  0.1509 -0.3315  0.7291
13758SOL    HW241853   9.416   8.299   6.093 -0.5888 -0.1031 -1.7813
13759SOL     OW41854   0.724   0.547   9.581  0.5045  0.0198  0.1534
13759SOL    HW141855   0.770   0.491   9.644  0.7171  0.3334  0.2755
13759SOL    HW241856   0.733   0.501   9.497  2.3054  0.7868 -0.1208
13760SOL     OW41857   6.549   0.083   8.216 -0.4420 -0.4124 -0.0277
13760SOL    HW141858   6.471   0.113   8.171 -0.6740 -0.1614  0.5360
13760SOL    HW241859   6.517   0.044   8.297 -0.1989 -2.6112 -0.9151
13761SOL     OW41860   8.280   3.078   1.427 -0.0461  0.3209  0.0078
13761SOL    HW141861   8.342   3.143   1.460 -0.9519  0.6491  1.1395
13761SOL    HW241862   8.221   3.127   1.370  0.1783  0.1888 -0.3404
13762SOL     OW41863   8.573   5.857   1.988 -0.3512 -0.1406 -0.3407
13762SOL    HW141864   8.634   5.819   2.052 -0.5362  1.4489  0.8331
13762SOL    HW241865   8.490   5.813   2.005 -0.1461 -0.4958 -0.2314
13763SOL     OW41866   0.720   2.498   1.212 -0.3026  0.1434 -0.1381
13763SOL    HW141867   0.662   2.480   1.138 -0.6271  3.5530 -0.9081
13763SOL    HW241868   0.662   2.494   1.288 -0.3677 -1.5785 -0.2495
13764SOL     OW41869   5.352   5.592   5.791  0.1024 -0.0831 -0.6870
13764SOL    HW141870   5.296   5.669   5.779 -1.2504 -0.9149  0.0047
13764SOL    HW241871   5.439   5.628   5.809 -0.6702  1.3059  0.4810
13765SOL     OW41872   8.467   3.264   4.229 -0.0575 -0.3424 -0.9697
13765SOL    HW141873   8.474   3.349   4.187 -0.8483  0.8136  1.1052
13765SOL    HW241874   8.372   3.252   4.242  0.0707 -1.3673 -0.8809
13766SOL     OW41875   2.027   1.875   6.551 -0.0478 -0.0182  0.0623
13766SOL    HW141876   2.008   1.959   6.508  0.1163  0.0581  0.1389
13766SOL    HW241877   1.965   1.872   6.624  0.5975  0.4838  0.6421
13767SOL     OW41878   4.103   1.513   7.911 -0.2630  0.1520 -0.5022
13767SOL    HW141879   4.159   1.468   7.974 -0.5401 -0.9244 -1.0127
13767SOL    HW241880   4.149   1.596   7.893  0.2265  0.1098  0.4793
13768SOL     OW41881   3.163   7.999   4.374 -0.2520 -0.5399  0.1978
13768SOL    HW141882   3.215   7.950   4.437 -0.3081  0.8773  1.4192
13768SOL    HW241883   3.215   7.999   4.294  1.4606  0.4840  1.2541
13769SOL     OW41884   7.569   5.281   4.263  0.2917 -0.7909  0.3869
13769SOL    HW141885   7.599   5.196   4.295  3.8044  0.5812  1.2206
13769SOL    HW241886   7.603   5.344   4.327  0.4756  1.4375 -1.7566
13770SOL     OW41887   2.756   3.775   2.639  0.1035 -0.0756 -0.4006
13770SOL    HW141888   2.733   3.728   2.719  0.8447 -1.0112 -0.7223
13770SOL    HW241889   2.810   3.714   2.590  1.7428  1.3799 -0.4958
13771SOL     OW41890   5.500   5.335   2.171  0.1855 -0.1876  0.0900
13771SOL    HW141891   5.510   5.423   2.136  0.6881 -0.6735 -1.0229
13771SOL    HW241892   5.422   5.340   2.226 -0.3917  0.6988 -0.7812
13772SOL     OW41893   1.619   9.469   1.758 -0.3181 -0.3622  0.0855
13772SOL    HW141894   1.567   9.463   1.679  0.9568  2.6472 -1.1686
13772SOL    HW241895   1.640   9.562   1.765  4.3423 -1.2133  0.7395
13773SOL     OW41896   4.345   3.502   6.317 -0.1099 -0.6754 -0.1717
13773SOL    HW141897   4.431   3.523   6.282 -0.2028  2.5479  1.2331
13773SOL    HW241898   4.284   3.525   6.247 -0.0523  1.6933  0.5037
13774SOL     OW41899   4.385   9.117   8.897 -0.2176  0.0451 -0.0823
13774SOL    HW141900   4.434   9.034   8.894  1.7469  1.0628  1.5190
13774SOL    HW241901   4.307   9.100   8.845 -0.1116 -2.9746  0.5641
13775SOL     OW41902   2.601   0.803   4.379  0.4490 -0.4444 -0.2705
13775SOL    HW141903   2.623   0.710   4.386  2.0133 -0.0400  0.7426
13775SOL    HW241904   2.539   0.808   4.306  1.2584 -2.1296 -1.1282
13776SOL     OW41905   4.995   4.388   1.314 -0.1415 -0.4333 -0.4264
13776SOL    HW141906   5.049   4.446   1.368  0.1787 -1.5248  0.4506
13776SOL    HW241907   4.911   4.434   1.306 -0.8180 -0.9770  2.4557
13777SOL     OW41908   6.242   9.038   9.312 -1.0129 -0.3575  0.4013
13777SOL    HW141909   6.322   9.083   9.339 -0.7071 -0.4622 -0.3094
13777SOL    HW241910   6.172   9.097   9.337 -0.7300 -0.3595  1.2307
13778SOL     OW41911   3.689   9.383   0.173  0.0602  0.0923  0.1351
13778SOL    HW141912   3.697   9.390   0.268 -0.8222  0.7603  0.1741
13778SOL    HW241913   3.629   9.453   0.149  0.2413 -0.0973 -0.9167
13779SOL     OW41914   2.281   7.488   5.630  0.0964 -0.0262  0.3337
13779SOL    HW141915   2.231   7.570   5.627 -1.5595 -0.9373  1.4163
13779SOL    HW241916   2.322   7.482   5.545 -2.4730  0.3359 -1.0420
13780SOL     OW41917   1.110   1.571   8.354 -0.2061 -0.1351  0.2119
13780SOL    HW141918   1.106   1.576   8.449  0.4916 -1.9373  0.3776
13780SOL    HW241919   1.018   1.569   8.325 -0.4444 -1.1954  0.9845
13781SOL     OW41920   1.885   4.144   0.314 -0.2740  0.0056 -0.9841
13781SOL    HW141921   1.965   4.108   0.274  0.5428 -0.4672  0.9295
13781SOL    HW241922   1.905   4.236   0.329  0.3614 -0.3090  0.3648
13782SOL     OW41923   2.879   6.510   8.079  0.4318  0.4856 -1.0126
13782SOL    HW141924   2.788   6.538   8.070  0.3254  0.0753 -1.1854
13782SOL    HW241925   2.874   6.416   8.096  0.8380  0.4076 -1.3248
13783SOL     OW41926   9.379   5.355   5.794 -0.2544 -0.4821  0.2141
13783SOL    HW141927   9.473   5.344   5.781  0.0405  0.7735  1.0706
13783SOL    HW241928   9.370   5.378   5.887 -1.2469  0.9598 -0.2085
13784SOL     OW41929   4.674   5.059   9.778 -0.0224  0.7802 -0.2262
13784SOL    HW141930   4.629   5.111   9.712 -2.2030  1.1492  1.4388
13784SOL    HW241931   4.760   5.040   9.739  0.4182  4.4803 -1.4650
13785SOL     OW41932   3.847   1.436   6.374  0.1353  0.3929 -0.6320
13785SOL    HW141933   3.791   1.364   6.403  0.2715  0.9934  1.1937
13785SOL    HW241934   3.818   1.454   6.285 -1.8986  0.0356 -0.0948
13786SOL     OW41935   6.479   5.514   8.557 -0.4863 -0.4960  0.9687
13786SOL    HW141936   6.448   5.453   8.625  1.7016 -0.6923  1.8887
13786SOL    HW241937   6.556   5.471   8.520  0.0295  0.8960  0.3640
13787SOL     OW41938   2.946   4.662   4.213 -0.3608 -0.3237 -0.3503
13787SOL    HW141939   2.894   4.742   4.216  0.8418  0.4451  2.2667
13787SOL    HW241940   2.899   4.601   4.270 -0.8890 -1.3147 -1.7710
13788SOL     OW41941   5.177   0.379   8.699  0.0551 -0.5068  0.0735
13788SOL    HW141942   5.203   0.341   8.616 -1.6091 -0.8260 -0.3278
13788SOL    HW241943   5.168   0.304   8.758  0.4399 -0.3573  0.3272
13789SOL     OW41944   3.805   0.186   4.616 -0.1422  0.5163  0.1855
13789SOL    HW141945   3.764   0.103   4.639  1.6139 -0.3790  0.3089
13789SOL    HW241946   3.784   0.245   4.688 -3.7573  1.1524 -1.1701
13790SOL     OW41947   5.679   9.705   3.304  0.2140 -0.2786 -0.0917
13790SOL    HW141948   5.713   9.776   3.358 -0.9334  1.1047 -1.1164
13790SOL    HW241949   5.650   9.747   3.223  0.4666 -2.0720 -1.1797
13791SOL     OW41950   4.891   0.153   1.872 -0.3502  0.4731  0.0958
13791SOL    HW141951   4.915   0.164   1.780 -2.0956  1.1291 -0.3329
13791SOL    HW241952   4.878   0.059   1.882  2.5269  0.0254  0.4584
13792SOL     OW41953   3.087   5.521   7.768  0.2597 -0.3947 -1.1556
13792SOL    HW141954   3.177   5.494   7.747  1.0125  0.7630  0.3605
13792SOL    HW241955   3.063   5.580   7.697  0.9773 -0.1475 -1.2037
13793SOL     OW41956   3.287   8.618   4.586 -0.7232 -0.1988  0.2171
13793SOL    HW141957   3.205   8.574   4.609 -0.1149 -0.7638  1.3800
13793SOL    HW241958   3.299   8.600   4.492 -1.7945 -0.3066  0.0889
13794SOL     OW41959   9.646   3.531   1.384  0.0154  0.1590 -0.2730
13794SOL    HW141960   9.651   3.475   1.462 -0.7764  0.3321 -0.0958
13794SOL    HW241961   9.723   3.587   1.391 -1.1452  1.6310  1.5315
13795SOL     OW41962   4.319   4.620   0.646  0.4680 -0.6587 -0.2467
13795SOL    HW141963   4.376   4.597   0.572  0.1443  0.8822 -1.0293
13795SOL    HW241964   4.261   4.688   0.611 -1.5965 -1.8612  0.6367
13796SOL     OW41965   9.373   8.193   2.797  0.4875 -0.5388  0.0587
13796SOL    HW141966   9.444   8.191   2.861 -0.2221  0.4402  0.9238
13796SOL    HW241967   9.362   8.286   2.776  2.1678 -0.9131 -3.2198
13797SOL     OW41968   2.972   7.272   0.346  0.0317 -0.0329 -0.2520
13797SOL    HW141969   2.941   7.214   0.276  1.2263 -0.0502 -0.7940
13797SOL    HW241970   3.021   7.214   0.405  1.6893  0.4738 -1.0776
13798SOL     OW41971   4.325   6.355   0.394 -0.7170  0.0238 -0.3792
13798SOL    HW141972   4.303   6.332   0.484  0.3886  0.1926 -0.0558
13798SOL    HW241973   4.278   6.437   0.379 -0.7827  0.0778  0.0927
13799SOL     OW41974   6.691   1.654   6.413  0.2224 -0.4080 -0.3792
13799SOL    HW141975   6.714   1.594   6.484  0.3217  0.0373 -0.0329
13799SOL    HW241976   6.771   1.703   6.396 -0.4949  1.3884  1.0683
13800SOL     OW41977   0.679   8.776   5.544  0.2344  0.2473 -0.6719
13800SOL    HW141978   0.754   8.833   5.524  0.8994 -0.8582 -1.4027
13800SOL    HW241979   0.641   8.756   5.459  1.0024 -1.7019 -0.6139
13801SOL     OW41980   2.283   1.016   4.451  0.4149 -0.2223 -0.5269
13801SOL    HW141981   2.245   1.067   4.380  0.4050 -0.6938 -0.8588
13801SOL    HW241982   2.209   0.968   4.488  0.5621 -0.5998 -0.7206
13802SOL     OW41983   7.928   3.095   8.936  0.1297 -0.2525  0.1855
13802SOL    HW141984   7.879   3.166   8.893 -1.1008 -0.9666  0.3468
13802SOL    HW241985   7.952   3.131   9.021 -0.3001  0.0435  0.1859
13803SOL     OW41986   6.620   6.499   7.435  0.2842  0.0662 -0.7585
13803SOL    HW141987   6.602   6.408   7.460 -0.5961  0.4502  0.0596
13803SOL    HW241988   6.537   6.531   7.401  0.2303  0.9560  0.1781
13804SOL     OW41989   2.244   5.406   7.271 -0.2055  0.3985 -0.3698
13804SOL    HW141990   2.283   5.319   7.274 -0.4858  0.3007  1.1484
13804SOL    HW241991   2.307   5.462   7.317 -0.4170  0.8380 -0.6093
13805SOL     OW41992   9.735   8.953   1.006  0.3619 -0.2906 -0.5446
13805SOL    HW141993   9.724   8.897   1.082  0.3644 -0.8460 -0.9471
13805SOL    HW241994   9.646   8.972   0.975  0.3684 -0.2490 -0.5390
13806SOL     OW41995   8.704   3.929   0.406  0.4673  0.2583  0.2454
13806SOL    HW141996   8.696   4.023   0.394  1.6598  0.2716 -0.5277
13806SOL    HW241997   8.640   3.891   0.345 -0.9754  0.5567  1.4968
13807SOL     OW41998   1.692   9.104   1.964 -0.3020 -0.2555  0.1423
13807SOL    HW141999   1.667   9.187   1.925  0.3696 -0.3067 -0.4118
13807SOL    HW242000   1.734   9.056   1.893 -0.2698 -0.8849  0.5809
13808SOL     OW42001   2.490   8.910   4.010  0.1462  0.7917 -0.4247
13808SOL    HW142002   2.519   8.988   4.057 -0.2950  0.7390 -0.0581
13808SOL    HW242003   2.560   8.893   3.947  0.3319  1.3776 -0.3869
13809SOL     OW42004   7.217   2.530   0.839  0.2421  0.0901  0.5290
13809SOL    HW142005   7.252   2.604   0.790  0.2486  0.2447  0.7680
13809SOL    HW242006   7.130   2.558   0.865  0.2968  0.0669  0.7365
13810SOL     OW42007   2.394   9.525   9.138 -0.4794 -0.4527 -0.3524
13810SOL    HW142008   2.340   9.456   9.099 -2.1859 -0.6222  2.0847
13810SOL    HW242009   2.430   9.484   9.216  1.3285  0.4197 -0.6939
13811SOL     OW42010   2.982   6.521   7.078  0.1259 -0.0430  0.0109
13811SOL    HW142011   3.050   6.469   7.122 -1.4589 -1.4810  0.9018
13811SOL    HW242012   2.933   6.561   7.150 -0.1029  0.8046 -0.6086
13812SOL     OW42013   2.264   7.348   9.420 -0.0681 -0.0344 -0.3525
13812SOL    HW142014   2.281   7.439   9.397  4.4159 -0.6226 -0.2759
13812SOL    HW242015   2.254   7.303   9.336  2.2479 -0.0577 -0.6750
13813SOL     OW42016   2.585   1.891   9.294 -0.4751 -0.0698  0.0334
13813SOL    HW142017   2.614   1.868   9.383 -0.5363  0.1659  0.1153
13813SOL    HW242018   2.644   1.962   9.268  0.0538 -0.6630 -0.4232
13814SOL     OW42019   4.167   4.982   8.811 -0.1843  0.0551  1.4298
13814SOL    HW142020   4.210   4.915   8.758  1.1491  0.4204  2.0066
13814SOL    HW242021   4.223   5.059   8.802 -2.3275  1.5460 -0.2319
13815SOL     OW42022   8.487   5.225   1.794 -0.2587  0.2337 -0.4814
13815SOL    HW142023   8.411   5.281   1.808 -0.1664  0.1248  0.6150
13815SOL    HW242024   8.499   5.181   1.879  0.4162 -0.4998 -0.9478
13816SOL     OW42025   1.878   0.510   1.602  0.4148  0.1832  0.0458
13816SOL    HW142026   1.933   0.536   1.528  1.6169  0.8635  1.1333
13816SOL    HW242027   1.884   0.583   1.663 -0.7918 -0.2390  0.7078
13817SOL     OW42028   3.274   0.018   3.572  0.2059 -0.5231  0.1390
13817SOL    HW142029   3.184  -0.014   3.569  1.2127 -3.7334 -2.5292
13817SOL    HW242030   3.296   0.035   3.480  2.5168 -0.4190  0.6543
13818SOL     OW42031   1.246   7.288   6.234  0.4837  0.0554  0.0419
13818SOL    HW142032   1.155   7.272   6.257  0.0210  0.0574 -1.6692
13818SOL    HW242033   1.294   7.215   6.273 -0.4243 -0.6755 -0.1748
13819SOL     OW42034   8.383   5.460   4.763 -0.4981 -0.5059 -0.4588
13819SOL    HW142035   8.313   5.445   4.827  0.6403  1.8239  1.5114
13819SOL    HW242036   8.456   5.406   4.794 -0.7706 -1.4311 -1.3854
13820SOL     OW42037   1.380   5.663   4.431 -0.1364  0.1229 -0.2520
13820SOL    HW142038   1.309   5.624   4.481 -1.4727  1.9098 -0.6719
13820SOL    HW242039   1.425   5.720   4.494  3.4659 -3.7341  1.1204
13821SOL     OW42040   7.960   2.259   3.101  0.1500  0.1765 -0.0189
13821SOL    HW142041   7.920   2.346   3.096  1.3851  0.9118  1.7321
13821SOL    HW242042   8.049   2.272   3.067 -0.2795 -0.9037 -1.6731
13822SOL     OW42043   6.069   8.854   8.624 -0.0806 -0.1607 -0.5740
13822SOL    HW142044   6.153   8.808   8.620  0.8029  0.7469  3.4501
13822SOL    HW242045   6.090   8.945   8.604 -0.1543  0.0039  0.0790
13823SOL     OW42046   8.883   2.650   9.140 -0.2149 -0.3567  0.5195
13823SOL    HW142047   8.852   2.573   9.092  0.9262  0.8985 -2.4717
13823SOL    HW242048   8.975   2.631   9.160  0.0564  0.1924 -0.1869
13824SOL     OW42049   8.358   1.600   2.642 -0.1747 -0.1891 -0.3587
13824SOL    HW142050   8.294   1.544   2.598 -0.8491 -0.9004  1.4278
13824SOL    HW242051   8.306   1.655   2.701  0.6849  0.8210 -0.5102
13825SOL     OW42052   4.652   8.617   8.462 -0.0901  0.3554 -0.2091
13825SOL    HW142053   4.606   8.612   8.378  1.8569 -0.3594 -1.2845
13825SOL    HW242054   4.695   8.532   8.471  1.1186  1.0370  0.6733
13826SOL     OW42055   9.206   8.709   8.774 -0.2036 -0.0822 -0.1114
13826SOL    HW142056   9.178   8.796   8.805  1.2722  0.5075 -0.3537
13826SOL    HW242057   9.164   8.648   8.834 -1.0699  0.8076  0.2275
13827SOL     OW42058   9.576   0.267   1.285  0.3489  0.1095 -0.2366
13827SOL    HW142059   9.504   0.204   1.289 -1.3188  1.9116  0.0215
13827SOL    HW242060   9.588   0.284   1.192  1.0470 -0.8284 -0.3251
13828SOL     OW42061   9.491   1.498   0.415  0.0719  0.3708  0.5299
13828SOL    HW142062   9.506   1.548   0.495 -0.6074 -0.2018  1.0298
13828SOL    HW242063   9.512   1.407   0.440 -0.9926  0.0607  0.3156
13829SOL     OW42064   4.814   5.352   2.031 -0.5966 -0.1501  0.3961
13829SOL    HW142065   4.859   5.432   2.059  0.7441 -0.7777  0.1399
13829SOL    HW242066   4.856   5.282   2.083 -0.2942 -0.9273 -0.8514
13830SOL     OW42067   9.034   4.301   9.897  0.0420 -0.4433  0.0764
13830SOL    HW142068   8.976   4.326   9.825  0.6930 -0.5511 -0.4932
13830SOL    HW242069   8.997   4.218   9.928 -0.7215  0.0157  0.4107
13831SOL     OW42070   7.186   3.927   8.007  0.6390  0.3442  0.3032
13831SOL    HW142071   7.186   3.858   7.941 -1.0571  0.0377  0.5569
13831SOL    HW242072   7.201   4.008   7.958  1.4943 -0.0724 -0.1504
13832SOL     OW42073   2.238   2.206   5.048 -0.0122 -0.2855 -0.1646
13832SOL    HW142074   2.281   2.284   5.083 -0.1169 -0.5690  0.6188
13832SOL    HW242075   2.149   2.209   5.084  0.1141 -0.9874  0.2313
13833SOL     OW42076   9.751   6.361   0.311  0.3044  0.0907 -0.2589
13833SOL    HW142077   9.799   6.376   0.229  1.9484 -1.4944  0.3192
13833SOL    HW242078   9.781   6.430   0.369 -0.0738  0.6090 -0.6699
13834SOL     OW42079   0.407   8.299   2.640 -0.1985 -0.2662 -0.4805
13834SOL    HW142080   0.380   8.246   2.565 -0.7596 -1.3844  0.4818
13834SOL    HW242081   0.486   8.344   2.609  3.5609 -5.5064  0.0669
13835SOL     OW42082   9.584   6.652   3.073 -0.2834  0.1944 -0.1123
13835SOL    HW142083   9.530   6.588   3.118 -0.1250  0.2925  0.2252
13835SOL    HW242084   9.528   6.687   3.004 -1.0178  1.0565  0.8849
13836SOL     OW42085   5.979   1.469   4.713 -0.2280  0.4534 -0.2534
13836SOL    HW142086   5.931   1.410   4.770 -1.1734 -0.9639 -2.3850
13836SOL    HW242087   5.917   1.491   4.643  1.6924 -0.2118 -2.2917
13837SOL     OW42088   7.812   4.547   6.534 -0.4344  0.1573 -0.5460
13837SOL    HW142089   7.875   4.585   6.595 -0.9068  1.9702 -1.1441
13837SOL    HW242090   7.769   4.478   6.585  0.8947 -0.0356  0.3728
13838SOL     OW42091   1.958   0.107   9.951 -0.5575  0.4124  0.1347
13838SOL    HW142092   1.864   0.110   9.935 -0.3849 -1.7674 -1.7499
13838SOL    HW242093   1.967   0.127  10.045 -2.8361  0.8916  0.3055
13839SOL     OW42094   8.052   2.046   4.247  0.0234  0.7893  0.3033
13839SOL    HW142095   8.091   1.991   4.314  1.0130  0.8257 -0.2260
13839SOL    HW242096   7.959   2.049   4.270  0.2368  0.2913  1.3002
13840SOL     OW42097   1.131   9.588   6.632  0.2100 -0.7238 -0.3978
13840SOL    HW142098   1.180   9.535   6.569  0.8066 -1.7997  0.9085
13840SOL    HW242099   1.199   9.635   6.681  0.1608 -3.0173  2.1398
13841SOL     OW42100   1.202   1.926   2.463  0.0769  0.1801  0.0326
13841SOL    HW142101   1.286   1.966   2.490 -0.7803  2.0565  0.1161
13841SOL    HW242102   1.136   1.973   2.514 -1.0512 -1.3184  0.0253
13842SOL     OW42103   5.860   7.510   7.962  0.4945  0.9793 -0.1255
13842SOL    HW142104   5.869   7.423   8.001  0.4085  1.0056 -0.0457
13842SOL    HW242105   5.856   7.570   8.037  1.6639  1.1670 -0.1823
13843SOL     OW42106   7.555   0.888   8.381 -1.0275  0.6191 -0.1116
13843SOL    HW142107   7.584   0.845   8.300 -1.0262 -2.0632  1.2007
13843SOL    HW242108   7.636   0.909   8.427 -1.0399  0.2500  0.0859
13844SOL     OW42109   0.106   1.307   4.610 -0.1047  0.6861  0.3454
13844SOL    HW142110   0.083   1.277   4.522 -0.7638  0.5511  0.5598
13844SOL    HW242111   0.040   1.268   4.667 -0.3793  1.7192  0.7586
13845SOL     OW42112   9.393   4.645   6.498 -0.3449 -0.3718  0.2660
13845SOL    HW142113   9.364   4.558   6.526  1.8566 -1.2799 -0.0923
13845SOL    HW242114   9.386   4.643   6.403  2.9557 -1.5227 -0.0733
13846SOL     OW42115   1.448   2.582   0.777  0.2382  0.0310  0.4002
13846SOL    HW142116   1.372   2.524   0.784 -0.5301  0.8071 -1.0206
13846SOL    HW242117   1.480   2.569   0.688  1.7014 -0.1659  0.9372
13847SOL     OW42118   3.594   3.904   3.150 -0.2702  0.5008  0.4427
13847SOL    HW142119   3.637   3.825   3.185  0.0481 -1.7341 -4.1977
13847SOL    HW242120   3.652   3.934   3.081 -2.7470  1.8249 -1.1974
13848SOL     OW42121   2.995   7.407   7.816  0.0881  0.1279  0.1654
13848SOL    HW142122   3.035   7.378   7.898 -1.6551 -1.3342  0.5478
13848SOL    HW242123   3.026   7.345   7.751 -0.1869  0.0183  0.1370
13849SOL     OW42124   3.978   2.266   2.796 -0.5791 -0.6132 -0.8453
13849SOL    HW142125   4.062   2.221   2.784 -0.2232 -0.6265  1.2889
13849SOL    HW242126   3.994   2.326   2.870 -2.5236 -0.8165 -0.2273
13850SOL     OW42127   3.059   0.083   6.799 -0.7190 -0.4340 -0.2416
13850SOL    HW142128   3.025  -0.007   6.803  1.5552 -1.3127  1.7977
13850SOL    HW242129   3.113   0.091   6.877 -0.9344  2.8000 -0.3073
13851SOL     OW42130   8.750   5.800   4.307 -0.0575  0.0805 -0.4617
13851SOL    HW142131   8.707   5.860   4.246 -0.9106  0.1522  0.2003
13851SOL    HW242132   8.803   5.742   4.250  0.2084  0.9799 -1.1579
13852SOL     OW42133   8.043   8.744   8.627 -0.6051 -0.2229  0.0076
13852SOL    HW142134   8.042   8.775   8.718 -2.5053 -0.5526  0.1394
13852SOL    HW242135   7.985   8.668   8.627  0.0763 -0.7724 -1.3231
13853SOL     OW42136   3.134   0.542   9.939  0.0317 -0.9182  0.6383
13853SOL    HW142137   3.126   0.637   9.947  1.2603  0.0026 -4.7963
13853SOL    HW242138   3.052   0.515   9.897 -0.0186 -2.2083  1.5069
13854SOL     OW42139   5.021   8.210   5.607 -0.2681 -0.3908 -0.2031
13854SOL    HW142140   5.007   8.279   5.672 -0.7195 -0.1178 -0.5876
13854SOL    HW242141   5.095   8.160   5.642  0.5251  0.6913 -0.2545
13855SOL     OW42142   3.559   1.213   2.433  0.2237 -0.1697  0.2240
13855SOL    HW142143   3.581   1.257   2.515 -1.7229  0.2157  0.6017
13855SOL    HW242144   3.592   1.271   2.365  0.6660  0.1784  0.7238
13856SOL     OW42145   9.636   2.217   3.622  0.1323 -0.0418 -0.2124
13856SOL    HW142146   9.705   2.165   3.663 -0.1106 -0.8345 -0.7938
13856SOL    HW242147   9.564   2.155   3.609  0.0856  0.2660 -1.5333
13857SOL     OW42148   5.033   6.843   6.910 -0.6973  0.1808 -0.0278
13857SOL    HW142149   5.028   6.887   6.994 -0.8645  0.9649 -0.4387
13857SOL    HW242150   4.947   6.801   6.900 -0.4436 -0.4869  0.4840
13858SOL     OW42151   2.919   2.660   3.353  0.2144  0.2663 -0.0793
13858SOL    HW142152   3.001   2.683   3.398  0.4027  0.1483 -0.3600
13858SOL    HW242153   2.947   2.616   3.273 -0.1362 -0.4340  0.1751
13859SOL     OW42154   3.800   3.181   4.588  0.6740  0.2649  0.4652
13859SOL    HW142155   3.719   3.222   4.618 -1.4651 -1.7380 -2.0254
13859SOL    HW242156   3.820   3.117   4.656 -1.8974 -1.5749 -0.3367
13860SOL     OW42157   6.603   1.412   1.535  0.4753  0.4100  0.3819
13860SOL    HW142158   6.560   1.492   1.508 -1.3367 -0.3268  0.9637
13860SOL    HW242159   6.678   1.404   1.475  1.4001  3.0827  1.0534
13861SOL     OW42160   5.746   2.601   6.332 -0.4235 -0.0271 -0.5962
13861SOL    HW142161   5.750   2.696   6.338  1.2741  0.0472 -2.0603
13861SOL    HW242162   5.765   2.582   6.240  2.7284 -1.8662  0.2796
13862SOL     OW42163   6.870   8.549   3.791 -0.5758 -0.1823  0.0785
13862SOL    HW142164   6.950   8.517   3.749 -0.6676 -1.2311  0.6549
13862SOL    HW242165   6.899   8.621   3.847 -0.4097  1.0516 -1.5141
13863SOL     OW42166   2.232   7.576   8.116  0.3308  0.7332 -0.1517
13863SOL    HW142167   2.181   7.506   8.156  0.3520  0.1133 -1.1603
13863SOL    HW242168   2.323   7.553   8.134  0.3077  1.1424  0.5263
13864SOL     OW42169   1.900   5.024   7.916 -0.6953 -0.6725  0.5948
13864SOL    HW142170   1.982   5.073   7.926  0.8331 -2.9365 -0.2005
13864SOL    HW242171   1.838   5.089   7.883  0.8074  1.0681  1.0183
13865SOL     OW42172   3.741   2.619   0.436  0.1732  0.1974  0.2001
13865SOL    HW142173   3.689   2.598   0.359 -0.2016 -0.0605  0.5154
13865SOL    HW242174   3.796   2.542   0.450  0.7684  0.5365 -0.2295
13866SOL     OW42175   2.485   0.094   0.511  0.3963  0.0447 -0.4120
13866SOL    HW142176   2.497   0.126   0.421  0.4314  0.7247 -0.1705
13866SOL    HW242177   2.509   0.002   0.507  0.1012 -0.0083 -1.1700
13867SOL     OW42178   6.975   4.139   8.071 -0.6532  0.3951  0.3969
13867SOL    HW142179   7.034   4.203   8.110 -0.9250 -0.5021  2.4116
13867SOL    HW242180   7.032   4.075   8.030 -0.2705  0.5277  0.7132
13868SOL     OW42181   0.088   1.136   0.453  0.2100 -0.0473  0.2036
13868SOL    HW142182   0.142   1.101   0.383  0.4136  0.7737 -0.0663
13868SOL    HW242183   0.020   1.187   0.409  0.0070  0.0214  0.5833
13869SOL     OW42184   9.920   2.984   9.339 -1.0229  0.1467  0.1375
13869SOL    HW142185   9.994   2.959   9.395 -1.2175 -1.5179 -0.3035
13869SOL    HW242186   9.956   3.049   9.279  0.5573 -1.7542 -1.1013
13870SOL     OW42187   0.303   7.300   7.575  0.2964  0.0304  0.5398
13870SOL    HW142188   0.285   7.328   7.485 -1.9440 -1.8519  0.3149
13870SOL    HW242189   0.253   7.362   7.629 -0.0734 -0.1143  0.3669
13871SOL     OW42190   3.034   4.877   0.045 -0.1585  0.0160  0.1361
13871SOL    HW142191   3.037   4.950  -0.016  0.3532 -0.2247 -0.1319
13871SOL    HW242192   3.126   4.851   0.057 -0.4240 -1.9042 -1.4031
13872SOL     OW42193   1.269   4.882   9.565 -0.4238 -0.3030 -0.1387
13872SOL    HW142194   1.333   4.826   9.521 -1.2090 -1.0732 -0.3276
13872SOL    HW242195   1.288   4.871   9.658  0.1418  0.0042 -0.2099
13873SOL     OW42196   5.405   0.499   0.396  0.5271 -0.3101 -0.7688
13873SOL    HW142197   5.327   0.481   0.449 -0.1577 -0.3098 -1.7491
13873SOL    HW242198   5.384   0.580   0.350  2.2094  1.2372  0.9849
13874SOL     OW42199   0.490   5.213   6.818  0.4636  0.6169  0.3532
13874SOL    HW142200   0.437   5.230   6.740 -0.7566  0.0038  1.0266
13874SOL    HW242201   0.490   5.296   6.865  1.4712  1.0855 -0.4282
13875SOL     OW42202   1.110   9.136   2.795 -0.4056 -0.2108 -0.4351
13875SOL    HW142203   1.074   9.074   2.859 -1.2866 -1.1830 -1.8202
13875SOL    HW242204   1.084   9.100   2.710  2.4516 -0.0439 -1.4630
13876SOL     OW42205   3.180   1.546   4.263 -0.3724 -0.3192  0.2241
13876SOL    HW142206   3.142   1.598   4.333 -0.0556  0.3040 -0.0510
13876SOL    HW242207   3.138   1.579   4.183 -0.2130 -0.5287  0.0502
13877SOL     OW42208   6.689   1.204   4.216  0.5710 -0.0893 -0.3576
13877SOL    HW142209   6.781   1.222   4.233  0.3778 -0.1594  0.8668
13877SOL    HW242210   6.659   1.277   4.163  1.0800  0.5047  0.1595
13878SOL     OW42211   7.883   1.004   3.107 -0.4563  0.5024 -0.1190
13878SOL    HW142212   7.866   1.084   3.057  0.2327  0.8570  0.1953
13878SOL    HW242213   7.822   1.009   3.181 -0.3922  0.7603 -0.0819
13879SOL     OW42214   2.880   5.074   5.293 -1.0280  0.5448 -1.1899
13879SOL    HW142215   2.801   5.025   5.271 -0.3770 -1.2673  0.1999
13879SOL    HW242216   2.857   5.123   5.372 -1.4551  2.0082 -2.1720
13880SOL     OW42217   7.029   0.785   9.554 -0.5318  0.0955 -0.1819
13880SOL    HW142218   7.012   0.875   9.582 -2.9144 -0.3494  0.0154
13880SOL    HW242219   7.107   0.791   9.500 -0.3197  2.1937  0.2814
13881SOL     OW42220   1.072   6.089   7.652 -0.0122  0.0561  0.5525
13881SOL    HW142221   1.011   6.023   7.684 -0.8583  0.9065  0.7588
13881SOL    HW242222   1.138   6.040   7.604  1.4017 -1.3000  3.6451
13882SOL     OW42223   0.166   0.218   3.848  0.3673  0.2466 -0.5569
13882SOL    HW142224   0.082   0.216   3.803  0.2041  0.2804 -0.2497
13882SOL    HW242225   0.149   0.180   3.934  1.4028 -3.2180 -1.7223
13883SOL     OW42226   3.464   2.402   0.856 -0.5573  0.4516 -0.0119
13883SOL    HW142227   3.458   2.471   0.789 -0.1871 -1.9107 -2.6836
13883SOL    HW242228   3.394   2.341   0.834 -0.0386 -0.7172  1.4279
13884SOL     OW42229   5.770   7.885   3.351 -0.1364  0.4241  0.0425
13884SOL    HW142230   5.746   7.913   3.263 -1.3942 -3.6036 -1.0934
13884SOL    HW242231   5.853   7.839   3.340 -0.1982  0.0458  1.0223
13885SOL     OW42232   6.298   3.496   7.999  0.1313  0.0958  0.5224
13885SOL    HW142233   6.220   3.515   7.946  2.5426 -0.3252 -3.5866
13885SOL    HW242234   6.337   3.582   8.015  1.4442  0.1134 -2.1171
13886SOL     OW42235   7.874   0.358   6.565 -0.6559 -0.0388 -0.1869
13886SOL    HW142236   7.959   0.400   6.551 -1.7129  1.8321 -1.4174
13886SOL    HW242237   7.885   0.307   6.646  1.4845  0.4972 -0.0919
13887SOL     OW42238   7.161   9.917   3.197  0.2545  0.4510  0.3978
13887SOL    HW142239   7.140   9.824   3.189 -0.7787  0.6362  0.7832
13887SOL    HW242240   7.253   9.923   3.173 -0.1135 -0.4184 -1.4562
13888SOL     OW42241   0.675   0.338   6.326  0.8862 -0.1334 -0.2553
13888SOL    HW142242   0.730   0.279   6.378  0.8033 -0.0557 -0.0773
13888SOL    HW242243   0.695   0.425   6.359 -0.2033 -0.2026  0.6288
13889SOL     OW42244   0.152   1.032   5.671  0.4454  0.7549  0.0060
13889SOL    HW142245   0.178   0.983   5.749  1.5399  2.0477  0.5072
13889SOL    HW242246   0.177   0.977   5.597  1.8459  0.6378  0.5469
13890SOL     OW42247   9.038   9.425   3.809  0.6483  0.3976 -0.5596
13890SOL    HW142248   9.025   9.383   3.894  2.1025  1.2523  0.1261
13890SOL    HW242249   9.126   9.396   3.782  2.0878  3.5330  0.3330
13891SOL     OW42250   5.057   2.419   5.071 -0.4132 -0.1113 -0.6101
13891SOL    HW142251   5.092   2.406   5.159 -0.6882  1.1282 -0.3030
13891SOL    HW242252   4.982   2.359   5.066  0.4539 -1.2407 -0.5290
13892SOL     OW42253   0.625   4.331   9.139 -0.2518 -0.2990 -0.0377
13892SOL    HW142254   0.540   4.370   9.159 -0.6196 -2.0450  2.2786
13892SOL    HW242255   0.605   4.254   9.085 -0.3560 -1.3922  1.4748
13893SOL     OW42256   1.996   8.184   6.364  0.4372 -0.0635  0.2672
13893SOL    HW142257   2.053   8.209   6.291  0.8032  1.9008  1.1736
13893SOL    HW242258   1.934   8.122   6.325 -0.2726  1.9701 -2.1164
13894SOL     OW42259   1.326   3.288   4.858  0.0301  0.0412  0.2592
13894SOL    HW142260   1.354   3.351   4.791 -0.9800  0.3655  0.1246
13894SOL    HW242261   1.321   3.339   4.938 -3.1448  0.7985 -0.2974
13895SOL     OW42262   9.358   3.255   1.809  0.2342  0.0190 -0.6041
13895SOL    HW142263   9.302   3.245   1.732 -0.9495 -0.8426  0.3234
13895SOL    HW242264   9.349   3.172   1.856 -0.1720  0.9912  1.1450
13896SOL     OW42265   9.081   0.160   7.993 -0.3647 -0.2364  0.0264
13896SOL    HW142266   9.040   0.149   8.079 -1.0900 -2.0504 -0.5114
13896SOL    HW242267   9.069   0.252   7.972 -1.7320 -0.1487  1.1052
13897SOL     OW42268   6.670   1.635   5.048  0.5233 -0.5371  0.1833
13897SOL    HW142269   6.607   1.680   5.105 -0.2436 -2.4679  0.9801
13897SOL    HW242270   6.663   1.680   4.964  1.9058  2.6158  1.5961
13898SOL     OW42271   5.343   5.800   0.803 -0.5176  0.3862  0.2436
13898SOL    HW142272   5.408   5.739   0.837  1.2067  0.8855 -1.9625
13898SOL    HW242273   5.331   5.864   0.874 -1.8169 -1.9777  2.3062
13899SOL     OW42274   7.373   3.109   4.656 -0.2985 -0.3086  0.3806
13899SOL    HW142275   7.421   3.125   4.574 -0.1117 -0.0302  0.5446
13899SOL    HW242276   7.287   3.079   4.627 -0.8440  1.4797  0.0664
13900SOL     OW42277   0.403   1.525   5.358 -0.0705 -0.1276 -0.4909
13900SOL    HW142278   0.459   1.515   5.281  0.6749 -0.7155  0.1086
13900SOL    HW242279   0.324   1.567   5.325  0.7127  0.7070 -1.3712
13901SOL     OW42280   7.516   4.936   7.055 -0.5154  0.3595  0.2915
13901SOL    HW142281   7.451   4.960   7.121 -0.3109 -0.9804  1.0304
13901SOL    HW242282   7.480   4.858   7.013 -0.5055  1.0378 -1.0046
13902SOL     OW42283   9.783   0.013   1.785 -0.4730  0.2520 -0.4084
13902SOL    HW142284   9.697   0.049   1.764 -0.3849  0.7614  0.0798
13902SOL    HW242285   9.769  -0.042   1.862 -0.6094 -0.8035 -1.1586
13903SOL     OW42286   2.691   4.028   9.705  0.0314  0.2462 -0.4182
13903SOL    HW142287   2.720   4.043   9.615  1.0770 -0.4037 -0.2115
13903SOL    HW242288   2.772   4.029   9.756 -0.5040  0.1108  0.4449
13904SOL     OW42289   6.147   1.882   4.578 -0.4356  0.2018 -0.6819
13904SOL    HW142290   6.124   1.822   4.649  0.0373 -0.8798 -1.4170
13904SOL    HW242291   6.088   1.956   4.589 -1.2122 -0.5123  0.0967
13905SOL     OW42292   0.562   6.787   0.318  0.2302  0.0314 -0.3510
13905SOL    HW142293   0.481   6.822   0.356 -1.3570 -1.0305 -2.5794
13905SOL    HW242294   0.570   6.699   0.355 -0.5606 -0.4839 -1.3807
13906SOL     OW42295   8.964   1.663   4.208  0.4083  0.3844 -0.0324
13906SOL    HW142296   8.942   1.754   4.229  0.7967  0.5151 -0.1859
13906SOL    HW242297   9.047   1.647   4.252 -0.0064 -0.1240  0.5823
13907SOL     OW42298   3.009   6.599   3.942  0.6876 -0.6250  0.0711
13907SOL    HW142299   2.919   6.617   3.969  0.5086  2.1995 -1.9534
13907SOL    HW242300   3.059   6.675   3.972  2.3558 -1.9274  0.7658
13908SOL     OW42301   7.418   9.406   6.636  0.3056 -0.1599  0.1244
13908SOL    HW142302   7.462   9.459   6.702  0.5838  1.6367 -1.4547
13908SOL    HW242303   7.388   9.468   6.570 -1.4946 -1.7115 -0.6185
13909SOL     OW42304   6.075   0.730   9.860 -0.0325 -0.0096 -0.2185
13909SOL    HW142305   6.042   0.699   9.945  1.4922 -0.0344  0.3914
13909SOL    HW242306   6.097   0.822   9.875 -1.9724  0.6735 -1.2688
13910SOL     OW42307   7.290   1.945   3.058  0.6905 -1.2791 -0.1394
13910SOL    HW142308   7.361   1.972   3.000 -0.3636 -0.4823 -1.1171
13910SOL    HW242309   7.248   1.872   3.012  0.5930 -1.4333  0.1970
13911SOL     OW42310   9.135   8.759   1.699 -0.6434 -0.0263 -0.6335
13911SOL    HW142311   9.082   8.687   1.733  0.2936  0.2965  1.7525
13911SOL    HW242312   9.179   8.722   1.622 -1.3203 -1.5149 -0.3391
13912SOL     OW42313   0.448   0.613   5.391 -0.3148  0.0341 -0.3223
13912SOL    HW142314   0.381   0.564   5.439  1.0249 -2.2525 -0.6312
13912SOL    HW242315   0.432   0.705   5.414 -0.8459 -0.7659  3.1007
13913SOL     OW42316   6.086   4.331   6.638  0.4988  0.3492  0.4863
13913SOL    HW142317   6.027   4.406   6.638  1.3015  1.0189 -0.8463
13913SOL    HW242318   6.042   4.265   6.583 -0.0550 -0.0480  1.3904
13914SOL     OW42319   0.753   6.895   3.563  0.0021  0.0079 -0.2302
13914SOL    HW142320   0.674   6.946   3.578 -0.6740 -0.8298 -0.8029
13914SOL    HW242321   0.801   6.900   3.646 -1.5775 -1.0378  0.8220
13915SOL     OW42322   9.867   0.830   7.598  0.2818 -0.8380  0.3847
13915SOL    HW142323   9.893   0.918   7.570  1.6298 -1.5647 -0.7407
13915SOL    HW242324   9.940   0.798   7.650 -0.7073 -0.8832  1.8169
13916SOL     OW42325   6.996   4.137   0.970  0.3380  0.2686  1.0589
13916SOL    HW142326   6.905   4.126   0.941  0.6858 -0.4631  0.2033
13916SOL    HW242327   7.048   4.098   0.900  1.3909  1.8911  0.8971
13917SOL     OW42328   5.890   3.572   3.111  0.0758  0.2784  0.5228
13917SOL    HW142329   5.930   3.655   3.138  0.6631 -0.3172  1.5780
13917SOL    HW242330   5.963   3.510   3.111  0.2843  0.3275 -3.1770
13918SOL     OW42331   3.435   6.487   1.503 -0.3202 -0.1800  0.0631
13918SOL    HW142332   3.513   6.538   1.524  1.1938 -1.3551 -2.2932
13918SOL    HW242333   3.435   6.415   1.566 -0.1541  0.4272  0.7693
13919SOL     OW42334   9.133   0.200   1.034 -0.0303  0.4939 -0.2632
13919SOL    HW142335   9.191   0.212   0.959 -0.1705 -0.9178 -0.6240
13919SOL    HW242336   9.048   0.232   1.003 -0.0703 -0.0087 -0.6967
13920SOL     OW42337   5.067   3.632   9.491 -0.0695 -0.7926  0.2929
13920SOL    HW142338   4.972   3.632   9.502 -0.2896 -1.2267 -1.3360
13920SOL    HW242339   5.093   3.723   9.507 -1.0000 -0.2889 -0.9117
13921SOL     OW42340   2.776   2.600   4.197  0.4552 -0.0349 -0.0130
13921SOL    HW142341   2.805   2.674   4.144  0.3994 -0.4395 -0.6300
13921SOL    HW242342   2.771   2.634   4.286 -1.0740  1.1271 -0.5034
13922SOL     OW42343   8.919   3.966   1.816 -0.1604  0.5263 -0.3064
13922SOL    HW142344   8.974   4.044   1.805  0.1636  0.7844  2.4238
13922SOL    HW242345   8.970   3.909   1.873  0.5865 -2.8191 -3.8623
13923SOL     OW42346   0.761   4.382   3.607 -0.5888 -0.8692 -0.4956
13923SOL    HW142347   0.804   4.316   3.662 -3.1658 -1.4495  1.0000
13923SOL    HW242348   0.781   4.465   3.650  1.2704 -0.7789 -1.4286
13924SOL     OW42349   4.782   1.522   9.877 -0.3471 -0.5628  0.6092
13924SOL    HW142350   4.689   1.510   9.900 -0.5290  1.0160  0.8047
13924SOL    HW242351   4.785   1.608   9.834  0.8415 -1.1664 -0.5606
13925SOL     OW42352   4.592   7.019   2.818 -0.0482 -0.2666 -0.3083
13925SOL    HW142353   4.497   7.032   2.813 -0.1187 -0.8803 -0.6410
13925SOL    HW242354   4.616   6.984   2.733  0.3195 -1.0905  0.1275
13926SOL     OW42355   2.620   5.933   4.862 -0.0957  0.1693 -0.3871
13926SOL    HW142356   2.688   5.866   4.875 -1.5252 -1.3357 -0.3779
13926SOL    HW242357   2.653   5.987   4.790  0.2251 -1.7495 -1.7486
13927SOL     OW42358   8.879   5.445   5.821 -0.0265  0.4306  0.4907
13927SOL    HW142359   8.829   5.383   5.769 -3.1373  1.9279  1.4473
13927SOL    HW242360   8.952   5.471   5.765 -0.5780 -1.5015 -1.2156
13928SOL     OW42361   7.875   4.580   0.980 -0.0854  0.3390 -0.3269
13928SOL    HW142362   7.956   4.566   0.931  1.0931 -1.5733  2.0019
13928SOL    HW242363   7.877   4.515   1.049 -3.7191  0.1407 -0.2370
13929SOL     OW42364   6.666   3.997   2.982 -0.1440 -0.4357 -0.4167
13929SOL    HW142365   6.662   4.088   3.010  1.3668 -0.4821  0.0562
13929SOL    HW242366   6.679   3.948   3.064  1.6931 -0.8097 -0.8879
13930SOL     OW42367   2.747   3.367   2.771 -0.5676  0.0185  0.1783
13930SOL    HW142368   2.825   3.320   2.743 -1.3832 -1.7907  0.7667
13930SOL    HW242369   2.716   3.412   2.693  2.1005  2.4179  0.3638
13931SOL     OW42370   6.812   0.744   9.199  0.2924  0.0578 -0.1574
13931SOL    HW142371   6.725   0.725   9.233  0.6197 -0.7481  0.2566
13931SOL    HW242372   6.837   0.666   9.151  1.1272 -0.0637  0.4526
13932SOL     OW42373   1.861   6.205   4.585 -0.1724  0.0832  0.0616
13932SOL    HW142374   1.920   6.224   4.658  0.0649 -0.2712 -0.0326
13932SOL    HW242375   1.796   6.275   4.587  0.8068  1.0271 -0.4110
13933SOL     OW42376   9.750   2.259   6.816  0.1048  0.1701  0.0130
13933SOL    HW142377   9.697   2.261   6.736  1.4723  0.8938 -0.9200
13933SOL    HW242378   9.767   2.166   6.831  0.1474  0.0365 -0.7800
13934SOL     OW42379   5.141   8.325   0.691 -0.1026 -0.0570  0.0444
13934SOL    HW142380   5.121   8.375   0.611 -1.1771  0.6384  0.7185
13934SOL    HW242381   5.084   8.249   0.686 -1.1849  0.6803  0.7851
13935SOL     OW42382   5.897   6.733   9.089 -0.8306  0.8005  0.0722
13935SOL    HW142383   5.973   6.750   9.144 -0.1713 -0.5371 -0.3929
13935SOL    HW242384   5.928   6.748   9.000 -1.0802  0.1467 -0.1268
13936SOL     OW42385   6.865   2.450   9.193 -0.4022  0.4002  0.1619
13936SOL    HW142386   6.776   2.442   9.158 -1.7429 -0.1268  3.2922
13936SOL    HW242387   6.852   2.477   9.284  2.6086 -0.5397  0.9925
13937SOL     OW42388   2.378   6.858   7.032 -0.3453  0.2935  0.0949
13937SOL    HW142389   2.315   6.818   7.092  1.2917 -0.0913  1.6632
13937SOL    HW242390   2.336   6.854   6.946 -2.6729  0.6151  1.1393
13938SOL     OW42391   1.762   8.020   5.295  0.5649  0.2305 -0.1325
13938SOL    HW142392   1.675   8.051   5.268  0.1966  1.2075  1.9934
13938SOL    HW242393   1.817   8.098   5.290  0.8889  0.0247  0.2177
13939SOL     OW42394   5.252   4.901   8.366 -0.1637 -0.4739  0.2112
13939SOL    HW142395   5.237   4.828   8.306 -2.0005 -0.6020  0.7574
13939SOL    HW242396   5.304   4.964   8.315 -1.1801 -0.8274 -1.3388
13940SOL     OW42397   1.206   5.471   8.077 -0.2216 -0.6141 -0.5868
13940SOL    HW142398   1.137   5.454   8.142  0.3573 -0.1621  0.1613
13940SOL    HW242399   1.273   5.405   8.097 -0.0200 -0.4395 -0.6943
13941SOL     OW42400   8.011   5.159   9.620 -0.0480 -0.4022 -0.1934
13941SOL    HW142401   7.977   5.209   9.546 -0.1701 -1.7086 -1.0527
13941SOL    HW242402   7.949   5.175   9.690  0.3091  1.2142 -0.2000
13942SOL     OW42403   5.923   8.133   1.080 -0.3169  0.6909  0.3287
13942SOL    HW142404   6.011   8.158   1.109 -0.0182  0.9526 -0.7784
13942SOL    HW242405   5.920   8.159   0.988 -0.7010 -1.5322 -0.3271
13943SOL     OW42406   8.762   7.966   8.045  0.3316  0.3713  0.2244
13943SOL    HW142407   8.848   7.965   8.088  0.6658 -0.1137 -0.4417
13943SOL    HW242408   8.740   7.874   8.033  0.7650  0.4757 -1.6447
13944SOL     OW42409   0.055   2.946   3.146  0.1374 -0.0300  0.2791
13944SOL    HW142410   0.093   2.859   3.161  1.3252  0.5492  0.7605
13944SOL    HW242411   0.010   2.939   3.062  0.9431 -0.8752 -0.0944
13945SOL     OW42412   5.630   9.737   5.935 -0.2484  0.0319  0.0386
13945SOL    HW142413   5.595   9.728   6.023  0.6920  0.7005  0.4982
13945SOL    HW242414   5.706   9.794   5.945 -1.9096  2.8028 -1.6301
13946SOL     OW42415   9.465   7.652   0.035 -0.6055  0.1437  0.5831
13946SOL    HW142416   9.396   7.686  -0.022 -0.9033  0.2014  0.9769
13946SOL    HW242417   9.497   7.728   0.082  2.0588  0.8083 -1.9538
13947SOL     OW42418   2.942   9.201   3.116 -0.3539  0.6312 -0.0921
13947SOL    HW142419   2.941   9.115   3.074  0.4418 -0.1783  1.4605
13947SOL    HW242420   2.993   9.256   3.056 -2.2104  0.5021 -1.8832
13948SOL     OW42421   8.149   0.446   6.569  0.3090  0.5230  0.2664
13948SOL    HW142422   8.236   0.425   6.601  0.2066  1.6804  1.3400
13948SOL    HW242423   8.152   0.423   6.476  0.8491 -2.1556  0.8557
13949SOL     OW42424   4.479   4.260   7.081 -0.0298  0.3371 -0.6290
13949SOL    HW142425   4.473   4.350   7.049  0.0952  0.2028 -1.0341
13949SOL    HW242426   4.511   4.268   7.171  1.1286  0.6384 -1.0495
13950SOL     OW42427   4.375   5.994   0.567 -0.4728  0.4564  0.0170
13950SOL    HW142428   4.458   6.040   0.552 -1.2626  1.7277 -0.6491
13950SOL    HW242429   4.351   5.960   0.480 -0.6240  0.0213  0.2250
13951SOL     OW42430   7.724   7.941   8.054  0.6114  0.0495  0.1232
13951SOL    HW142431   7.759   7.877   7.992  0.0814  1.0357 -1.2369
13951SOL    HW242432   7.766   8.023   8.030 -1.6497  1.0190 -0.7800
13952SOL     OW42433   0.110   6.615   2.940  0.5743  0.0255  0.3043
13952SOL    HW142434   0.127   6.605   2.846 -1.4622 -0.8988 -0.0255
13952SOL    HW242435   0.134   6.531   2.978  2.0106  0.6102  0.7554
13953SOL     OW42436   5.393   0.167   1.056  0.1542 -0.0681  0.3699
13953SOL    HW142437   5.319   0.107   1.061  0.4958 -0.5295 -0.0186
13953SOL    HW242438   5.369   0.229   0.987 -0.2748  0.3575  0.8915
13954SOL     OW42439   7.744   7.491   5.011  0.1288  0.1809  0.0241
13954SOL    HW142440   7.751   7.434   4.934 -0.9884  0.3181 -0.1934
13954SOL    HW242441   7.658   7.472   5.047 -0.4264  1.9635 -0.2551
13955SOL     OW42442   2.285   8.300   1.000  0.2323 -0.3691  0.1220
13955SOL    HW142443   2.286   8.209   0.969 -0.8561 -0.0354 -0.9803
13955SOL    HW242444   2.305   8.352   0.922  1.5803  0.3392  0.8949
13956SOL     OW42445   6.194   2.700   4.160 -0.0964  0.0176  0.4430
13956SOL    HW142446   6.173   2.729   4.249  0.8718 -2.8063  1.7280
13956SOL    HW242447   6.289   2.697   4.158 -0.1314 -0.6277 -0.4366
13957SOL     OW42448   9.918   8.875   4.314  0.3265 -0.6057 -0.1058
13957SOL    HW142449   9.834   8.918   4.301 -0.5870 -2.3182 -0.2084
13957SOL    HW242450   9.951   8.909   4.397  0.3565  1.3098 -0.8517
13958SOL     OW42451   9.601   8.110   6.321 -0.5605  0.4257  0.2096
13958SOL    HW142452   9.634   8.034   6.369  0.4579  0.9019  0.2998
13958SOL    HW242453   9.675   8.139   6.268 -1.5816  0.0625 -1.4866
13959SOL     OW42454   0.382   7.312   9.722 -0.0643 -0.4566 -0.6083
13959SOL    HW142455   0.324   7.381   9.752  0.3263  0.9194 -2.8032
13959SOL    HW242456   0.333   7.266   9.653  0.3801 -1.1772 -0.4625
13960SOL     OW42457   5.446   0.141   9.343  0.1559  0.0517  0.0502
13960SOL    HW142458   5.484   0.169   9.426  0.6233 -1.7417  0.4850
13960SOL    HW242459   5.484   0.054   9.327 -1.6502 -0.6092 -0.9117
13961SOL     OW42460   1.056   3.580   4.722  0.2010 -0.7378  0.0175
13961SOL    HW142461   1.105   3.533   4.789 -1.5137 -0.5881  1.4406
13961SOL    HW242462   1.014   3.652   4.768 -0.4254 -0.1699 -1.3688
13962SOL     OW42463   6.654   6.225   0.970 -0.7409 -0.2606 -0.0203
13962SOL    HW142464   6.653   6.279   0.891 -4.6922  1.6265  1.0663
13962SOL    HW242465   6.623   6.139   0.939 -0.6717 -0.0315 -0.7576
13963SOL     OW42466   1.301   3.384   1.107 -0.1713 -0.0327  0.5661
13963SOL    HW142467   1.347   3.458   1.147  0.1631  1.8707 -2.9052
13963SOL    HW242468   1.208   3.405   1.117 -0.1580 -0.3960  1.6090
13964SOL     OW42469   5.587   4.107   3.583 -0.1501 -0.0896  0.3033
13964SOL    HW142470   5.550   4.026   3.619 -1.4803  0.4715  0.2717
13964SOL    HW242471   5.556   4.108   3.492 -1.2372  1.0558  0.6574
13965SOL     OW42472   6.284   5.342   3.421  0.1557  0.2199 -0.2027
13965SOL    HW142473   6.345   5.376   3.486  0.8901  1.7415 -1.5968
13965SOL    HW242474   6.208   5.314   3.472  0.0658  2.7426  1.2421
13966SOL     OW42475   7.465   4.790   6.684 -0.7998  0.1152  0.3709
13966SOL    HW142476   7.376   4.759   6.695 -0.1886 -2.0384 -0.3787
13966SOL    HW242477   7.468   4.826   6.596 -0.3095 -2.3358 -0.6978
13967SOL     OW42478   1.643   5.609   3.597 -0.4731  0.0537 -0.6265
13967SOL    HW142479   1.623   5.697   3.628  0.1717  0.6119 -1.7399
13967SOL    HW242480   1.711   5.578   3.656 -0.4811  0.4226 -0.4206
13968SOL     OW42481   3.734   0.798   3.968  0.1852 -0.2672 -0.3524
13968SOL    HW142482   3.764   0.709   3.984  2.1303  0.6923  1.9593
13968SOL    HW242483   3.747   0.812   3.874  2.3366 -1.5769 -0.2908
13969SOL     OW42484   2.390   3.725   7.543  0.2742 -0.1192 -0.2926
13969SOL    HW142485   2.304   3.767   7.542  0.4786  0.2872 -0.8225
13969SOL    HW242486   2.433   3.762   7.621 -0.2412 -0.7620  0.3078
13970SOL     OW42487   5.134   2.336   6.897 -0.6411  0.1248 -1.0255
13970SOL    HW142488   5.167   2.292   6.975  2.0580 -0.4153 -2.3803
13970SOL    HW242489   5.040   2.316   6.897 -0.5943 -0.4920  1.6304
13971SOL     OW42490   3.398   4.804   9.049  0.1580 -0.5630  0.0985
13971SOL    HW142491   3.341   4.851   9.110  1.3811 -0.8165  1.5103
13971SOL    HW242492   3.421   4.723   9.096  0.4707 -1.1648 -1.0557
13972SOL     OW42493   6.065   7.558   5.496  0.2900  0.4045 -0.2379
13972SOL    HW142494   6.045   7.605   5.577 -0.1429 -0.1394 -0.0252
13972SOL    HW242495   6.117   7.620   5.445  0.7777  0.6654  0.5535
13973SOL     OW42496   1.879   1.419   9.854 -0.2849  0.1885 -0.2345
13973SOL    HW142497   1.900   1.510   9.871  0.3630 -0.1860  1.0845
13973SOL    HW242498   1.902   1.406   9.762 -0.3031  1.3258 -0.4097
13974SOL     OW42499   4.279   9.769   2.393  0.4055  0.2461 -0.1432
13974SOL    HW142500   4.191   9.760   2.429  0.7482 -1.4304  0.3381
13974SOL    HW242501   4.314   9.847   2.436 -0.2058 -0.1011  1.0193
13975SOL     OW42502   8.788   8.040   3.036 -0.0485  0.3077  0.2109
13975SOL    HW142503   8.765   7.962   2.987  2.5328  0.2854 -1.1732
13975SOL    HW242504   8.745   8.112   2.989  0.6174  0.0556 -0.8295
13976SOL     OW42505   2.087   6.522   7.868 -0.3658 -0.2008 -0.1649
13976SOL    HW142506   2.116   6.582   7.937  0.3803 -2.1433  1.2887
13976SOL    HW242507   2.157   6.457   7.862  0.3196  0.6386 -3.8279
13977SOL     OW42508   2.699   1.299   3.712 -0.4608  0.0424 -0.1372
13977SOL    HW142509   2.627   1.309   3.650  0.1221  0.4096 -0.7698
13977SOL    HW242510   2.758   1.236   3.671 -0.5823 -0.5175  0.5331
13978SOL     OW42511   1.924   8.655   7.584  0.4108 -0.4001 -0.3911
13978SOL    HW142512   1.872   8.698   7.516 -0.0272 -0.6685 -0.2300
13978SOL    HW242513   1.896   8.564   7.582  1.3535 -0.6893 -0.7423
13979SOL     OW42514   2.204   9.016   3.944 -0.0955  0.1517  0.4353
13979SOL    HW142515   2.186   8.922   3.939  1.3693 -0.2537  2.0609
13979SOL    HW242516   2.298   9.023   3.929  0.0224  1.2410  1.5787
13980SOL     OW42517   2.566   5.722   9.938 -0.4620  0.0567 -0.3279
13980SOL    HW142518   2.629   5.719  10.010 -1.3623 -2.4823  0.4550
13980SOL    HW242519   2.487   5.683   9.974 -2.6275  3.2014 -1.2647
13981SOL     OW42520   5.711   8.745   0.222  0.2222  0.7312 -0.2168
13981SOL    HW142521   5.782   8.761   0.284  0.4831 -0.8110 -0.0691
13981SOL    HW242522   5.631   8.752   0.274  0.2987  1.6600 -0.2079
13982SOL     OW42523   3.325   3.872   8.507  0.1614  0.1943 -0.0128
13982SOL    HW142524   3.234   3.849   8.524  0.6446 -1.7962  0.1558
13982SOL    HW242525   3.364   3.791   8.475  1.9742  0.9003  0.3062
13983SOL     OW42526   3.300   7.840   4.159 -0.3641  0.3199  0.1790
13983SOL    HW142527   3.369   7.903   4.181 -3.2482  2.7359  3.2166
13983SOL    HW242528   3.313   7.768   4.222 -0.6001  0.7657  0.7421
13984SOL     OW42529   2.500   7.292   6.339  0.8362  0.3336  0.5864
13984SOL    HW142530   2.501   7.344   6.419  1.6025 -0.4729  1.1246
13984SOL    HW242531   2.582   7.316   6.295  0.4400  0.7383  0.0542
13985SOL     OW42532   8.292   1.186   3.159  0.2355 -0.5934 -0.4261
13985SOL    HW142533   8.215   1.159   3.109  0.7739 -0.0990 -1.5666
13985SOL    HW242534   8.307   1.115   3.222 -1.1112 -0.7156 -0.2265
13986SOL     OW42535   7.102   7.535   9.992 -0.6468 -0.1708  0.3833
13986SOL    HW142536   7.113   7.514   9.899  0.1562 -0.2693  0.4910
13986SOL    HW242537   7.031   7.478  10.021 -0.5610 -0.5111 -0.0552
13987SOL     OW42538   5.062   2.011   8.386 -0.1837 -0.3743  0.0605
13987SOL    HW142539   5.066   2.026   8.292 -2.4994  2.5097  0.2789
13987SOL    HW242540   5.119   2.078   8.424 -0.7416 -0.2704  0.7465
13988SOL     OW42541   4.484   6.949   5.633 -0.3804  0.3703  0.6952
13988SOL    HW142542   4.574   6.923   5.650 -0.8074 -0.8458  1.2167
13988SOL    HW242543   4.437   6.928   5.714 -0.8138  2.6958  1.1176
13989SOL     OW42544   0.046   8.102   2.136 -0.1440 -0.1087 -0.3201
13989SOL    HW142545  -0.048   8.083   2.136 -0.1208 -0.9351  2.9430
13989SOL    HW242546   0.051   8.197   2.129 -1.0918 -0.1696 -2.2678
13990SOL     OW42547   4.244   1.818   0.924 -0.1794 -0.0716  0.1051
13990SOL    HW142548   4.191   1.844   0.999  0.5308 -1.2484  1.0588
13990SOL    HW242549   4.329   1.860   0.939 -0.5817  1.2136 -1.0357
13991SOL     OW42550   5.972   9.453   9.500 -0.8438  0.3648  0.4409
13991SOL    HW142551   5.959   9.526   9.440  2.0735  0.6602  0.0301
13991SOL    HW242552   5.997   9.494   9.583 -0.8668 -0.1160  0.6889
13992SOL     OW42553   1.413   8.572   4.809 -0.0608 -0.2610 -0.4238
13992SOL    HW142554   1.503   8.584   4.838 -0.4968  2.2926  0.0908
13992SOL    HW242555   1.411   8.608   4.721 -0.5143 -0.6431 -0.5765
13993SOL     OW42556   0.579   1.479   0.848  0.0489  0.3065 -0.0472
13993SOL    HW142557   0.552   1.527   0.927 -0.4310  0.3355 -0.2263
13993SOL    HW242558   0.513   1.410   0.838  0.6316 -0.2850  0.1042
13994SOL     OW42559   1.935   2.463   4.222  0.2975 -0.4425  0.0707
13994SOL    HW142560   1.993   2.504   4.158 -0.4074 -0.2859 -0.4837
13994SOL    HW242561   1.951   2.369   4.213  0.9776 -0.3652  0.4306
13995SOL     OW42562   2.073   7.394   7.536 -0.0307 -0.2624  0.6301
13995SOL    HW142563   2.073   7.342   7.616 -1.8491  0.5048  1.1876
13995SOL    HW242564   2.083   7.485   7.565 -1.9111  0.1557  0.1756
13996SOL     OW42565   1.557   4.702   8.891  0.1301  0.1444 -0.2405
13996SOL    HW142566   1.499   4.764   8.937  1.3674  1.4335 -0.3649
13996SOL    HW242567   1.639   4.749   8.881  0.6587 -1.0111 -1.6436
13997SOL     OW42568   7.025   2.116   5.379  0.7643 -0.6217 -0.0221
13997SOL    HW142569   6.989   2.204   5.383  1.2725 -0.4463  1.5148
13997SOL    HW242570   7.096   2.121   5.315 -1.1917 -0.7417 -2.3458
13998SOL     OW42571   9.209   7.028   3.734 -0.1232 -0.0546 -0.1824
13998SOL    HW142572   9.303   7.019   3.715  0.6977 -1.2037  3.6372
13998SOL    HW242573   9.177   6.938   3.735 -0.5816  0.1088  1.3540
13999SOL     OW42574   8.128   8.717   8.086  0.1634  0.1460  0.1854
13999SOL    HW142575   8.186   8.782   8.046 -0.7990  0.5799 -0.5543
13999SOL    HW242576   8.075   8.768   8.148  1.0632 -0.3767  1.4196
14000SOL     OW42577   9.957   4.038   9.397  0.4473 -0.3797  0.2069
14000SOL    HW142578  10.016   4.034   9.472 -1.2790  2.0037  1.8605
14000SOL    HW242579   9.944   4.132   9.382 -2.1971 -0.7818 -0.6028
14001SOL     OW42580   4.095   1.996   2.240 -0.0981  0.2498  0.4457
14001SOL    HW142581   4.116   2.074   2.189 -0.2164 -0.3657 -0.5782
14001SOL    HW242582   4.175   1.944   2.238 -0.5172 -0.3990 -0.3001
14002SOL     OW42583   3.106   6.148   6.255 -0.1787 -0.4492 -0.2110
14002SOL    HW142584   3.194   6.127   6.285 -0.2680 -1.1588 -0.4378
14002SOL    HW242585   3.053   6.146   6.334  0.0556  0.2849 -0.0249
14003SOL     OW42586   8.275   0.558   0.630 -0.6126  0.2963  0.1483
14003SOL    HW142587   8.298   0.630   0.688 -0.8383 -0.0207  0.6376
14003SOL    HW242588   8.222   0.499   0.684 -0.6505 -0.1070 -0.3178
14004SOL     OW42589   4.390   1.740   7.960 -0.2000 -0.3260 -0.1749
14004SOL    HW142590   4.356   1.720   7.872  1.3132 -0.3387 -0.7840
14004SOL    HW242591   4.474   1.782   7.944 -0.4727  0.8517  1.2558
14005SOL     OW42592   1.730   5.723   0.294 -0.2102  0.0275  0.2812
14005SOL    HW142593   1.705   5.808   0.258 -1.9524 -0.9953 -1.1269
14005SOL    HW242594   1.826   5.721   0.289 -0.1166  2.0409  0.7474
14006SOL     OW42595   5.444   7.257   0.097 -0.5196 -0.4350 -0.3498
14006SOL    HW142596   5.518   7.271   0.038  0.2155  0.4190  0.7469
14006SOL    HW242597   5.457   7.169   0.133  0.4757  0.0624  0.5336
14007SOL     OW42598   1.799   7.587   6.805 -0.5566 -0.0760  0.1360
14007SOL    HW142599   1.736   7.556   6.740 -2.2431 -0.5832  1.9214
14007SOL    HW242600   1.855   7.512   6.822 -2.3214 -1.1099  1.7544
14008SOL     OW42601   3.492   3.959   0.854 -0.2222  0.0923  0.5256
14008SOL    HW142602   3.466   3.867   0.844  2.0673 -0.4508 -1.1034
14008SOL    HW242603   3.436   4.006   0.793 -1.0150 -0.2805  0.9478
14009SOL     OW42604   6.787   8.868   9.192 -0.6468 -0.0443 -0.2547
14009SOL    HW142605   6.834   8.949   9.210 -1.6220  0.2004  1.5404
14009SOL    HW242606   6.839   8.823   9.126  0.4692  1.5631 -0.5211
14010SOL     OW42607   0.369   4.284   8.839 -0.2509  0.1712 -0.4007
14010SOL    HW142608   0.283   4.266   8.802  0.5979 -0.3495 -2.2492
14010SOL    HW242609   0.364   4.251   8.929 -1.4955 -1.3123 -0.9704
14011SOL     OW42610   3.946   5.465   4.292  0.1388  0.6466  0.2043
14011SOL    HW142611   3.943   5.560   4.282 -0.4923  0.7766  1.4059
14011SOL    HW242612   4.018   5.437   4.236 -0.1634  1.7428 -0.7769
14012SOL     OW42613   1.909   7.589   3.981  0.1843 -0.1129 -0.2924
14012SOL    HW142614   1.869   7.621   3.901  1.8833 -0.6276 -1.4085
14012SOL    HW242615   1.836   7.578   4.042 -1.0559  0.9903 -1.5066
14013SOL     OW42616   1.204   6.613   5.937  0.3510 -0.2190 -0.3966
14013SOL    HW142617   1.118   6.620   5.896 -1.1326  0.5484  2.6004
14013SOL    HW242618   1.222   6.700   5.972  2.2842 -0.4190 -0.7625
14014SOL     OW42619   4.305   6.402   5.330  0.3889 -0.3344 -0.2100
14014SOL    HW142620   4.336   6.326   5.379  2.4924  0.2551 -0.5239
14014SOL    HW242621   4.306   6.474   5.394  1.8988  0.1611 -0.7484
14015SOL     OW42622   9.038   7.295   7.471 -0.3918 -0.5656 -0.0199
14015SOL    HW142623   9.098   7.347   7.525  0.9323 -0.0876 -1.8361
14015SOL    HW242624   9.077   7.208   7.470  0.3047 -0.2771 -1.1253
14016SOL     OW42625   7.021   1.763   7.399  0.0150  0.0232  0.2847
14016SOL    HW142626   6.982   1.845   7.367 -1.5684 -0.4171  1.0114
14016SOL    HW242627   7.064   1.726   7.322 -0.3933  0.8948 -0.3793
14017SOL     OW42628   6.814   5.686   5.787 -0.3701 -0.0640 -0.3593
14017SOL    HW142629   6.729   5.675   5.745 -0.9186  2.6355 -0.1473
14017SOL    HW242630   6.852   5.762   5.744  0.3364  0.9677  1.9466
14018SOL     OW42631   9.919   4.004   3.483 -0.1360 -0.0128  0.2506
14018SOL    HW142632   9.891   3.932   3.541  0.4908 -0.4662 -0.0019
14018SOL    HW242633  10.014   4.000   3.485 -0.1039 -0.0750 -0.8632
14019SOL     OW42634   3.770   2.655   2.783  0.3025  0.4041  0.7475
14019SOL    HW142635   3.734   2.732   2.739  0.5501  0.1801  0.1507
14019SOL    HW242636   3.812   2.604   2.714  0.1912 -0.2428  1.1438
14020SOL     OW42637   8.489   5.484   0.521 -0.1715 -0.2516  0.3569
14020SOL    HW142638   8.399   5.461   0.498 -0.5467  2.5382 -1.3770
14020SOL    HW242639   8.480   5.543   0.596  0.1990  0.0449  0.1714
14021SOL     OW42640   7.155   2.222   0.818 -0.0776  0.6566 -0.3726
14021SOL    HW142641   7.090   2.183   0.875 -1.3869  1.3964 -1.3085
14021SOL    HW242642   7.158   2.314   0.844 -0.2303  0.8631 -1.0618
14022SOL     OW42643   7.885   3.212   3.266  0.1119  0.3973  0.3376
14022SOL    HW142644   7.935   3.279   3.312 -0.5263  2.2846 -1.5477
14022SOL    HW242645   7.813   3.190   3.325  1.3194  0.0026  1.7243
14023SOL     OW42646   7.272   4.853   4.234 -0.3167  0.0724 -0.1683
14023SOL    HW142647   7.284   4.946   4.253  0.6275 -0.1838  0.5568
14023SOL    HW242648   7.341   4.809   4.284 -1.2653 -1.0882  0.1597
14024SOL     OW42649   3.250   2.398   4.135 -0.0326  0.0002 -0.0630
14024SOL    HW142650   3.236   2.368   4.225 -2.2146  0.0563 -0.3306
14024SOL    HW242651   3.179   2.357   4.085 -0.1198  1.6239 -1.3525
14025SOL     OW42652   8.523   6.738   4.175  0.0423  0.1093 -0.3030
14025SOL    HW142653   8.481   6.799   4.235  0.8464  1.7738 -1.3643
14025SOL    HW242654   8.616   6.743   4.198  0.0706 -1.1200 -0.0772
14026SOL     OW42655   3.739   1.817   4.440 -0.1565 -0.1796  0.2153
14026SOL    HW142656   3.784   1.854   4.364 -0.7593 -1.8448 -1.0309
14026SOL    HW242657   3.769   1.869   4.514  3.2489 -0.6870 -0.6391
14027SOL     OW42658   5.543   1.951   5.119 -0.9695 -0.2423  0.0221
14027SOL    HW142659   5.502   1.992   5.043 -3.0310  0.4198  1.4223
14027SOL    HW242660   5.565   2.024   5.177 -1.6404 -0.8601  1.0938
14028SOL     OW42661   3.117   1.988   9.488 -0.5683 -0.0822  0.0032
14028SOL    HW142662   3.194   2.030   9.451 -1.6258  2.6494  0.6456
14028SOL    HW242663   3.142   1.964   9.577 -0.5834  1.3075  0.3986
14029SOL     OW42664   2.193   0.227   6.351 -0.2155  0.0095 -0.8423
14029SOL    HW142665   2.228   0.202   6.266  1.8875 -0.9475  0.2379
14029SOL    HW242666   2.263   0.207   6.413 -1.1921  1.8874  0.9852
14030SOL     OW42667   7.851   3.423   5.009 -0.3275 -0.9474  0.8928
14030SOL    HW142668   7.812   3.336   5.011 -0.9185 -0.7642 -0.6885
14030SOL    HW242669   7.797   3.472   4.947  0.1068  0.4974  1.6022
14031SOL     OW42670   8.895   2.591   5.894  0.0879  0.0112  0.4211
14031SOL    HW142671   8.895   2.674   5.942 -2.8218 -0.5245  1.5829
14031SOL    HW242672   8.955   2.605   5.821  0.3312  2.8267  1.0579
14032SOL     OW42673   2.806   2.628   9.430  0.1884 -0.0300 -0.0015
14032SOL    HW142674   2.717   2.661   9.423  0.3543  0.6888  1.0675
14032SOL    HW242675   2.827   2.632   9.523  1.3241 -0.2094 -0.2267
14033SOL     OW42676  -0.008   0.732   6.557  0.0211 -0.1188  0.8096
14033SOL    HW142677   0.067   0.674   6.542 -0.5512 -0.8571  0.7649
14033SOL    HW242678   0.031   0.819   6.566  0.7691 -0.2763 -0.5790
14034SOL     OW42679   2.417   9.285   0.786 -0.0139  0.4699 -0.1852
14034SOL    HW142680   2.401   9.313   0.696  1.3825  1.1755 -0.2413
14034SOL    HW242681   2.354   9.215   0.801 -0.5058  0.5829 -1.5871
14035SOL     OW42682   0.387   6.554   4.429  0.1779  0.2325 -0.0055
14035SOL    HW142683   0.478   6.527   4.416  0.1721 -1.1404  2.2916
14035SOL    HW242684   0.392   6.625   4.492 -0.3867 -0.9209  1.3901
14036SOL     OW42685   5.275   4.124   9.761  0.1158  0.1004 -0.7550
14036SOL    HW142686   5.298   4.134   9.853  0.8028 -0.7263 -0.8258
14036SOL    HW242687   5.356   4.093   9.719 -0.5975 -1.0142 -1.3515
14037SOL     OW42688   0.334   6.728   4.751  0.5288 -0.0930 -0.3126
14037SOL    HW142689   0.288   6.811   4.747 -0.3285 -0.3499  2.2463
14037SOL    HW242690   0.264   6.662   4.748  0.8521 -0.5556  1.4125
14038SOL     OW42691   4.227   8.600   5.976  0.4377  0.3211  0.0289
14038SOL    HW142692   4.229   8.605   5.881  0.8913  2.0872  0.0965
14038SOL    HW242693   4.165   8.668   6.003 -1.6641 -1.7997  0.9544
14039SOL     OW42694   5.978   3.141   7.463 -0.3062  0.5842 -0.1395
14039SOL    HW142695   6.057   3.143   7.408 -0.9802 -0.7659 -1.2199
14039SOL    HW242696   6.010   3.160   7.551  1.3026 -0.2878 -0.4886
14040SOL     OW42697   8.654   1.816   6.304  0.1316 -0.0661 -0.4300
14040SOL    HW142698   8.660   1.722   6.324  1.2725 -0.5096 -2.5320
14040SOL    HW242699   8.560   1.834   6.304 -0.1165 -1.2412 -0.0631
14041SOL     OW42700   2.053   9.178   9.435  0.2174  0.3835 -0.1164
14041SOL    HW142701   2.033   9.259   9.482  1.0518  1.0389 -0.8704
14041SOL    HW242702   2.082   9.118   9.504  1.1598  1.2493  0.2720
14042SOL     OW42703   3.214   7.087   4.061  0.6447 -0.0842  0.3660
14042SOL    HW142704   3.214   7.138   4.142  0.7342  0.4074  0.0589
14042SOL    HW242705   3.276   7.132   4.004  2.5306 -1.8260  0.8935
14043SOL     OW42706   0.182   2.853   5.529 -0.2110  0.3646 -0.0434
14043SOL    HW142707   0.269   2.888   5.513 -0.7745  2.3909  0.8642
14043SOL    HW242708   0.191   2.802   5.609  0.2275  0.2515 -0.1654
14044SOL     OW42709   6.983   4.346   5.212 -0.5069 -0.1347 -0.3300
14044SOL    HW142710   6.887   4.340   5.204 -0.5765  1.1672 -0.8160
14044SOL    HW242711   7.015   4.346   5.122 -0.1486  0.4848 -0.2135
14045SOL     OW42712   9.371   8.888   6.046 -0.1447  0.0904 -0.9671
14045SOL    HW142713   9.386   8.877   5.952  2.0420 -3.2431 -0.4099
14045SOL    HW242714   9.451   8.930   6.078 -0.2462 -0.1062 -0.4442
14046SOL     OW42715   7.642   0.896   9.369  0.1908 -0.6657  0.1044
14046SOL    HW142716   7.609   0.900   9.279 -0.6098  1.7978  0.4342
14046SOL    HW242717   7.729   0.858   9.361  0.1704 -0.4232 -1.7439
14047SOL     OW42718   8.299   1.144   4.068  0.7140  0.0407  0.0078
14047SOL    HW142719   8.246   1.172   4.143 -0.7289 -2.4637  0.0203
14047SOL    HW242720   8.363   1.083   4.104  0.3447 -0.7870 -0.6797
14048SOL     OW42721   1.414   7.063   7.264 -0.0493  0.5631  0.6414
14048SOL    HW142722   1.472   7.059   7.188  0.1466 -0.1952  0.8164
14048SOL    HW242723   1.412   7.156   7.288 -0.7966  0.9388 -0.7913
14049SOL     OW42724   9.227   9.250   7.591 -0.5191  0.2284  0.1679
14049SOL    HW142725   9.184   9.315   7.536  0.4973  0.7317 -0.0568
14049SOL    HW242726   9.216   9.168   7.543 -0.2549  0.5420 -0.4450
14050SOL     OW42727   6.828   9.565   9.344  0.3623  0.2873  0.5007
14050SOL    HW142728   6.821   9.644   9.397 -2.6800  0.2050  0.3733
14050SOL    HW242729   6.744   9.558   9.298  2.1511 -0.5571 -3.0790
14051SOL     OW42730   9.899   0.824   1.689 -0.1633  0.5537 -0.2047
14051SOL    HW142731   9.830   0.769   1.726  0.3576 -0.8505 -1.2010
14051SOL    HW242732   9.902   0.901   1.745 -2.4840  0.6287 -0.1114
14052SOL     OW42733   8.284   1.537   9.399 -0.7287 -0.1718 -0.3468
14052SOL    HW142734   8.203   1.539   9.450 -0.6671 -1.8225 -0.1133
14052SOL    HW242735   8.346   1.489   9.455  0.2709  0.6531 -0.7183
14053SOL     OW42736   7.073   7.981   7.667 -0.2848 -0.0386 -0.4875
14053SOL    HW142737   7.014   8.056   7.663 -0.0618  0.0927 -1.3534
14053SOL    HW242738   7.035   7.925   7.735 -2.1170 -0.5468 -1.8569
14054SOL     OW42739   8.681   1.623   9.880  0.2095 -0.2020 -0.3265
14054SOL    HW142740   8.663   1.531   9.900 -0.9022  0.1374  0.3323
14054SOL    HW242741   8.661   1.669   9.961 -0.5263  0.7703 -1.0410
14055SOL     OW42742   5.667   7.825   9.664  0.0184 -0.9113 -0.1137
14055SOL    HW142743   5.684   7.915   9.637 -1.1607 -0.9654 -1.0780
14055SOL    HW242744   5.655   7.831   9.759  0.9465 -0.2286 -0.0164
14056SOL     OW42745   4.142   4.257   5.160 -0.0357 -0.1102  0.2813
14056SOL    HW142746   4.214   4.301   5.206  0.1928  0.4424 -0.5875
14056SOL    HW242747   4.150   4.287   5.070 -0.6652 -0.9518 -0.0583
14057SOL     OW42748   2.741   1.291   2.519  0.5258 -0.0658 -0.1854
14057SOL    HW142749   2.795   1.343   2.460  1.2624 -1.9182 -1.2111
14057SOL    HW242750   2.656   1.285   2.474  0.0941  1.0337  0.4199
14058SOL     OW42751   6.781   0.335   3.458 -0.5699 -0.4996  0.4793
14058SOL    HW142752   6.811   0.245   3.460  0.7691 -0.0706  0.7519
14058SOL    HW242753   6.779   0.358   3.365  1.1381 -0.1814  0.4975
14059SOL     OW42754   9.160   7.797   3.570  0.0878  0.6546  0.2712
14059SOL    HW142755   9.183   7.817   3.479  0.5712 -0.8625  0.0347
14059SOL    HW242756   9.068   7.771   3.567  0.4514 -0.6342  0.0004
14060SOL     OW42757   1.529   7.661   3.968 -0.9578 -0.2620  0.8669
14060SOL    HW142758   1.573   7.618   4.041 -1.0837 -2.9444 -0.4792
14060SOL    HW242759   1.599   7.677   3.904 -1.2799 -0.8408  0.3483
14061SOL     OW42760   7.843   6.027   5.775  0.5111 -0.2355 -0.0680
14061SOL    HW142761   7.841   6.122   5.784  3.4541 -0.1282  0.4814
14061SOL    HW242762   7.914   6.011   5.713 -0.2019 -2.0845 -0.4650
14062SOL     OW42763   8.444   8.610   2.425  0.0359  0.1520  0.7617
14062SOL    HW142764   8.420   8.591   2.516  0.2783 -1.4269  0.5304
14062SOL    HW242765   8.384   8.679   2.398 -1.7529 -1.0958  1.3530
14063SOL     OW42766   4.515   3.859   8.946  0.4666  0.0337 -0.0743
14063SOL    HW142767   4.567   3.859   8.866  0.3368 -0.5930 -0.1619
14063SOL    HW242768   4.528   3.947   8.983  1.3428 -0.0037 -0.2563
14064SOL     OW42769   6.814   5.133   5.985 -0.2954  0.1062 -0.1610
14064SOL    HW142770   6.842   5.124   5.894 -1.3585  1.3048 -0.6390
14064SOL    HW242771   6.841   5.222   6.009  0.6924 -0.4695  0.9750
14065SOL     OW42772  10.008   0.449   1.303 -0.4467  0.9126 -0.0342
14065SOL    HW142773   9.964   0.519   1.255 -0.4714 -0.4129 -2.0668
14065SOL    HW242774   9.954   0.435   1.381 -2.4536  0.7921 -1.3863
14066SOL     OW42775   9.374   5.770   5.480  0.2878 -0.2386  0.1401
14066SOL    HW142776   9.358   5.676   5.478 -0.7770 -0.0600 -0.0850
14066SOL    HW242777   9.452   5.782   5.426 -0.6297 -0.7977 -1.3637
14067SOL     OW42778   7.048   3.837   0.359 -0.1717 -0.1861  0.0819
14067SOL    HW142779   7.121   3.835   0.420 -0.7923 -2.2162  0.8609
14067SOL    HW242780   7.059   3.918   0.310  2.5969 -0.4365  0.1511
14068SOL     OW42781   0.342   9.070   5.773  0.5257 -0.6335 -0.1176
14068SOL    HW142782   0.366   8.977   5.763 -1.2513 -1.5291  2.8855
14068SOL    HW242783   0.367   9.091   5.863  1.2608  1.9922 -0.8668
14069SOL     OW42784   4.069   5.084   5.528 -0.1361 -0.1776  0.1661
14069SOL    HW142785   4.137   5.121   5.583 -1.7976  1.9997  0.9184
14069SOL    HW242786   4.103   5.093   5.439  0.4397  1.2293  0.4907
14070SOL     OW42787   1.039   3.978   5.619  0.2778 -0.4870  0.1856
14070SOL    HW142788   0.956   3.931   5.630  0.2480 -0.9379 -1.6460
14070SOL    HW242789   1.081   3.972   5.704 -0.2311 -2.8999  0.3384
14071SOL     OW42790   2.480   8.559   2.323 -0.0474  0.1458 -0.2143
14071SOL    HW142791   2.476   8.464   2.337 -1.1871  0.1272 -0.5347
14071SOL    HW242792   2.390   8.589   2.334  0.1360  1.0656 -0.9910
14072SOL     OW42793   4.081   2.638   6.045  0.2381 -0.3258 -0.3764
14072SOL    HW142794   4.120   2.551   6.035 -0.3706 -0.4349 -2.1561
14072SOL    HW242795   4.149   2.698   6.013  0.8738 -0.0520  1.3635
14073SOL     OW42796   8.291   3.831   2.198  0.3641  0.3698 -0.5087
14073SOL    HW142797   8.345   3.795   2.128 -0.1792 -0.1835 -0.6541
14073SOL    HW242798   8.299   3.768   2.270  1.2024  1.1145  0.0693
14074SOL     OW42799   8.774   6.209   3.611 -0.1924 -0.3760  0.6766
14074SOL    HW142800   8.833   6.219   3.537  0.1626  0.4503  1.0631
14074SOL    HW242801   8.706   6.149   3.579 -0.0429 -0.0372 -0.3147
14075SOL     OW42802   6.990   5.571   4.030  0.2673  0.7215 -0.4669
14075SOL    HW142803   6.964   5.542   3.943 -1.4476  1.4504 -0.2503
14075SOL    HW242804   6.998   5.491   4.081  1.2888  0.2879 -1.2825
14076SOL     OW42805   9.399   7.178   4.095  0.4522  0.4458  0.2730
14076SOL    HW142806   9.428   7.201   4.183  1.5875  0.2534 -0.0361
14076SOL    HW242807   9.464   7.116   4.063  0.5392  1.1649 -1.0258
14077SOL     OW42808   4.322   8.798   6.223 -0.7618 -0.0445 -0.2645
14077SOL    HW142809   4.374   8.825   6.299  0.7998  3.0935 -2.1997
14077SOL    HW242810   4.375   8.730   6.181  1.3191  2.1389 -1.4472
14078SOL     OW42811   5.469   1.477   0.369 -0.3433  0.1551  0.0050
14078SOL    HW142812   5.490   1.537   0.297 -0.8720 -0.4378 -0.6450
14078SOL    HW242813   5.532   1.406   0.360 -0.6472 -0.1009 -0.0917
14079SOL     OW42814   8.753   3.805   4.456  0.2050 -0.2138 -0.4345
14079SOL    HW142815   8.696   3.737   4.418 -1.0705  2.2001 -3.2262
14079SOL    HW242816   8.712   3.826   4.540 -0.7021 -1.2955 -0.5845
14080SOL     OW42817   4.633   8.575   6.412  0.1157 -0.2285 -0.0432
14080SOL    HW142818   4.614   8.611   6.325 -0.8775 -1.3488 -0.3222
14080SOL    HW242819   4.726   8.590   6.424  0.1361  0.5761 -0.9952
14081SOL     OW42820   9.016   0.763   8.041 -0.4395 -0.3708  0.6461
14081SOL    HW142821   9.107   0.743   8.022  0.1149 -0.1695  2.8024
14081SOL    HW242822   8.984   0.809   7.964  0.8138 -1.8104 -0.7861
14082SOL     OW42823   1.796   5.255   0.466 -0.3792 -0.9140 -0.5133
14082SOL    HW142824   1.760   5.189   0.524  1.7296 -1.1530  0.6410
14082SOL    HW242825   1.772   5.339   0.506  1.1574 -1.0758  0.8841
14083SOL     OW42826   1.213   1.481   6.221  0.8819  0.9044  0.4881
14083SOL    HW142827   1.299   1.505   6.254  0.2686  0.2932  2.6578
14083SOL    HW242828   1.201   1.390   6.245 -0.1169  0.7696 -0.4024
14084SOL     OW42829   8.362   7.331   6.512  0.6614  0.5104 -0.2167
14084SOL    HW142830   8.297   7.347   6.444 -1.1110  1.8592  1.6616
14084SOL    HW242831   8.328   7.256   6.561  0.7397  0.9283  0.4973
14085SOL     OW42832   3.607   3.728   7.936 -0.1410 -0.6809 -0.6203
14085SOL    HW142833   3.585   3.763   8.022 -0.7601 -1.2589 -0.5375
14085SOL    HW242834   3.689   3.681   7.950  0.4014  0.2453 -0.6139
14086SOL     OW42835   0.566   5.892   9.536  0.1638 -0.4837 -0.2826
14086SOL    HW142836   0.546   5.935   9.453 -0.6785  0.0106  0.1606
14086SOL    HW242837   0.481   5.858   9.566  0.2950  0.0503  0.7526
14087SOL     OW42838   2.765   7.277   6.984  0.0337  0.5623 -0.7824
14087SOL    HW142839   2.706   7.306   7.053  0.0972 -0.1066 -0.4355
14087SOL    HW242840   2.739   7.186   6.966  0.0543  0.7080 -1.5987
14088SOL     OW42841   8.149   1.874   7.114 -0.1514  0.1455 -0.1862
14088SOL    HW142842   8.113   1.865   7.202  0.0915  0.0372 -0.0959
14088SOL    HW242843   8.165   1.968   7.104  1.1549  0.0212  0.4362
14089SOL     OW42844   4.000   0.501   1.353  0.3007 -0.4060  0.1781
14089SOL    HW142845   3.982   0.450   1.274 -0.4948  1.1024 -0.6687
14089SOL    HW242846   3.965   0.588   1.334  0.3291  0.0833  2.1017
14090SOL     OW42847   5.202   9.102   6.943  0.4517  0.0760 -1.3794
14090SOL    HW142848   5.214   9.054   6.861 -1.2523  1.3211 -2.3945
14090SOL    HW242849   5.291   9.130   6.967  1.1020 -1.1449 -2.2321
14091SOL     OW42850   6.265   2.564   6.226 -0.2959  0.0354 -0.4166
14091SOL    HW142851   6.303   2.627   6.165 -0.0523 -0.1191 -0.4262
14091SOL    HW242852   6.179   2.600   6.248  0.2774  0.9327  0.4452
14092SOL     OW42853   9.512   0.884   9.608 -0.0976 -0.5437 -0.6305
14092SOL    HW142854   9.465   0.902   9.527  1.9230  0.2110 -1.6907
14092SOL    HW242855   9.484   0.954   9.668  1.3405  1.3045 -2.0057
14093SOL     OW42856   6.062   4.069   4.738  0.0232 -0.0494 -0.8898
14093SOL    HW142857   5.967   4.083   4.727  0.4544  2.9379 -1.7240
14093SOL    HW242858   6.084   4.124   4.814  0.6835 -3.1971  1.3922
14094SOL     OW42859   8.488   4.345   1.520  0.4957  0.1581  0.2405
14094SOL    HW142860   8.422   4.393   1.569 -1.3109 -2.6569  0.7864
14094SOL    HW242861   8.562   4.337   1.580 -0.2389 -0.0495  1.1338
14095SOL     OW42862   7.094   6.708   2.731  0.1131 -0.0423  0.1094
14095SOL    HW142863   7.004   6.676   2.740  0.2444 -1.1274 -1.7703
14095SOL    HW242864   7.139   6.674   2.807 -0.8503 -0.3431  0.5661
14096SOL     OW42865   7.215   5.036   8.745  0.1467 -0.5951  0.5168
14096SOL    HW142866   7.190   5.083   8.824  0.6531  0.5078  0.0383
14096SOL    HW242867   7.281   5.091   8.704 -1.2373 -0.3140 -1.5045
14097SOL     OW42868   7.852   0.502   1.749 -0.2374 -0.1357 -0.3019
14097SOL    HW142869   7.897   0.440   1.806  1.7056  0.0860 -1.4944
14097SOL    HW242870   7.821   0.571   1.807  0.4174 -0.6271  0.6567
14098SOL     OW42871   8.529   9.400   1.462  0.6203  0.4172  0.2605
14098SOL    HW142872   8.621   9.426   1.465  0.9228 -0.6669  1.0139
14098SOL    HW242873   8.481   9.481   1.479  1.4450  0.9293  0.2224
14099SOL     OW42874   8.681   5.347   4.319 -0.2372  0.6453  0.0240
14099SOL    HW142875   8.657   5.330   4.228 -1.3253  1.2066  0.1823
14099SOL    HW242876   8.648   5.270   4.367 -1.0662  1.0556  0.1353
14100SOL     OW42877   4.266   6.887   1.173  0.1128  0.5871 -0.3262
14100SOL    HW142878   4.347   6.935   1.192 -0.2905  1.0897  0.1549
14100SOL    HW242879   4.196   6.951   1.187 -0.3926  0.0394 -0.3109
14101SOL     OW42880   1.914   8.910   1.802 -0.0342  0.1892  0.0876
14101SOL    HW142881   1.979   8.979   1.813 -0.1820  1.0563 -3.4571
14101SOL    HW242882   1.964   8.828   1.804  1.1470  0.8043 -1.9534
14102SOL     OW42883   0.610   3.116   9.433  0.2433  1.0553 -0.2752
14102SOL    HW142884   0.657   3.176   9.492  1.9257 -0.2513 -0.2106
14102SOL    HW242885   0.580   3.045   9.489  1.0060  0.2905 -0.8097
14103SOL     OW42886   6.511   4.451   6.525  0.0012 -0.0755 -0.3352
14103SOL    HW142887   6.602   4.455   6.494 -0.3170  1.0438 -1.1901
14103SOL    HW242888   6.465   4.403   6.456  0.3196 -2.7051  1.1650
14104SOL     OW42889   5.135   7.872   3.104  0.4572 -0.6593 -0.2957
14104SOL    HW142890   5.186   7.939   3.150 -0.9461  0.0604  0.2624
14104SOL    HW242891   5.045   7.905   3.106  0.2994 -0.4998 -3.6871
14105SOL     OW42892   5.877   3.066   8.951  0.1313 -0.1287  0.1212
14105SOL    HW142893   5.832   3.150   8.946  2.3110  1.0790 -0.4577
14105SOL    HW242894   5.884   3.048   9.044  1.9287  1.7009  0.4069
14106SOL     OW42895   3.853   9.271   9.941  1.2517  0.4267 -0.5116
14106SOL    HW142896   3.790   9.271  10.013  1.8806 -1.1219  0.0867
14106SOL    HW242897   3.820   9.337   9.880 -1.2888 -0.7403 -0.5149
14107SOL     OW42898   2.026   9.632   7.032  0.0492 -0.4130  0.2518
14107SOL    HW142899   1.988   9.666   7.113 -2.7411 -2.9179  0.1741
14107SOL    HW242900   2.012   9.701   6.968  1.5636  1.2833  1.6154
14108SOL     OW42901   2.688   6.504   0.603 -0.0979  0.1769  0.7078
14108SOL    HW142902   2.638   6.578   0.566 -1.9780 -0.0097  2.6980
14108SOL    HW242903   2.718   6.455   0.526  0.6814  2.6142 -0.6708
14109SOL     OW42904   0.625   9.457   9.052 -0.3522  0.1861 -0.4624
14109SOL    HW142905   0.684   9.387   9.081  0.9168  1.1729 -0.5719
14109SOL    HW242906   0.542   9.413   9.034 -0.1007 -1.0257  1.1336
14110SOL     OW42907   1.437   9.368   9.082 -0.4649 -0.3340  0.0403
14110SOL    HW142908   1.354   9.410   9.059  0.7179  1.2084 -1.7969
14110SOL    HW242909   1.482   9.432   9.138  1.2778  0.9729 -2.6321
14111SOL     OW42910   8.609   1.532   8.795 -0.1479  0.4677 -0.1019
14111SOL    HW142911   8.688   1.489   8.764 -0.2105  1.2280 -1.3635
14111SOL    HW242912   8.610   1.519   8.890  0.9592 -0.3890 -0.2174
14112SOL     OW42913   7.768   2.839   7.111  0.5025 -0.2111  0.2194
14112SOL    HW142914   7.782   2.806   7.200  0.5164 -1.5353 -0.2513
14112SOL    HW242915   7.840   2.900   7.096 -0.0613  0.8232  1.4600
14113SOL     OW42916   3.641   2.564   9.336  0.7184  0.2748  0.0340
14113SOL    HW142917   3.710   2.541   9.274  1.4670  0.9853  0.5764
14113SOL    HW242918   3.626   2.657   9.321 -2.0368 -0.3821 -1.9149
14114SOL     OW42919   7.132   5.915   6.223 -0.4986  0.5431  0.0288
14114SOL    HW142920   7.220   5.952   6.212 -0.6696  1.3005  1.0422
14114SOL    HW242921   7.103   5.896   6.134 -0.2866  2.6213 -0.5414
14115SOL     OW42922   9.374   1.160   3.849 -0.4405  0.5045 -0.1428
14115SOL    HW142923   9.378   1.252   3.821  1.4826  0.2830 -0.7963
14115SOL    HW242924   9.457   1.123   3.818 -1.6072 -1.7189 -0.7538
14116SOL     OW42925   0.305   4.539   1.441  0.3675 -0.1220  0.4371
14116SOL    HW142926   0.325   4.588   1.521  0.4437  0.5699  0.0005
14116SOL    HW242927   0.298   4.605   1.373  1.0900 -0.7678 -0.2964
14117SOL     OW42928   8.019   9.086   5.199  0.0881 -0.5819 -0.1961
14117SOL    HW142929   7.964   9.101   5.122 -0.7789 -0.4932  0.4209
14117SOL    HW242930   8.038   8.993   5.197  0.0582 -0.5824 -0.5071
14118SOL     OW42931   8.119   4.414   9.135  0.2640  0.2410 -0.3354
14118SOL    HW142932   8.157   4.326   9.135  2.6276  1.1788  1.1049
14118SOL    HW242933   8.128   4.443   9.044  0.4870 -0.5890 -0.5898
14119SOL     OW42934   3.269   0.660   6.094  0.0726  0.3612 -0.2011
14119SOL    HW142935   3.322   0.589   6.057  1.0928  0.4102  1.1010
14119SOL    HW242936   3.323   0.697   6.164 -1.4357  0.8337  0.7716
14120SOL     OW42937   3.651   2.840   0.865 -0.0598  0.5788 -0.1736
14120SOL    HW142938   3.691   2.802   0.787  0.2492  1.3312 -0.3938
14120SOL    HW242939   3.560   2.812   0.861  0.2464 -0.4590 -0.1132
14121SOL     OW42940   1.454   6.238   6.153 -0.8747  0.4727  0.1641
14121SOL    HW142941   1.394   6.311   6.164 -1.0327  0.1365  1.8349
14121SOL    HW242942   1.494   6.251   6.067 -1.8706  1.7802 -0.1153
14122SOL     OW42943   0.422   2.304   0.483  0.0433  0.2982 -0.0858
14122SOL    HW142944   0.382   2.239   0.424  0.2497 -0.5905  0.7284
14122SOL    HW242945   0.368   2.382   0.472 -1.7861 -0.7733  0.7780
14123SOL     OW42946   3.398   3.755   2.729  0.1603  0.3677 -0.0074
14123SOL    HW142947   3.423   3.704   2.652  0.6368  1.7010 -0.7767
14123SOL    HW242948   3.481   3.779   2.770 -0.0797 -0.0719  0.7548
14124SOL     OW42949   9.472   4.125   7.929 -0.0929  0.8734  0.2173
14124SOL    HW142950   9.419   4.066   7.876  0.5638  0.2107  0.2917
14124SOL    HW242951   9.471   4.086   8.017 -0.1333  1.2894  0.4075
14125SOL     OW42952   7.747   8.397   3.189 -0.6646 -0.7986 -0.8917
14125SOL    HW142953   7.801   8.409   3.111 -1.2026  0.3638 -1.1055
14125SOL    HW242954   7.674   8.342   3.160 -1.1128  0.0214 -1.3317
14126SOL     OW42955   1.132   9.927   6.946 -0.3611  0.2477  0.4124
14126SOL    HW142956   1.063   9.936   6.880 -0.5655  0.5471  0.6734
14126SOL    HW242957   1.203   9.882   6.899 -1.5614 -2.1514  0.7334
14127SOL     OW42958   2.939   4.328   3.189 -0.3873  0.6602 -0.2168
14127SOL    HW142959   2.868   4.392   3.192 -0.4738  0.5620  2.2769
14127SOL    HW242960   2.901   4.248   3.225  0.6815  0.2838  0.1208
14128SOL     OW42961   3.543   4.281   4.714  0.3853  0.2721 -0.6429
14128SOL    HW142962   3.553   4.307   4.623 -0.7453  0.1247 -0.8252
14128SOL    HW242963   3.533   4.364   4.761  1.3642  0.3697 -0.5833
14129SOL     OW42964   6.179   4.717   4.407 -0.2501  0.2584 -0.1327
14129SOL    HW142965   6.135   4.670   4.336  1.5681  0.9286 -1.8036
14129SOL    HW242966   6.108   4.754   4.459 -1.6680  0.0380 -1.8187
14130SOL     OW42967   1.114   5.140   5.673 -0.0525  0.2486  0.5215
14130SOL    HW142968   1.118   5.148   5.768  0.7334 -1.4312  0.6653
14130SOL    HW242969   1.205   5.130   5.645 -0.3197  0.0731 -0.3344
14131SOL     OW42970   8.794   2.107   7.225  0.2867 -0.4344 -0.0657
14131SOL    HW142971   8.797   2.014   7.246  0.4606 -0.3763  0.1720
14131SOL    HW242972   8.818   2.112   7.133 -0.1201 -0.6609 -0.1873
14132SOL     OW42973   6.905   4.713   0.536  0.5732  0.1550 -0.2673
14132SOL    HW142974   6.927   4.705   0.443  1.3591 -1.4714  0.0169
14132SOL    HW242975   6.981   4.756   0.575 -0.4437  2.3970 -0.5805
14133SOL     OW42976   5.710   3.374   9.708  0.3357 -0.2731 -0.2090
14133SOL    HW142977   5.794   3.413   9.682 -0.0564  0.5445 -0.2866
14133SOL    HW242978   5.657   3.448   9.736  0.5098 -1.0383  2.3509
14134SOL     OW42979   1.945   8.586   7.978  0.4082 -0.6686  0.1026
14134SOL    HW142980   1.941   8.651   7.908  0.4465 -2.1447 -1.3359
14134SOL    HW242981   1.865   8.599   8.029  0.6171  0.7500  0.1033
14135SOL     OW42982   5.546   2.174   2.336 -0.3723 -0.3236  0.0791
14135SOL    HW142983   5.601   2.186   2.413  2.9901 -0.5011 -2.1071
14135SOL    HW242984   5.571   2.088   2.302 -0.7345  0.3347 -1.9571
14136SOL     OW42985   5.193   2.473   5.350  0.0251  0.2262  0.0616
14136SOL    HW142986   5.135   2.540   5.313  0.0397  0.2247  0.0358
14136SOL    HW242987   5.204   2.499   5.441 -0.8631 -0.3591  0.3408
14137SOL     OW42988   0.819   2.029   2.172  0.0655  0.1727 -0.0145
14137SOL    HW142989   0.783   2.117   2.166 -3.3435 -1.1843 -2.0076
14137SOL    HW242990   0.762   1.984   2.234  1.0355 -0.9953  0.0601
14138SOL     OW42991   3.681   4.671   7.758  0.1746 -0.0994 -0.0718
14138SOL    HW142992   3.642   4.646   7.841 -0.2048  2.0326  0.4515
14138SOL    HW242993   3.731   4.750   7.778 -2.1136  2.0830 -2.3217
14139SOL     OW42994   1.025   4.357   1.184  0.7427 -0.4429 -0.5801
14139SOL    HW142995   0.972   4.432   1.211  1.6092 -0.7092  2.2218
14139SOL    HW242996   1.085   4.391   1.118  2.0902  1.7822  1.6290
14140SOL     OW42997   7.454   9.430   3.939 -0.2749 -0.7396 -0.0721
14140SOL    HW142998   7.466   9.467   3.851 -1.6264 -1.2432 -0.4924
14140SOL    HW242999   7.386   9.484   3.979 -0.1046 -0.9007  0.4327
14141SOL     OW43000   4.261   2.660   6.539 -0.1956 -0.1622 -0.2262
14141SOL    HW143001   4.207   2.723   6.491 -0.0292 -1.1258 -1.7303
14141SOL    HW243002   4.333   2.639   6.480 -0.0649 -1.5221  0.3669
14142SOL     OW43003   9.409   8.082   3.077 -0.1513 -0.0977  0.2574
14142SOL    HW143004   9.442   8.171   3.076  0.2393 -0.2229  1.0011
14142SOL    HW243005   9.314   8.091   3.078 -0.1127  0.3076  0.1808
14143SOL     OW43006   6.222   9.715   5.582  0.0018 -0.5455  0.5479
14143SOL    HW143007   6.142   9.729   5.531  0.8160 -1.3714 -0.9843
14143SOL    HW243008   6.290   9.760   5.532  0.5038  0.2848  1.9247
14144SOL     OW43009   6.856   7.419   0.699  0.0870 -0.0111  0.2887
14144SOL    HW143010   6.769   7.396   0.730 -0.6367  0.4859 -1.2613
14144SOL    HW243011   6.857   7.514   0.698  0.2944 -0.0134 -0.5803
14145SOL     OW43012   9.543   1.967   2.099  0.4263  0.6612 -0.4689
14145SOL    HW143013   9.539   1.996   2.190  1.1030  0.1124 -0.2632
14145SOL    HW243014   9.550   2.048   2.049  1.8712  0.9141  0.0825
14146SOL     OW43015   5.243   0.140   8.824 -0.2187 -0.3608  0.5914
14146SOL    HW143016   5.312   0.076   8.806  2.2935  2.1970  0.4184
14146SOL    HW243017   5.255   0.164   8.916 -0.7371  0.3125  0.4913
14147SOL     OW43018   8.386   5.259   4.211 -0.3158  0.4091 -0.3613
14147SOL    HW143019   8.354   5.349   4.212  0.6477  0.7822  1.6570
14147SOL    HW243020   8.412   5.242   4.301  0.2925 -1.6259 -0.8737
14148SOL     OW43021   3.090   9.359   6.059 -0.0116  0.2444 -0.2396
14148SOL    HW143022   2.996   9.350   6.041 -0.2644  1.4324  0.3712
14148SOL    HW243023   3.117   9.433   6.005  0.2680  0.7730  0.6223
14149SOL     OW43024   5.478   2.623   9.328  0.4922 -0.0823  0.4744
14149SOL    HW143025   5.432   2.691   9.377  0.4452  0.6087 -0.4875
14149SOL    HW243026   5.535   2.671   9.267  0.0291 -0.8825 -0.6315
14150SOL     OW43027   3.155   3.122   9.358  0.0670  0.2456 -0.5581
14150SOL    HW143028   3.183   3.074   9.280  2.1798  0.3172  0.0894
14150SOL    HW243029   3.187   3.211   9.343  1.7442 -0.0581  0.9494
14151SOL     OW43030   5.513   0.692   3.910  0.2613 -0.0993 -0.0692
14151SOL    HW143031   5.476   0.610   3.942  1.0710 -0.2657  0.4543
14151SOL    HW243032   5.580   0.666   3.847 -0.0849  0.1844 -0.5610
14152SOL     OW43033   2.133   3.725   3.221  0.5424  0.2197 -0.1962
14152SOL    HW143034   2.203   3.660   3.222  0.5310  0.1259 -1.9748
14152SOL    HW243035   2.177   3.808   3.205  0.3113  0.2409 -0.7432
14153SOL     OW43036   2.656   8.196   4.249 -0.2675 -0.1778 -0.6388
14153SOL    HW143037   2.666   8.180   4.155 -1.3073 -1.1524 -0.6061
14153SOL    HW243038   2.685   8.286   4.261  1.2776 -0.4972 -1.6539
14154SOL     OW43039   8.197   8.399   0.925  0.2806  0.3115  0.3910
14154SOL    HW143040   8.187   8.317   0.876  1.0706 -0.1950  1.0766
14154SOL    HW243041   8.167   8.378   1.013  0.6074  0.7322  0.6021
14155SOL     OW43042   4.389   6.241   9.336 -0.5500 -0.1299  0.0953
14155SOL    HW143043   4.469   6.191   9.320 -1.4560 -1.5061 -0.2627
14155SOL    HW243044   4.328   6.178   9.373 -1.7512  0.7016 -0.4091
14156SOL     OW43045   6.911   1.722   4.161 -0.4613  0.6166  0.4962
14156SOL    HW143046   6.949   1.634   4.154 -0.0508  0.8196  0.1263
14156SOL    HW243047   6.901   1.736   4.255  0.5091  0.6111  0.6091
14157SOL     OW43048   1.154   8.343   4.151 -0.5143 -0.0601 -0.1091
14157SOL    HW143049   1.186   8.323   4.063  2.2045  1.4493  0.4222
14157SOL    HW243050   1.233   8.343   4.205 -1.5773  2.5540  1.6240
14158SOL     OW43051   9.930   0.462   9.990 -0.3652  0.2672  0.0261
14158SOL    HW143052   9.851   0.492   9.945 -1.2493 -1.0745  0.6252
14158SOL    HW243053   9.960   0.387   9.940  0.4852  0.7040 -0.1366
14159SOL     OW43054   2.008   6.608   9.391 -0.6931  0.3478  0.1197
14159SOL    HW143055   2.050   6.680   9.439  0.1018 -0.2169  0.2912
14159SOL    HW243056   2.046   6.612   9.303 -1.6411  0.9544 -0.2783
14160SOL     OW43057   2.455   2.471   6.049  0.4374  0.6701 -0.0246
14160SOL    HW143058   2.510   2.395   6.028 -1.2834 -1.1010  1.4424
14160SOL    HW243059   2.396   2.479   5.973  1.5594  1.4965 -0.8326
14161SOL     OW43060   4.711   9.142   5.614  0.2741 -0.1102  0.5390
14161SOL    HW143061   4.737   9.088   5.688 -2.3002 -0.3247  1.3781
14161SOL    HW243062   4.753   9.226   5.629  1.7028 -0.8554  0.9226
14162SOL     OW43063   9.551   9.430   8.884 -0.3461  0.4759 -0.4806
14162SOL    HW143064   9.529   9.417   8.976 -0.8913  0.6532 -0.5848
14162SOL    HW243065   9.636   9.387   8.874 -0.3400  0.3485  0.0748
14163SOL     OW43066   7.568   6.585   3.289 -0.5125 -0.3333 -0.2923
14163SOL    HW143067   7.596   6.528   3.217 -1.0625 -0.1475 -0.6580
14163SOL    HW243068   7.475   6.600   3.273 -0.8934 -1.1200  1.0231
14164SOL     OW43069   1.753   3.869   7.082 -0.1227 -0.7009  0.1438
14164SOL    HW143070   1.722   3.801   7.022  0.1972  0.1791 -1.0504
14164SOL    HW243071   1.848   3.860   7.080 -0.0418  0.1334 -0.4829
14165SOL     OW43072   6.403   6.558   0.394 -0.6616 -0.7926 -0.2098
14165SOL    HW143073   6.312   6.562   0.421 -0.6872  2.9930 -0.3384
14165SOL    HW243074   6.400   6.527   0.303 -1.7274 -1.4682  0.0425
14166SOL     OW43075   9.607   1.725   3.346 -0.2139  0.0582 -0.0867
14166SOL    HW143076   9.650   1.717   3.431 -1.4221 -0.0712  0.5295
14166SOL    HW243077   9.514   1.711   3.364 -1.0868  3.7766 -0.7314
14167SOL     OW43078   9.801   3.796   9.404  0.2569  0.0565 -0.0770
14167SOL    HW143079   9.783   3.741   9.328 -0.5202 -0.0591  0.1828
14167SOL    HW243080   9.851   3.869   9.370 -0.2017  0.0717 -0.7253
14168SOL     OW43081   8.860   7.366   9.053  0.3424  0.0597  0.4696
14168SOL    HW143082   8.921   7.398   8.987 -0.0283 -0.6681 -0.2435
14168SOL    HW243083   8.809   7.299   9.008 -0.9704  0.6312  1.0475
14169SOL     OW43084   9.269   6.305   5.827  0.0526 -0.4314  0.0723
14169SOL    HW143085   9.310   6.387   5.798 -0.6232 -0.1306 -0.0305
14169SOL    HW243086   9.335   6.265   5.883  0.7227 -0.2195 -0.5420
14170SOL     OW43087   9.918   4.761   5.159  0.0844  0.6295 -0.0762
14170SOL    HW143088   9.848   4.706   5.125 -0.7581  2.4850 -1.4793
14170SOL    HW243089   9.889   4.851   5.143  2.8428  1.4876 -0.8635
14171SOL     OW43090   3.168   4.003   3.738  0.3188  0.0620  0.1673
14171SOL    HW143091   3.218   3.987   3.658 -0.3484 -0.4178 -0.1667
14171SOL    HW243092   3.205   4.084   3.774 -0.5765  1.3054 -1.5940
14172SOL     OW43093   6.821   0.055   3.509 -0.2404 -0.0486  0.1999
14172SOL    HW143094   6.751  -0.009   3.492  0.2532 -0.2304 -1.3506
14172SOL    HW243095   6.869   0.020   3.584 -0.5518 -1.0164 -0.0393
14173SOL     OW43096   7.847   5.321   4.569  0.2935  0.5004 -0.0800
14173SOL    HW143097   7.832   5.381   4.497  0.3520  0.2523 -0.2992
14173SOL    HW243098   7.763   5.277   4.582 -0.0545  1.3786  0.7723
14174SOL     OW43099   6.576   1.129   0.049 -0.7417 -0.1403 -0.2354
14174SOL    HW143100   6.495   1.165   0.087 -1.0092 -0.5447 -0.4104
14174SOL    HW243101   6.563   1.137  -0.046 -1.6327 -2.3764 -0.3682
14175SOL     OW43102   2.731   2.383   2.489 -0.5580 -0.4930 -0.2265
14175SOL    HW143103   2.791   2.390   2.563 -0.2389  0.2421 -0.5472
14175SOL    HW243104   2.726   2.289   2.470  1.1741 -0.5085 -0.7447
14176SOL     OW43105   0.405   2.741   4.419 -0.8102 -0.5399 -0.2550
14176SOL    HW143106   0.334   2.805   4.410 -0.1741  0.5744  1.8813
14176SOL    HW243107   0.429   2.745   4.512  2.6530 -0.2178 -1.0390
14177SOL     OW43108   5.462   8.069   9.439  0.4892 -0.2322  0.3961
14177SOL    HW143109   5.542   8.088   9.488  0.5864 -1.7391  0.8465
14177SOL    HW243110   5.443   7.977   9.457 -1.7266  0.2530  0.8313
14178SOL     OW43111   8.522   0.615   1.436  0.3936  0.4081  0.0045
14178SOL    HW143112   8.595   0.593   1.378  0.9769  1.9286  0.1224
14178SOL    HW243113   8.449   0.563   1.403  1.4976 -1.0798 -0.1769
14179SOL     OW43114   1.295   3.496   4.607 -0.0776  0.4452  0.1822
14179SOL    HW143115   1.206   3.505   4.640 -0.4190 -2.0691  0.1483
14179SOL    HW243116   1.286   3.455   4.522  1.0931  0.5442 -0.0160
14180SOL     OW43117   9.690   8.273   7.934  0.8225  0.4271 -0.1179
14180SOL    HW143118   9.611   8.251   7.984  1.0353 -1.0315 -0.3867
14180SOL    HW243119   9.697   8.368   7.942 -0.6205  0.5210  0.4222
14181SOL     OW43120   7.460   3.437   1.642  0.3422  0.7549 -0.2083
14181SOL    HW143121   7.423   3.427   1.730  2.7022 -2.2213  0.6233
14181SOL    HW243122   7.405   3.381   1.587 -0.6656  2.0155 -0.5281
14182SOL     OW43123   9.704   0.865   0.524  0.4087  0.3283  0.4640
14182SOL    HW143124   9.635   0.917   0.564  1.1446  0.9436  0.9749
14182SOL    HW243125   9.725   0.911   0.443 -1.8812 -1.5423 -1.3434
14183SOL     OW43126   1.241   3.483   4.113 -0.3721 -0.2554 -0.2359
14183SOL    HW143127   1.207   3.416   4.054 -1.4779 -0.5212  0.6581
14183SOL    HW243128   1.175   3.553   4.111 -1.0581 -0.7936  1.5659
14184SOL     OW43129   8.571   0.370   6.180 -0.5453 -0.2256  0.0864
14184SOL    HW143130   8.651   0.321   6.197 -0.0743  0.7294  0.6555
14184SOL    HW243131   8.503   0.321   6.226  0.1825  0.5351  2.0429
14185SOL     OW43132   3.135   3.610   5.045 -0.1032 -0.2640  0.5593
14185SOL    HW143133   3.227   3.587   5.043 -0.4486 -1.6885 -0.1112
14185SOL    HW243134   3.111   3.606   5.137  0.3917 -0.3182  0.6887
14186SOL     OW43135   4.031   4.220   3.977 -0.0110  0.0492  0.7302
14186SOL    HW143136   4.114   4.172   3.979  0.8944  1.4391 -0.7007
14186SOL    HW243137   4.057   4.312   3.984 -1.3433  0.5751 -0.6462
14187SOL     OW43138   9.215   0.222   1.751 -0.7695  0.0884  0.3743
14187SOL    HW143139   9.253   0.217   1.663  0.5363 -1.6780  0.9870
14187SOL    HW243140   9.146   0.288   1.743 -0.7880 -0.1159 -2.0038
14188SOL     OW43141   5.335   5.989   8.796 -0.1657 -0.4055  0.2969
14188SOL    HW143142   5.410   5.956   8.746  0.0734  1.2111 -0.5057
14188SOL    HW243143   5.289   6.046   8.735  0.7365  2.5353  2.1546
14189SOL     OW43144   7.139   6.656   3.072  0.7435 -0.0377  0.5033
14189SOL    HW143145   7.152   6.568   3.035  1.5291  0.3856 -0.2887
14189SOL    HW243146   7.045   6.669   3.070  0.7123 -0.3139 -0.7259
14190SOL     OW43147   3.232   6.696   4.422 -0.1964  0.0053 -0.3211
14190SOL    HW143148   3.283   6.746   4.486 -2.0867  0.8950  0.5688
14190SOL    HW243149   3.157   6.751   4.402 -2.6530 -2.5718  1.0397
14191SOL     OW43150   3.634   8.094   6.002 -0.6863  0.4055  0.1370
14191SOL    HW143151   3.645   8.013   6.052 -0.3025  1.6121  2.1183
14191SOL    HW243152   3.723   8.123   5.984 -0.8246  0.2897 -0.7657
14192SOL     OW43153   3.490   8.603   8.620 -0.4626 -0.3369  0.5118
14192SOL    HW143154   3.469   8.596   8.527  0.0214 -0.8162  0.4330
14192SOL    HW243155   3.409   8.580   8.665 -1.1677  1.4427  0.2183
14193SOL     OW43156   4.632   0.599   7.896 -0.0236  0.6575 -0.0227
14193SOL    HW143157   4.618   0.549   7.976  0.3685 -0.2058 -0.4787
14193SOL    HW243158   4.580   0.678   7.908  0.2129  0.6564  1.1800
14194SOL     OW43159   8.640   4.070   8.658 -0.2985 -0.1962 -0.3137
14194SOL    HW143160   8.604   4.037   8.741  0.5583  1.8668  0.9481
14194SOL    HW243161   8.582   4.143   8.634  1.6892  1.7862  0.6246
14195SOL     OW43162   7.808   9.313   4.332  0.4923  0.3523  0.4923
14195SOL    HW143163   7.888   9.358   4.357  1.0642 -0.1750 -0.3697
14195SOL    HW243164   7.762   9.300   4.415  1.4177  0.4182  1.0323
14196SOL     OW43165   6.843   3.447   6.533  0.1859 -0.4872 -0.0287
14196SOL    HW143166   6.892   3.389   6.476  0.6538  2.0346 -2.4361
14196SOL    HW243167   6.909   3.490   6.587 -0.0213 -1.2441  0.8410
14197SOL     OW43168   8.353   5.377   0.162  0.2325 -0.0292  0.2803
14197SOL    HW143169   8.406   5.332   0.228  2.4552  0.4152 -1.1082
14197SOL    HW243170   8.386   5.467   0.161 -0.1601  0.1218 -0.9985
14198SOL     OW43171   5.853   4.711   6.887 -0.4410 -0.1312 -0.4024
14198SOL    HW143172   5.910   4.651   6.935  0.9132  1.7216  0.4050
14198SOL    HW243173   5.765   4.693   6.922  0.3290  0.2611  1.8572
14199SOL     OW43174   5.527   9.077   6.763 -0.1791 -0.5233  0.0488
14199SOL    HW143175   5.519   9.063   6.857  1.3752 -0.6306  0.1799
14199SOL    HW243176   5.593   9.014   6.734 -1.2633 -1.1103 -1.2760
14200SOL     OW43177   3.441   9.184   7.674  0.5755  0.4147  0.1276
14200SOL    HW143178   3.524   9.220   7.642  0.5311  0.2619 -0.1668
14200SOL    HW243179   3.456   9.169   7.767  0.8563  0.4585  0.0919
14201SOL     OW43180   4.596   6.345   4.231 -0.0512  0.4054  0.1528
14201SOL    HW143181   4.662   6.330   4.163 -0.0750 -0.7037  0.3503
14201SOL    HW243182   4.645   6.375   4.307  0.1021  0.5681 -0.0101
14202SOL     OW43183   5.587   7.020   2.857  0.4094  0.6486 -0.2590
14202SOL    HW143184   5.590   7.074   2.778 -1.5945  1.4455  0.1543
14202SOL    HW243185   5.502   6.976   2.854  1.3704 -1.3938  0.1668
14203SOL     OW43186   1.187   2.757   2.995 -0.6091  0.1347 -0.2271
14203SOL    HW143187   1.113   2.703   2.967 -0.3000  0.3421 -1.5198
14203SOL    HW243188   1.259   2.694   3.006 -0.7915  0.0224  0.3446
14204SOL     OW43189   3.307   6.520   9.462  0.0983  0.5860  0.7163
14204SOL    HW143190   3.379   6.477   9.415 -0.2287  0.3424  0.4348
14204SOL    HW243191   3.289   6.599   9.411 -0.4775  0.1526  0.2431
14205SOL     OW43192   3.933   8.748   5.850  0.2782  0.0089  0.3025
14205SOL    HW143193   3.900   8.741   5.940 -0.4533  0.3171  0.0558
14205SOL    HW243194   3.876   8.812   5.808  1.7780  1.3029  0.1471
14206SOL     OW43195   1.618   8.365   4.123 -0.3667  0.4554  0.4213
14206SOL    HW143196   1.602   8.458   4.105 -0.3040  0.3010 -0.4540
14206SOL    HW243197   1.554   8.343   4.191 -1.1179  0.8680 -0.1381
14207SOL     OW43198   0.500   5.683   5.647  0.1544 -0.0570 -0.4950
14207SOL    HW143199   0.503   5.704   5.741 -0.4575  2.5458 -0.9870
14207SOL    HW243200   0.444   5.606   5.642  2.2001 -1.8105  1.4528
14208SOL     OW43201   0.054   7.603   4.677 -0.1054  0.3657 -0.0459
14208SOL    HW143202   0.038   7.689   4.639 -1.3047  0.8492  1.4723
14208SOL    HW243203   0.133   7.614   4.729 -0.4206  0.6406  0.3815
14209SOL     OW43204   9.901   7.277   5.584 -0.4599 -0.4963  0.1830
14209SOL    HW143205   9.875   7.366   5.562 -0.1608 -0.0425  1.5747
14209SOL    HW243206   9.969   7.287   5.651 -0.2289 -1.7650  0.1676
14210SOL     OW43207   2.702   4.441   7.242 -0.2874 -0.0367 -0.5137
14210SOL    HW143208   2.765   4.507   7.214  0.3089  1.1046  3.0641
14210SOL    HW243209   2.749   4.388   7.306 -2.2672 -0.6031  0.5538
14211SOL     OW43210   5.026   1.487   1.045  0.1930  0.3410  0.1316
14211SOL    HW143211   5.072   1.567   1.072  2.9241 -1.7521  2.2590
14211SOL    HW243212   5.095   1.429   1.015 -1.4573 -1.8934  0.4085
14212SOL     OW43213   8.849   8.497   5.457 -0.1432  0.7657 -0.1288
14212SOL    HW143214   8.819   8.587   5.444  1.0683  1.2886  0.5218
14212SOL    HW243215   8.874   8.467   5.370 -0.3473  1.1338 -0.3168
14213SOL     OW43216   7.135   2.778   8.616  0.5034 -0.1233 -0.2086
14213SOL    HW143217   7.053   2.797   8.571  0.9947 -0.1467 -1.1395
14213SOL    HW243218   7.187   2.729   8.552  0.5495 -1.7162  0.9781
14214SOL     OW43219   6.625   3.609   5.001  0.5375 -0.1511  0.0268
14214SOL    HW143220   6.561   3.672   4.967  0.9987 -0.2079 -0.9888
14214SOL    HW243221   6.693   3.663   5.041 -0.1410 -0.0909  1.1616
14215SOL     OW43222   5.245   8.361   5.459  0.0614  0.9305  0.0062
14215SOL    HW143223   5.169   8.419   5.470  1.8562  3.3755  0.4732
14215SOL    HW243224   5.249   8.311   5.540  0.8172  3.2831  1.5468
14216SOL     OW43225   1.546   9.857   6.553 -0.6101 -0.0724 -0.2338
14216SOL    HW143226   1.546   9.941   6.507 -2.1753  0.3705  0.4990
14216SOL    HW243227   1.580   9.878   6.640  0.0844 -0.4333 -0.4151
14217SOL     OW43228   7.662   8.282   7.571  0.3514  0.6550 -0.0999
14217SOL    HW143229   7.621   8.236   7.498 -0.5476  0.2192  0.6515
14217SOL    HW243230   7.704   8.358   7.532  0.6648 -0.0597 -1.1841
14218SOL     OW43231   1.350   8.865   8.513 -1.1479  0.0703  0.3911
14218SOL    HW143232   1.325   8.776   8.491 -4.3784  0.6865  1.1514
14218SOL    HW243233   1.358   8.910   8.429 -1.9832 -0.3346  0.0891
14219SOL     OW43234   8.297   8.490   9.132 -0.6720  0.1494 -0.5651
14219SOL    HW143235   8.237   8.563   9.117  0.6321  1.5794  0.7937
14219SOL    HW243236   8.373   8.530   9.175  0.3986 -1.9113 -0.4204
14220SOL     OW43237   8.935   1.161   5.990  0.1762  0.0240 -0.7613
14220SOL    HW143238   8.903   1.205   5.911 -0.0330  1.1841 -0.0511
14220SOL    HW243239   8.918   1.223   6.060  0.8767 -0.7629  0.1225
14221SOL     OW43240   4.327   1.207   5.550  0.2349  0.2596  0.0804
14221SOL    HW143241   4.238   1.187   5.520 -1.3218  2.3215  2.8747
14221SOL    HW243242   4.328   1.179   5.641  3.4091 -2.0795 -0.4919
14222SOL     OW43243   2.782   9.932   5.348  0.3697  0.5081 -0.1791
14222SOL    HW143244   2.732   9.979   5.281 -0.0754  0.2505 -0.0331
14222SOL    HW243245   2.853   9.992   5.372 -1.0936  1.7841  1.1674
14223SOL     OW43246   3.570   2.281   3.580  0.4593 -0.1021 -0.6220
14223SOL    HW143247   3.481   2.250   3.596  0.6123 -1.1641 -1.7631
14223SOL    HW243248   3.607   2.291   3.668 -0.6716  0.0471 -0.1440
14224SOL     OW43249   4.596   4.111   7.303 -0.1488  0.0111  0.6931
14224SOL    HW143250   4.636   4.055   7.237  0.3262  1.4134 -0.2339
14224SOL    HW243251   4.549   4.050   7.361  2.1948 -1.5564  1.0603
14225SOL     OW43252   5.041   7.817   7.942 -0.0000 -0.6844  0.3252
14225SOL    HW143253   5.100   7.892   7.952 -1.4916  0.4932  0.7206
14225SOL    HW243254   5.066   7.758   8.013  0.5136 -0.0832  0.6608
14226SOL     OW43255   7.313   3.314   1.461  0.3738 -0.1586  0.3710
14226SOL    HW143256   7.221   3.338   1.452 -0.0857 -1.5854  0.9567
14226SOL    HW243257   7.330   3.255   1.388  0.8506  0.1561  0.2232
14227SOL     OW43258   9.785   6.767   7.833  0.4673  0.3207  0.0656
14227SOL    HW143259   9.786   6.698   7.899 -0.8678  0.3870  0.1692
14227SOL    HW243260   9.704   6.752   7.784  1.7418 -0.1630 -2.0238
14228SOL     OW43261   9.421   9.536   4.537  0.1366  0.0454  0.5332
14228SOL    HW143262   9.403   9.627   4.559  0.7261  0.2762  0.0921
14228SOL    HW243263   9.500   9.540   4.483 -0.0245 -0.6971  0.2395
14229SOL     OW43264   3.326   9.101   3.351  0.2849 -0.0031  0.5965
14229SOL    HW143265   3.262   9.046   3.396  1.5259 -0.6832  1.5727
14229SOL    HW243266   3.273   9.154   3.291 -1.1150 -1.0415  0.8579
14230SOL     OW43267   0.315   1.962   8.632  0.2271 -0.1210 -0.0621
14230SOL    HW143268   0.354   1.995   8.552 -0.8248  0.6996 -0.2558
14230SOL    HW243269   0.346   2.022   8.700  0.6869 -0.4997  0.0677
14231SOL     OW43270   0.720   5.280   7.641 -0.1189 -0.3325  0.4512
14231SOL    HW143271   0.763   5.209   7.592  0.1828 -0.8281  1.4120
14231SOL    HW243272   0.633   5.246   7.660  0.7047 -1.3439  2.7181
14232SOL     OW43273   6.664   0.057   9.174  0.1837  0.1149  0.0891
14232SOL    HW143274   6.758   0.039   9.173  0.4771  1.1216  2.6647
14232SOL    HW243275   6.637   0.045   9.083  2.4499 -1.8289 -0.4511
14233SOL     OW43276   1.533   1.385   9.806  0.1564 -0.8500  0.5872
14233SOL    HW143277   1.578   1.324   9.864  0.0676 -1.0265  0.4731
14233SOL    HW243278   1.444   1.392   9.842 -0.3318 -2.0498 -0.3169
14234SOL     OW43279   9.627   7.208   2.492  0.9738 -0.1871  0.5750
14234SOL    HW143280   9.543   7.243   2.520  0.4050 -1.1582  0.1013
14234SOL    HW243281   9.626   7.116   2.519  2.1499 -0.0684  1.1384
14235SOL     OW43282   3.176   2.048   5.055  0.2665 -0.0637  0.3240
14235SOL    HW143283   3.179   2.002   5.139 -2.7474  0.0169  0.5755
14235SOL    HW243284   3.104   2.110   5.064 -0.4158 -0.3206 -2.4493
14236SOL     OW43285   9.760   2.757   3.724  0.6993 -0.3441  0.4421
14236SOL    HW143286   9.772   2.665   3.702 -0.5108 -0.2327 -0.7828
14236SOL    HW243287   9.694   2.789   3.663  1.3305  1.4371  0.6076
14237SOL     OW43288   9.709   3.023   8.688 -0.4971  0.1676  0.2090
14237SOL    HW143289   9.642   3.087   8.662 -0.2292  0.2376 -0.3217
14237SOL    HW243290   9.676   2.939   8.654 -0.0563  0.2885 -0.5387
14238SOL     OW43291   7.376   2.404   8.092 -0.0432 -0.2852 -0.3544
14238SOL    HW143292   7.358   2.421   7.999 -0.8053 -2.0836 -0.5610
14238SOL    HW243293   7.367   2.310   8.102  1.4422 -0.3083  1.2747
14239SOL     OW43294   5.301   1.403   7.838 -0.2989  0.2393  0.4477
14239SOL    HW143295   5.381   1.433   7.794 -0.2867  0.9629  0.9554
14239SOL    HW243296   5.236   1.395   7.768 -0.0341  0.5155  0.1687
14240SOL     OW43297   0.424   2.866   2.102 -0.2138 -0.6609 -0.2444
14240SOL    HW143298   0.441   2.960   2.093  0.1973 -0.8353 -1.5141
14240SOL    HW243299   0.428   2.850   2.196 -3.1722  1.0991  0.3248
14241SOL     OW43300   3.848   5.111   1.244  0.4221 -0.1564 -0.0112
14241SOL    HW143301   3.789   5.146   1.311 -0.1315  1.3569 -1.2264
14241SOL    HW243302   3.842   5.016   1.253 -2.5740 -0.0750 -0.4169
14242SOL     OW43303   7.014   3.853   6.473 -0.1115  0.2336  0.1507
14242SOL    HW143304   7.033   3.767   6.510  0.1315 -1.0041 -2.6403
14242SOL    HW243305   6.919   3.856   6.467 -0.0766 -0.4299 -0.9618
14243SOL     OW43306   9.339   8.496   5.096 -0.0302 -0.6795 -0.1956
14243SOL    HW143307   9.304   8.410   5.119 -1.1010 -0.1198  0.3565
14243SOL    HW243308   9.422   8.502   5.143 -0.3477 -1.0851  0.4238
14244SOL     OW43309   6.636   3.456   8.441  0.1098 -0.2100  0.0552
14244SOL    HW143310   6.727   3.484   8.428  0.1134 -0.7703 -1.2603
14244SOL    HW243311   6.598   3.524   8.497  0.9556  0.7653 -0.5157
14245SOL     OW43312   7.966   2.484   4.970 -0.3615  0.0601 -1.0017
14245SOL    HW143313   7.971   2.570   4.929  1.8210  0.9633  0.9358
14245SOL    HW243314   8.036   2.434   4.929  1.1360  0.6317  0.7166
14246SOL     OW43315   6.171   6.785   7.569 -0.3537 -0.6167  0.5287
14246SOL    HW143316   6.221   6.830   7.637 -0.5046 -2.2214  1.7619
14246SOL    HW243317   6.140   6.705   7.611 -0.3377 -1.7402 -1.4838
14247SOL     OW43318   9.520   5.506   7.670 -0.1472 -0.0362 -0.5385
14247SOL    HW143319   9.450   5.481   7.610 -1.6616 -0.2928  1.2413
14247SOL    HW243320   9.570   5.426   7.683 -1.6757 -0.8428  0.8493
14248SOL     OW43321   3.918   8.141   7.709  0.9266 -0.4722  0.2253
14248SOL    HW143322   3.881   8.053   7.694  0.7529 -0.1543 -1.3597
14248SOL    HW243323   3.896   8.190   7.630  0.2533  1.2884  1.4292
14249SOL     OW43324   4.687   3.235   3.955 -0.0017 -0.7516  0.1277
14249SOL    HW143325   4.667   3.251   4.047  2.1360  0.9318  0.3807
14249SOL    HW243326   4.782   3.247   3.949 -0.3492  1.5256 -2.7354
14250SOL     OW43327   8.686   1.880   8.918 -0.4178  0.0895 -0.2199
14250SOL    HW143328   8.714   1.796   8.954  2.4587  1.0076 -0.0448
14250SOL    HW243329   8.710   1.943   8.986  0.9782  1.3790 -1.8197
14251SOL     OW43330   4.256   3.723   5.242 -0.6273  0.3563  0.0268
14251SOL    HW143331   4.260   3.804   5.191 -0.3699  0.5297  0.3254
14251SOL    HW243332   4.331   3.672   5.213  0.6359  1.2527  1.5858
14252SOL     OW43333   3.590   8.862   4.610  0.5544  0.1354 -0.2925
14252SOL    HW143334   3.613   8.847   4.702 -0.2050  1.9240  0.2493
14252SOL    HW243335   3.671   8.847   4.562  1.2068  0.0434  0.7885
14253SOL     OW43336   9.202   2.896   1.116  0.4277 -0.1131  0.3681
14253SOL    HW143337   9.290   2.924   1.089 -0.0775  2.3218  0.9643
14253SOL    HW243338   9.160   2.868   1.035  1.1974  0.3547 -0.2120
14254SOL     OW43339   6.561   4.205   9.933  0.2070  0.0131  0.2308
14254SOL    HW143340   6.482   4.164   9.970 -0.5949 -0.3255 -1.7418
14254SOL    HW243341   6.527   4.265   9.867  1.5844  0.5481 -0.0014
14255SOL     OW43342   4.400   2.487   6.291 -0.0394  0.2805 -0.0873
14255SOL    HW143343   4.442   2.527   6.367  0.5864 -1.2570  0.4054
14255SOL    HW243344   4.349   2.415   6.326 -1.5882  0.9343 -0.9068
14256SOL     OW43345   7.307   4.792   6.438 -0.5083  0.0200  0.4265
14256SOL    HW143346   7.381   4.768   6.381  1.1865  1.8365  1.7381
14256SOL    HW243347   7.290   4.884   6.418 -0.7329  0.3284  1.9198
14257SOL     OW43348   7.486   2.815   8.012  0.2206 -0.4249 -0.0585
14257SOL    HW143349   7.429   2.891   8.007  1.0058  0.2448  1.0268
14257SOL    HW243350   7.561   2.837   7.957  1.0129  0.0918  1.2099
14258SOL     OW43351   6.144   1.532   0.134 -0.0198 -0.4153  0.2111
14258SOL    HW143352   6.230   1.535   0.177  0.2614 -1.6792 -0.2206
14258SOL    HW243353   6.135   1.618   0.092  0.0129  0.5964  2.1454
14259SOL     OW43354   7.695   2.664   2.415  0.0966  0.5630  0.1278
14259SOL    HW143355   7.653   2.716   2.347  1.1123  1.9049  0.4762
14259SOL    HW243356   7.785   2.654   2.384  0.9541  2.3582  1.8399
14260SOL     OW43357   3.715   9.468   1.005  0.0325 -0.0303  0.1335
14260SOL    HW143358   3.782   9.481   0.938  2.2568 -0.9487  2.0577
14260SOL    HW243359   3.634   9.453   0.955  1.6141 -0.9633 -2.3468
14261SOL     OW43360   0.828   8.102   4.398  0.1555  0.1623  0.3188
14261SOL    HW143361   0.891   8.087   4.328  0.1227 -0.1211  0.3477
14261SOL    HW243362   0.763   8.032   4.387  0.0194  0.2605  0.4839
14262SOL     OW43363   4.150   7.177   0.305 -0.3238  0.6065 -0.2270
14262SOL    HW143364   4.154   7.272   0.313 -1.7361  0.7028 -0.3331
14262SOL    HW243365   4.097   7.162   0.226  1.5746 -0.2945 -1.4262
14263SOL     OW43366   2.212   1.012   1.909 -0.3207  0.0582 -0.3783
14263SOL    HW143367   2.142   1.033   1.848  0.1187  1.7822 -0.3378
14263SOL    HW243368   2.278   1.079   1.895  0.3868 -0.2811  1.0588
14264SOL     OW43369   6.737   0.471   3.172 -0.5217  0.2288  0.0175
14264SOL    HW143370   6.681   0.490   3.247  0.7645 -1.2975  1.4420
14264SOL    HW243371   6.801   0.542   3.170  0.9700 -0.9580  1.9890
14265SOL     OW43372   5.223   2.933   7.359  0.1786  0.1741  0.1112
14265SOL    HW143373   5.178   2.867   7.306  0.7957  0.9009 -1.3820
14265SOL    HW243374   5.181   3.015   7.336 -0.5660  0.3446  1.9440
14266SOL     OW43375   1.136   0.106   2.412  0.0458  0.1860  0.0859
14266SOL    HW143376   1.229   0.127   2.418  0.2017 -0.4677  0.0503
14266SOL    HW243377   1.119   0.099   2.318  0.0184  0.0572  0.1004
14267SOL     OW43378   2.788   2.513   2.222 -0.2017  0.3536 -0.0529
14267SOL    HW143379   2.840   2.440   2.188 -1.5133 -0.7595  0.2510
14267SOL    HW243380   2.772   2.491   2.314 -0.5917  1.0454  0.0581
14268SOL     OW43381   0.112   7.628   3.481  0.3441 -0.1933  0.1621
14268SOL    HW143382   0.157   7.683   3.417 -0.9693  0.2570 -0.4126
14268SOL    HW243383   0.180   7.572   3.517  1.2523  0.0726 -1.0859
14269SOL     OW43384   9.512   6.692   7.784 -0.1483 -0.1687 -0.6069
14269SOL    HW143385   9.495   6.757   7.853 -1.1290 -0.9899 -0.0597
14269SOL    HW243386   9.474   6.730   7.705  1.3401  0.9681 -0.8374
14270SOL     OW43387   7.420   2.908   4.243 -0.3376 -0.2944 -0.6131
14270SOL    HW143388   7.391   2.935   4.156 -0.0488 -0.6318 -0.8179
14270SOL    HW243389   7.483   2.838   4.226  0.8333  0.6272 -0.1872
14271SOL     OW43390   6.690   9.094   0.559  0.0549  0.3532 -0.3889
14271SOL    HW143391   6.599   9.080   0.585  0.2863  1.6929  1.2402
14271SOL    HW243392   6.687   9.172   0.503  0.2218  0.4739 -0.2289
14272SOL     OW43393   8.787   9.649   4.180  0.8931 -0.1305 -0.1143
14272SOL    HW143394   8.774   9.578   4.117 -0.8260 -1.0759  1.2283
14272SOL    HW243395   8.700   9.685   4.194  1.4553  0.9538  0.7048
14273SOL     OW43396   0.550   5.041   3.466 -0.0272 -0.4023 -0.0687
14273SOL    HW143397   0.460   5.071   3.451  0.7393  1.8814 -0.5117
14273SOL    HW243398   0.543   4.945   3.470 -1.8084 -0.8063 -5.3027
14274SOL     OW43399   5.033   7.669   7.473 -0.2399  0.0068  0.6195
14274SOL    HW143400   5.111   7.709   7.512 -0.4542  2.7257 -1.4516
14274SOL    HW243401   4.965   7.677   7.541  0.3848  0.8519  1.1627
14275SOL     OW43402   8.648   1.954   8.637  0.5094 -0.4559  0.3183
14275SOL    HW143403   8.609   1.942   8.723  1.4902  1.1181  1.0313
14275SOL    HW243404   8.729   1.903   8.640  0.7248 -0.1134  0.4846
14276SOL     OW43405   9.391   8.524   4.257  0.3160 -0.3924 -0.7560
14276SOL    HW143406   9.296   8.522   4.252  0.0647 -1.3477  2.5270
14276SOL    HW243407   9.411   8.580   4.332  2.2868 -1.1670 -0.6205
14277SOL     OW43408   0.827   9.679   5.011  0.2389  0.4068  1.1612
14277SOL    HW143409   0.883   9.711   5.082  2.3521 -1.1523  0.3299
14277SOL    HW243410   0.761   9.626   5.055  0.5972  0.6937  2.0770
14278SOL     OW43411   3.541   2.089   9.196  0.0796 -0.5749  0.5455
14278SOL    HW143412   3.508   2.155   9.257  2.5748  1.9018 -0.6125
14278SOL    HW243413   3.492   2.105   9.116  1.2091  0.4396  0.0348
14279SOL     OW43414   1.878   6.692   5.929 -0.0764 -0.5389 -0.4524
14279SOL    HW143415   1.916   6.606   5.912  1.3254 -0.5149  2.0290
14279SOL    HW243416   1.784   6.676   5.933 -0.0204 -1.5210 -2.0779
14280SOL     OW43417   1.254   6.142   5.819  0.9959 -0.1937 -0.3744
14280SOL    HW143418   1.197   6.096   5.757 -1.6330  2.2438  0.0368
14280SOL    HW243419   1.240   6.097   5.902  0.3070 -0.1365 -0.4535
14281SOL     OW43420   2.473   7.537   5.845 -0.4414 -0.4713 -0.1343
14281SOL    HW143421   2.479   7.632   5.835 -1.6266 -0.3013  0.4902
14281SOL    HW243422   2.432   7.506   5.764 -3.5953  0.0589  1.1098
14282SOL     OW43423   2.725   3.041   1.779  0.1139  0.2906 -0.3967
14282SOL    HW143424   2.796   2.998   1.731  1.9390  2.2327  0.4223
14282SOL    HW243425   2.732   3.133   1.754 -0.4517  0.9469  1.6547
14283SOL     OW43426   8.375   8.792   3.777 -0.2693  0.0615 -0.0987
14283SOL    HW143427   8.346   8.738   3.850 -0.9116  0.2855 -0.1822
14283SOL    HW243428   8.360   8.882   3.807 -0.0282  0.1676 -0.2976
14284SOL     OW43429   3.185   5.724   3.689 -0.4112 -0.3781 -0.0559
14284SOL    HW143430   3.190   5.630   3.704  0.4694 -0.2422  0.5409
14284SOL    HW243431   3.165   5.732   3.596 -0.2363 -1.1514 -0.1649
14285SOL     OW43432   5.145   0.106   5.531  0.0088  0.4673 -0.7009
14285SOL    HW143433   5.093   0.026   5.533 -0.9510  1.0790  1.2905
14285SOL    HW243434   5.176   0.112   5.440 -2.9644 -0.2059 -1.8759
14286SOL     OW43435   4.631   2.037   3.455 -0.1077  0.0454  0.3440
14286SOL    HW143436   4.571   2.074   3.519  0.5742  0.2290  0.8879
14286SOL    HW243437   4.707   2.010   3.506  0.9934  1.3512 -0.5415
14287SOL     OW43438   9.775   7.033   7.978  0.1426 -0.2598 -0.1267
14287SOL    HW143439   9.778   6.938   7.963  1.3801 -0.2006 -0.3233
14287SOL    HW243440   9.739   7.041   8.067  2.1195 -1.0430  0.8162
14288SOL     OW43441   4.983   0.342   9.820  0.1281 -0.0453 -0.1501
14288SOL    HW143442   4.994   0.247   9.824  0.2786 -0.0190  0.0614
14288SOL    HW243443   4.901   0.359   9.866  0.2264 -0.0502  0.0286
14289SOL     OW43444   6.730   6.688   4.682  0.1176 -0.5153 -0.4149
14289SOL    HW143445   6.652   6.651   4.642 -0.8079 -0.6923  1.4434
14289SOL    HW243446   6.782   6.612   4.708 -1.4950 -0.6675  2.8431
14290SOL     OW43447   3.625   0.795   1.838 -0.1813  0.0682 -0.2239
14290SOL    HW143448   3.573   0.735   1.891  0.4335 -0.3110 -0.0431
14290SOL    HW243449   3.635   0.873   1.892 -1.4515  0.5664 -0.6769
14291SOL     OW43450   0.181   1.509   0.933  0.5081  0.4784 -0.0104
14291SOL    HW143451   0.220   1.597   0.935  1.0334  0.2593 -0.3585
14291SOL    HW243452   0.254   1.451   0.909  0.0333  0.0239 -0.3740
14292SOL     OW43453   2.361   4.367   4.340  0.4848 -0.3726 -0.4080
14292SOL    HW143454   2.352   4.436   4.406  1.9637  0.5397 -1.1207
14292SOL    HW243455   2.343   4.286   4.389 -0.6497  0.4356  0.5868
14293SOL     OW43456   4.507   4.157   9.086  0.0076  0.1314  0.2405
14293SOL    HW143457   4.480   4.214   9.014 -0.1845 -0.1126  0.1178
14293SOL    HW243458   4.428   4.148   9.140 -0.9498 -2.5572 -1.4108
14294SOL     OW43459   2.830   0.157   2.986  0.5306  0.1380 -0.0354
14294SOL    HW143460   2.905   0.125   3.036  1.3196 -0.8689 -1.8020
14294SOL    HW243461   2.857   0.242   2.954  0.9617 -0.2631 -0.7452
14295SOL     OW43462   4.895   9.659   3.357  0.7367  0.0530  0.4369
14295SOL    HW143463   4.888   9.694   3.445 -1.1307 -1.8060  1.0912
14295SOL    HW243464   4.977   9.609   3.357  1.2106  0.8166  0.8076
14296SOL     OW43465   4.363   3.000   1.249 -0.0597 -0.1592 -0.4318
14296SOL    HW143466   4.437   3.017   1.308 -0.7296  0.1723  0.3202
14296SOL    HW243467   4.310   3.079   1.253 -1.0313 -0.8170 -0.1231
14297SOL     OW43468   2.332   6.569   8.584  0.2067  0.3820  0.1547
14297SOL    HW143469   2.265   6.512   8.546 -0.4020  0.9100  0.4163
14297SOL    HW243470   2.303   6.584   8.674  0.5926  0.7395  0.2258
14298SOL     OW43471   6.677   9.113   1.651 -0.0038 -0.1983  0.2352
14298SOL    HW143472   6.733   9.130   1.727 -0.2797  0.0789  0.3774
14298SOL    HW243473   6.590   9.099   1.688  0.0058 -0.8279  0.0304
14299SOL     OW43474   4.355   3.774   2.096 -0.1995  0.7130 -0.0787
14299SOL    HW143475   4.399   3.760   2.180 -1.0126 -0.3046  0.1915
14299SOL    HW243476   4.287   3.838   2.115 -1.0643 -0.2958  0.2932
14300SOL     OW43477   1.043   6.488   2.026  0.2391  0.1535 -0.5640
14300SOL    HW143478   1.073   6.563   2.078  1.1833 -0.6807  0.1151
14300SOL    HW243479   0.960   6.518   1.989 -0.7825  0.6021  1.8789
14301SOL     OW43480   9.071   4.226   0.757 -0.0634  0.3106 -0.0929
14301SOL    HW143481   9.069   4.284   0.833 -0.5990 -1.0896  0.9945
14301SOL    HW243482   9.130   4.155   0.782 -1.7169 -1.1619 -0.2186
14302SOL     OW43483   2.707   9.016   9.514 -0.6546 -0.1619  0.0697
14302SOL    HW143484   2.630   8.959   9.510 -0.6011 -0.2245 -0.1190
14302SOL    HW243485   2.706   9.062   9.430 -0.9557  0.4577  0.4085
14303SOL     OW43486   7.696   6.447   8.032  0.3479  0.2807 -0.4987
14303SOL    HW143487   7.644   6.507   7.979  1.3493  1.3242 -0.3483
14303SOL    HW243488   7.672   6.469   8.122 -1.6442 -1.7548 -0.4534
14304SOL     OW43489   2.271   5.493   1.791  0.3511 -0.0540  0.0137
14304SOL    HW143490   2.345   5.542   1.753 -0.4849  0.7307 -0.6392
14304SOL    HW243491   2.194   5.544   1.768 -0.6347 -1.9451 -1.2012
14305SOL     OW43492   4.490   3.130   0.206 -0.1191  0.5337 -0.0515
14305SOL    HW143493   4.463   3.152   0.117  0.2531 -1.3668 -0.6868
14305SOL    HW243494   4.414   3.152   0.260 -0.4051  1.5771 -0.8455
14306SOL     OW43495   1.889   5.720   6.857 -0.4360 -0.0033  0.0884
14306SOL    HW143496   1.906   5.627   6.842  0.4824  0.0585  0.6608
14306SOL    HW243497   1.887   5.759   6.769 -1.0068 -0.5854 -0.1616
14307SOL     OW43498   9.628   5.443   1.848 -0.0103 -0.3970 -0.1123
14307SOL    HW143499   9.681   5.370   1.879  0.6537  0.4133  0.7482
14307SOL    HW243500   9.664   5.465   1.762  0.6592 -0.2551  0.1977
14308SOL     OW43501   4.773   9.416   5.019 -0.6156  0.1700  0.3284
14308SOL    HW143502   4.795   9.365   5.097  0.3950 -1.1960 -0.7935
14308SOL    HW243503   4.830   9.380   4.951  0.0661  2.7432 -0.5607
14309SOL     OW43504   0.621   9.115   1.160  0.2368  0.7499 -0.3293
14309SOL    HW143505   0.716   9.107   1.167  0.1566  0.4963  0.5638
14309SOL    HW243506   0.601   9.202   1.196 -0.0059  0.1566  1.0638
14310SOL     OW43507   6.410   9.361   6.457 -0.5462  0.8415 -0.3861
14310SOL    HW143508   6.482   9.398   6.406  0.3243  0.8409  0.7999
14310SOL    HW243509   6.408   9.268   6.433 -0.7529  1.0305 -1.1039
14311SOL     OW43510   6.378   0.017   8.721 -0.4628  0.4741  0.4386
14311SOL    HW143511   6.305   0.074   8.746 -1.6481 -0.7098 -0.2380
14311SOL    HW243512   6.369   0.006   8.626  0.3266 -0.0604  0.4114
14312SOL     OW43513   5.151   5.402   2.627 -0.0091 -0.1079  0.5270
14312SOL    HW143514   5.090   5.391   2.699 -0.7640 -0.1155 -0.1002
14312SOL    HW243515   5.177   5.313   2.603 -2.7343 -0.4500 -1.6836
14313SOL     OW43516   4.062   0.586   4.661 -0.3629 -0.1986  0.3591
14313SOL    HW143517   4.141   0.635   4.684 -0.3032  0.2187 -0.7040
14313SOL    HW243518   4.081   0.549   4.575 -1.5850  0.4814 -0.2284
14314SOL     OW43519   8.330   7.627   3.311 -0.2429  0.0371  0.2635
14314SOL    HW143520   8.311   7.613   3.404  1.8677 -0.0372  0.7347
14314SOL    HW243521   8.324   7.540   3.272 -0.0691 -0.1052  0.5516
14315SOL     OW43522   5.485   4.891   0.372  0.2164  0.4101 -0.3440
14315SOL    HW143523   5.480   4.858   0.282  0.4547  0.9109 -0.5426
14315SOL    HW243524   5.554   4.957   0.370  0.0870  0.5656  0.1635
14316SOL     OW43525   1.158   0.229   0.452 -0.0970  0.6750 -1.1521
14316SOL    HW143526   1.136   0.311   0.495 -0.8294  0.4027 -0.9978
14316SOL    HW243527   1.136   0.162   0.517 -2.0679  0.1962 -2.2590
14317SOL     OW43528   6.881   7.253   7.079  0.3792  0.5262 -0.2507
14317SOL    HW143529   6.806   7.312   7.086  1.0041  1.3988 -0.7654
14317SOL    HW243530   6.955   7.306   7.108  0.6528 -0.6705  1.3726
14318SOL     OW43531   4.277   3.301   1.177  0.1100  0.1918  0.1837
14318SOL    HW143532   4.202   3.341   1.132 -0.3761 -0.0923  0.7329
14318SOL    HW243533   4.265   3.322   1.269 -0.7292 -2.0501  0.6577
14319SOL     OW43534   6.554   8.580   9.272 -0.3907  0.2451  0.7058
14319SOL    HW143535   6.544   8.500   9.220 -0.2356  1.8316 -1.9656
14319SOL    HW243536   6.464   8.607   9.290 -0.4685  0.2371  0.3373
14320SOL     OW43537   2.683   7.885   9.093 -0.1283  0.0091 -0.1764
14320SOL    HW143538   2.663   7.929   9.176  0.4692  0.3664 -0.2165
14320SOL    HW243539   2.758   7.830   9.113  0.0650  0.1544 -0.5048
14321SOL     OW43540   1.595   8.203   0.918 -0.1595  0.4544  0.1392
14321SOL    HW143541   1.531   8.235   0.982  0.1251  0.8171  0.2507
14321SOL    HW243542   1.633   8.283   0.881  0.0847  0.2428 -0.0681
14322SOL     OW43543   9.510   8.585   1.092  0.3450  0.0531  0.2184
14322SOL    HW143544   9.600   8.601   1.120  0.0901  0.0485  1.0768
14322SOL    HW243545   9.502   8.632   1.010  1.1279  0.0665  0.1383
14323SOL     OW43546   3.615   6.851   6.462  0.6584 -0.0422 -0.5065
14323SOL    HW143547   3.612   6.817   6.551  1.2565 -0.2807 -0.5699
14323SOL    HW243548   3.527   6.886   6.446 -0.2234 -2.1788 -0.6747
14324SOL     OW43549   4.320   5.146   9.870 -0.0576  0.1842 -0.0685
14324SOL    HW143550   4.413   5.130   9.853 -0.1269  0.2199 -0.4790
14324SOL    HW243551   4.284   5.171   9.785 -0.7562 -1.3043 -0.2398
14325SOL     OW43552   6.216   9.149   8.893 -0.2210 -0.7448 -0.2974
14325SOL    HW143553   6.258   9.070   8.927 -0.3060  0.6867  3.5596
14325SOL    HW243554   6.140   9.163   8.950  0.3196  2.5951 -0.2275
14326SOL     OW43555   0.873   8.948   3.960 -0.6057 -0.1111 -0.0906
14326SOL    HW143556   0.924   8.867   3.962 -0.1499  0.1635  2.2637
14326SOL    HW243557   0.938   9.016   3.942 -0.8568 -0.1391 -1.2113
14327SOL     OW43558   3.434   6.717   3.497  0.0208 -0.0406  0.5690
14327SOL    HW143559   3.415   6.704   3.590 -1.3306  2.5715  0.7341
14327SOL    HW243560   3.527   6.736   3.493 -0.2121  1.3887  1.6077
14328SOL     OW43561   8.953   2.988   2.067 -0.2746 -0.4958 -0.4094
14328SOL    HW143562   9.023   3.028   2.015  0.0114  0.8908  0.9544
14328SOL    HW243563   8.990   2.905   2.096  0.6956  0.0478 -0.0228
14329SOL     OW43564   5.665   7.926   4.507 -0.4559 -0.4822 -0.0215
14329SOL    HW143565   5.700   7.846   4.467  0.1576 -1.6151  2.5602
14329SOL    HW243566   5.741   7.969   4.546 -1.2368 -0.5931  1.7445
14330SOL     OW43567   7.713   7.033   0.683 -0.0418  0.4185  0.9828
14330SOL    HW143568   7.806   7.035   0.661  0.1184 -0.2216  1.5645
14330SOL    HW243569   7.670   7.069   0.605  0.5490 -1.1731 -0.1505
14331SOL     OW43570   5.860   9.585   5.747  0.4876  0.0677 -0.1431
14331SOL    HW143571   5.861   9.579   5.842  0.4492 -0.0249 -0.1485
14331SOL    HW243572   5.807   9.511   5.718  1.5870 -0.6906 -0.2876
14332SOL     OW43573   1.843   1.329   8.240  0.0213 -0.0512 -0.1270
14332SOL    HW143574   1.803   1.385   8.307 -2.8120 -1.1852 -0.7224
14332SOL    HW243575   1.842   1.382   8.160 -1.3080 -0.4008 -0.3625
14333SOL     OW43576   5.830   7.702   2.031  0.7137 -0.1423  0.0192
14333SOL    HW143577   5.744   7.684   1.991  0.5614 -0.4580  0.4796
14333SOL    HW243578   5.839   7.797   2.025 -0.6054  0.1392  1.8190
14334SOL     OW43579   2.820   6.681   8.730  0.8163 -0.0678  0.2169
14334SOL    HW143580   2.899   6.666   8.678 -0.7749 -3.4446 -1.5561
14334SOL    HW243581   2.842   6.645   8.816  2.2733  2.2523  0.8958
14335SOL     OW43582   8.405   5.140   7.836  0.1573 -0.0151  0.4250
14335SOL    HW143583   8.456   5.084   7.895  0.5670 -0.7471 -0.6000
14335SOL    HW243584   8.468   5.165   7.768 -0.3748  0.6170  0.1640
14336SOL     OW43585   3.114   7.819   7.949 -0.8887  0.4961 -0.1983
14336SOL    HW143586   3.151   7.762   8.016  0.5862  0.0247 -1.3796
14336SOL    HW243587   3.023   7.790   7.940 -0.5522 -0.7212  0.2177
14337SOL     OW43588   9.118   8.814   7.126  1.1662 -0.0187  0.2334
14337SOL    HW143589   9.195   8.850   7.081  0.5407  1.2217  0.1058
14337SOL    HW243590   9.120   8.721   7.106  1.5629  0.3083 -1.3807
14338SOL     OW43591   7.321   4.318   2.442  0.3087 -0.4470 -0.3549
14338SOL    HW143592   7.302   4.347   2.353  0.3534  0.9438  0.0638
14338SOL    HW243593   7.235   4.302   2.481  0.2955 -1.3334 -0.7080
14339SOL     OW43594   5.657   4.404   8.371 -0.5857  0.2575 -0.1304
14339SOL    HW143595   5.726   4.360   8.322 -1.9339  0.1417 -2.0110
14339SOL    HW243596   5.612   4.333   8.418 -1.0121 -0.0151 -0.9381
14340SOL     OW43597   8.389   5.346   6.016  0.4504  0.3362 -0.1510
14340SOL    HW143598   8.450   5.412   6.047  0.3307 -0.1645  1.1914
14340SOL    HW243599   8.374   5.289   6.091 -0.9614 -0.0876 -0.7175
14341SOL     OW43600   9.367   1.588   2.571 -0.6649 -0.3412  0.0330
14341SOL    HW143601   9.344   1.514   2.516 -0.3118 -0.5053  0.1049
14341SOL    HW243602   9.460   1.577   2.589 -0.3350  0.7241 -0.8871
14342SOL     OW43603   1.631   7.387   9.481  0.0738 -0.7832 -0.2089
14342SOL    HW143604   1.638   7.397   9.575  0.1160  0.8552 -0.3582
14342SOL    HW243605   1.720   7.398   9.448  0.1182 -1.7086 -0.4260
14343SOL     OW43606   2.798   8.862   8.412  0.4501  0.5510  0.0938
14343SOL    HW143607   2.777   8.778   8.369  1.1368 -0.9585  2.5179
14343SOL    HW243608   2.886   8.883   8.382  1.1832 -0.8264  1.1770
14344SOL     OW43609   0.276   9.837   9.684 -0.0759 -0.1682  0.0884
14344SOL    HW143610   0.194   9.885   9.688  0.3052  0.6336 -1.0800
14344SOL    HW243611   0.275   9.780   9.761 -0.8849  1.1725  1.1177
14345SOL     OW43612   1.200   2.040   4.218 -0.8533  0.0456  0.4392
14345SOL    HW143613   1.213   2.094   4.140  2.8124 -1.7062 -0.4132
14345SOL    HW243614   1.144   1.968   4.188  0.1220 -0.3459 -0.5452
14346SOL     OW43615   2.635   3.832   8.096  0.2399  0.2460  0.0445
14346SOL    HW143616   2.680   3.760   8.141  0.9143  0.5396 -0.1460
14346SOL    HW243617   2.597   3.884   8.166 -0.2470 -0.2958  0.1836
14347SOL     OW43618   5.584   6.849   1.156  0.4593  0.5969  0.0559
14347SOL    HW143619   5.594   6.845   1.251  0.6851 -1.1562  0.0004
14347SOL    HW243620   5.493   6.876   1.142  0.4715  1.0166  0.7677
14348SOL     OW43621   7.579   3.179   5.740  0.3984  0.1443  0.1652
14348SOL    HW143622   7.552   3.241   5.673 -0.2087 -2.2559 -1.9619
14348SOL    HW243623   7.524   3.200   5.816 -2.7233 -0.2432 -1.8050
14349SOL     OW43624   1.585   5.057   4.414  0.5037 -0.2874  0.6197
14349SOL    HW143625   1.600   4.964   4.398  1.4762 -0.1048  0.3754
14349SOL    HW243626   1.554   5.092   4.330 -2.1267 -0.7866  1.2887
14350SOL     OW43627   3.993   3.171   9.654 -0.5947 -0.2063 -0.5847
14350SOL    HW143628   3.931   3.191   9.585 -0.0632  0.4982 -0.8720
14350SOL    HW243629   4.005   3.253   9.701  1.5523  0.2108 -1.7213
14351SOL     OW43630   2.104   7.321   1.982  0.1352  0.0659  0.2004
14351SOL    HW143631   2.169   7.282   2.041 -1.0928 -0.4739  1.2703
14351SOL    HW243632   2.073   7.247   1.929 -0.1512  0.1503  0.2463
14352SOL     OW43633   8.750   3.619   9.534  0.1893 -0.4982  0.5587
14352SOL    HW143634   8.701   3.599   9.614  0.6954 -1.5259  0.6307
14352SOL    HW243635   8.782   3.534   9.504 -0.8093 -0.2629 -1.2859
14353SOL     OW43636   9.266   2.659   5.714 -0.0472 -0.0506  0.0908
14353SOL    HW143637   9.268   2.686   5.806  0.0215 -1.5894  0.5867
14353SOL    HW243638   9.354   2.679   5.681 -0.0888  0.5567  0.3514
14354SOL     OW43639   5.798   1.224   1.454 -0.2694 -0.3950  0.1014
14354SOL    HW143640   5.880   1.273   1.455  0.3918 -1.4893  1.0456
14354SOL    HW243641   5.811   1.153   1.517 -1.4470 -1.3811 -0.7131
14355SOL     OW43642   6.148   0.187   9.063  0.8153  0.2415  0.0314
14355SOL    HW143643   6.150   0.179   8.968  0.8219 -0.4700  0.0860
14355SOL    HW243644   6.116   0.275   9.079  0.3212  0.1874 -0.6278
14356SOL     OW43645   6.606   0.467   4.608  0.0989  0.1452 -0.1777
14356SOL    HW143646   6.627   0.534   4.674  0.5700 -0.1798  0.0028
14356SOL    HW243647   6.691   0.431   4.583 -0.1871 -0.7317  0.0855
14357SOL     OW43648   2.541   4.886   6.489  0.3003 -0.1789  0.2532
14357SOL    HW143649   2.472   4.906   6.427 -1.0898  0.1059  1.8202
14357SOL    HW243650   2.617   4.935   6.458 -0.0042 -0.8764 -1.7688
14358SOL     OW43651   7.577   1.693   0.367  0.0979  0.1097  0.2848
14358SOL    HW143652   7.513   1.640   0.416 -0.1268  1.4929  1.5631
14358SOL    HW243653   7.661   1.651   0.385 -0.4079 -2.0901 -1.8929
14359SOL     OW43654   9.593   5.090   1.289 -0.6859 -0.6146  0.1140
14359SOL    HW143655   9.507   5.127   1.303 -0.8551 -0.4333 -1.2166
14359SOL    HW243656   9.635   5.092   1.375 -1.9841 -0.6848  0.7730
14360SOL     OW43657   1.204   1.422   9.384  0.3052  0.3171 -0.1214
14360SOL    HW143658   1.233   1.402   9.473  0.5164 -1.0420 -0.4823
14360SOL    HW243659   1.122   1.469   9.396 -0.1642 -0.6883  0.7854
14361SOL     OW43660   8.526   2.790   2.726 -0.3850 -0.2508 -0.0894
14361SOL    HW143661   8.431   2.789   2.711 -0.4897 -0.1522  0.5602
14361SOL    HW243662   8.562   2.836   2.650 -0.7056 -1.7315 -1.1908
14362SOL     OW43663   7.252   8.056   4.932  0.0273  0.2741  0.7950
14362SOL    HW143664   7.306   8.067   4.853 -0.9393  2.1376  0.3554
14362SOL    HW243665   7.313   8.073   5.004  0.5393  0.1610  0.4006
14363SOL     OW43666   1.923   0.256   3.368  0.4606  0.0752  0.5364
14363SOL    HW143667   1.889   0.339   3.403  1.8875  0.9511 -0.0200
14363SOL    HW243668   1.888   0.251   3.279  1.3913  0.7817  0.1013
14364SOL     OW43669   0.918   5.232   9.194 -0.1712  0.0465  0.0461
14364SOL    HW143670   0.860   5.169   9.238 -0.8746 -0.3553 -1.4036
14364SOL    HW243671   0.869   5.314   9.194 -1.2768 -0.5437 -2.1250
14365SOL     OW43672   1.932   6.974   0.132 -0.3547 -0.0808 -0.0892
14365SOL    HW143673   1.970   7.012   0.054 -0.5583 -1.2283 -0.7694
14365SOL    HW243674   1.873   7.042   0.165 -1.2715 -0.0579 -1.6738
14366SOL     OW43675   5.908   1.737   9.852 -0.4926  0.2647 -0.2336
14366SOL    HW143676   5.875   1.756   9.940  0.8984 -1.7492  0.7807
14366SOL    HW243677   5.896   1.820   9.804 -1.0006  1.5085  1.9118
14367SOL     OW43678   8.071   2.683   5.938 -0.3821  1.0630 -0.5738
14367SOL    HW143679   8.113   2.710   5.857  1.8579 -1.0134 -0.2189
14367SOL    HW243680   8.017   2.608   5.914  1.1624 -0.2860 -0.0839
14368SOL     OW43681   7.393   4.102   9.857  0.6371  0.6574  0.2197
14368SOL    HW143682   7.322   4.067   9.803  0.8405  2.8887 -1.6586
14368SOL    HW243683   7.353   4.116   9.942 -0.6073 -0.0568 -0.2162
14369SOL     OW43684   1.159   1.640   2.079  0.0813  0.4529 -0.0118
14369SOL    HW143685   1.168   1.729   2.115  1.1262  0.1027  0.6606
14369SOL    HW243686   1.075   1.610   2.111 -1.1607  1.8531 -1.7740
14370SOL     OW43687   7.755   0.708   4.794 -0.3819  0.3944 -0.0489
14370SOL    HW143688   7.826   0.673   4.849 -0.5676  2.1336  1.4131
14370SOL    HW243689   7.773   0.673   4.707  1.8728  0.2010  0.4159
14371SOL     OW43690   0.396   4.793   6.720  0.3974 -0.2905 -0.3712
14371SOL    HW143691   0.423   4.703   6.738 -0.0418 -0.1344  1.1795
14371SOL    HW243692   0.438   4.814   6.637 -1.0361 -2.5484 -1.7565
14372SOL     OW43693   5.156   7.246   2.580  0.2224  0.3005  0.1347
14372SOL    HW143694   5.224   7.181   2.597 -2.2489 -2.0325  1.9305
14372SOL    HW243695   5.185   7.324   2.627  1.0878 -1.0352  1.9151
14373SOL     OW43696   4.088   9.731   8.751 -0.2162 -0.7290  0.0349
14373SOL    HW143697   4.085   9.789   8.827  0.6375  1.0741 -1.2195
14373SOL    HW243698   4.016   9.670   8.764 -0.2810 -0.2727  2.1152
14374SOL     OW43699   3.834   1.212   6.109 -0.0040 -0.5153  0.3403
14374SOL    HW143700   3.928   1.231   6.105 -0.0561 -0.3896 -0.5470
14374SOL    HW243701   3.792   1.290   6.071 -0.5146 -0.2813  1.3428
14375SOL     OW43702   6.874   0.725   4.969 -0.6465 -0.0554 -0.4227
14375SOL    HW143703   6.913   0.707   5.055 -0.6451 -0.8509 -0.5762
14375SOL    HW243704   6.885   0.819   4.957  0.6455 -0.1565 -0.1773
14376SOL     OW43705   0.369   1.025   2.610  0.3371 -0.7110 -0.3262
14376SOL    HW143706   0.426   0.966   2.659  1.8041  0.6976 -0.2695
14376SOL    HW243707   0.385   1.003   2.518  2.5964  1.0221 -0.4217
14377SOL     OW43708   4.225   5.060   6.166  0.0888  0.2023 -0.3267
14377SOL    HW143709   4.255   5.143   6.129 -0.9240  0.9383  0.4730
14377SOL    HW243710   4.235   5.070   6.261  2.6675 -1.6658 -0.3017
14378SOL     OW43711   7.988   2.248   0.591 -0.4150 -0.1832  0.0398
14378SOL    HW143712   8.045   2.283   0.659  1.0305 -0.2194 -1.0838
14378SOL    HW243713   7.965   2.161   0.621  1.4609 -0.8045 -0.1508
14379SOL     OW43714   8.547   6.905   9.185  0.3604  0.4557  0.4029
14379SOL    HW143715   8.617   6.915   9.249 -0.4382 -1.3051  1.6240
14379SOL    HW243716   8.473   6.953   9.222  0.7472  2.0089 -0.7150
14380SOL     OW43717   1.335   0.927   5.966 -0.5260  0.1918 -0.0297
14380SOL    HW143718   1.318   0.867   5.894  0.3808 -1.0715  0.7686
14380SOL    HW243719   1.393   0.993   5.928  0.7718 -1.0205 -0.2337
14381SOL     OW43720   6.615   7.389   0.923  0.0740 -0.5235 -0.3419
14381SOL    HW143721   6.609   7.301   0.960 -0.5285 -0.8170 -1.1000
14381SOL    HW243722   6.630   7.446   0.998 -1.4336 -1.0553  0.4165
14382SOL     OW43723   4.442   0.048   0.359  0.5125  0.1509 -0.7818
14382SOL    HW143724   4.406   0.109   0.293 -1.0461 -1.8716 -1.9284
14382SOL    HW243725   4.366  -0.003   0.387  1.8520 -1.6545 -0.3163
14383SOL     OW43726   7.248   6.556   9.698 -0.1195 -0.1427 -0.5466
14383SOL    HW143727   7.298   6.498   9.754 -0.2058  0.6437  0.3810
14383SOL    HW243728   7.276   6.644   9.724 -0.3328  0.2439 -1.5877
14384SOL     OW43729   5.271   5.862   4.394  0.5269 -0.2900  0.2469
14384SOL    HW143730   5.258   5.796   4.326 -2.6549  1.0704 -0.6544
14384SOL    HW243731   5.199   5.847   4.455  2.4713 -0.5317  2.6189
14385SOL     OW43732   2.912   3.138   9.495 -0.0436 -0.4828  0.1406
14385SOL    HW143733   2.870   3.067   9.543  1.7931 -1.7841 -0.0685
14385SOL    HW243734   2.990   3.098   9.456  0.0285  1.1864 -1.6134
14386SOL     OW43735   1.288   1.814   8.258 -0.3819 -0.3033  0.2460
14386SOL    HW143736   1.257   1.727   8.232  1.7608 -0.8388 -0.7883
14386SOL    HW243737   1.353   1.796   8.326 -0.0234  0.4825  0.1198
14387SOL     OW43738   6.599   8.489   6.503 -0.4129  0.0980  0.0247
14387SOL    HW143739   6.584   8.455   6.591 -1.0909  0.3518  0.0179
14387SOL    HW243740   6.662   8.429   6.464  0.6828  0.5567  1.0261
14388SOL     OW43741   7.821   8.630   2.944  0.3565  0.2887  0.3014
14388SOL    HW143742   7.853   8.617   2.855  0.2492  1.2534  0.1105
14388SOL    HW243743   7.897   8.613   3.000  0.5231  0.0442 -0.0009
14389SOL     OW43744   8.410   1.230   1.127  0.0856  0.2901 -0.0377
14389SOL    HW143745   8.399   1.254   1.219 -0.7329 -1.8664  0.4901
14389SOL    HW243746   8.325   1.249   1.087 -0.0058 -0.0693 -0.0171
14390SOL     OW43747   6.604   1.364   2.335  0.0536 -0.4089 -0.0424
14390SOL    HW143748   6.591   1.306   2.260 -1.3291 -1.0465  0.6422
14390SOL    HW243749   6.536   1.338   2.397  0.7855  0.4995  1.1943
14391SOL     OW43750   8.332   6.554   8.041  0.1782 -0.2037  0.5778
14391SOL    HW143751   8.370   6.474   8.077  0.2290 -0.1298  0.6878
14391SOL    HW243752   8.408   6.607   8.016  0.1543  0.0761  1.0821
14392SOL     OW43753   6.698   1.478   4.076  0.3681 -0.1142  0.3002
14392SOL    HW143754   6.603   1.466   4.079  0.5691 -2.2088 -0.1980
14392SOL    HW243755   6.718   1.529   4.154 -1.2048  0.9000  0.0977
14393SOL     OW43756   7.484   5.948   2.264 -0.2652  0.4135 -0.1218
14393SOL    HW143757   7.525   6.032   2.244  0.7403 -0.2801 -1.1243
14393SOL    HW243758   7.427   5.931   2.188 -0.4211  0.1628  0.0497
14394SOL     OW43759   3.031   2.857   1.242  0.1647 -0.5114  0.5215
14394SOL    HW143760   3.118   2.854   1.202  0.7880 -0.2884  1.7955
14394SOL    HW243761   2.988   2.932   1.199  0.2847 -1.1011 -0.6769
14395SOL     OW43762   8.431   3.412   1.176 -0.6731  0.0276 -0.8539
14395SOL    HW143763   8.452   3.337   1.120  2.8450  0.1825  0.0478
14395SOL    HW243764   8.475   3.486   1.135  1.6197  0.2320  1.7281
14396SOL     OW43765   9.938   0.332   6.281  0.6392 -0.2607  0.4933
14396SOL    HW143766   9.918   0.243   6.308  1.9175 -1.0485 -0.9525
14396SOL    HW243767   9.969   0.376   6.360  0.0495 -1.1005  1.2052
14397SOL     OW43768   4.789   3.041   4.968  0.4410  0.0567 -0.6239
14397SOL    HW143769   4.794   3.057   5.062  0.6689  1.4934 -0.8440
14397SOL    HW243770   4.796   3.129   4.929 -0.8424 -0.3870 -1.9327
14398SOL     OW43771   5.997   5.259   7.528 -0.1483  0.1142 -0.4027
14398SOL    HW143772   6.018   5.336   7.582  0.3378  0.3517 -0.9120
14398SOL    HW243773   5.911   5.279   7.490 -1.0229 -0.5457  1.1376
14399SOL     OW43774   3.340   5.792   1.265  0.1543 -0.0311  0.0983
14399SOL    HW143775   3.309   5.702   1.277 -1.0739  0.5834  2.0949
14399SOL    HW243776   3.364   5.798   1.173 -0.1265 -2.2757 -0.1695
14400SOL     OW43777   5.592   5.643   2.361 -0.3731 -0.0469 -0.0212
14400SOL    HW143778   5.549   5.706   2.419  1.0898  2.0977 -1.0984
14400SOL    HW243779   5.562   5.667   2.273  1.0926 -0.0375 -0.5540
14401SOL     OW43780   5.598   1.039   3.571  0.8236  0.0090  0.6428
14401SOL    HW143781   5.503   1.051   3.570  0.7568  0.3196 -2.8730
14401SOL    HW243782   5.615   0.987   3.650 -2.4552 -1.3989  0.6008
14402SOL     OW43783   8.583   0.885   9.201  0.1165  0.2619 -0.4185
14402SOL    HW143784   8.553   0.971   9.172 -0.3871  0.6057  1.0217
14402SOL    HW243785   8.654   0.862   9.141  0.4328  1.7916 -0.6644
14403SOL     OW43786   6.052   1.569   2.301  0.2736 -0.4182  0.0706
14403SOL    HW143787   6.107   1.541   2.375  1.7193 -2.3184 -1.6217
14403SOL    HW243788   6.080   1.514   2.228  0.1433  2.5658 -2.4119
14404SOL     OW43789   3.850   3.506   0.721  0.4367  0.0991  0.5468
14404SOL    HW143790   3.888   3.473   0.640 -0.2853  3.0024 -1.1416
14404SOL    HW243791   3.861   3.435   0.784  1.2406 -2.2155 -2.0040
14405SOL     OW43792   8.084   9.637   7.929 -0.0307 -0.0254 -0.4337
14405SOL    HW143793   8.135   9.718   7.930  2.0275 -1.2428 -1.0687
14405SOL    HW243794   8.085   9.609   7.838  1.5720 -2.1015  0.1594
14406SOL     OW43795   7.182   2.314   4.341 -0.1012 -0.3031  0.2756
14406SOL    HW143796   7.208   2.234   4.386 -0.4295  0.1855  1.3709
14406SOL    HW243797   7.166   2.377   4.411  0.4514  0.8208 -0.5717
14407SOL     OW43798   6.301   1.178   7.839 -0.4834 -0.0083 -0.2091
14407SOL    HW143799   6.256   1.112   7.892  0.1026 -1.3748 -1.3527
14407SOL    HW243800   6.393   1.150   7.839 -0.8139 -1.5702 -3.9961
14408SOL     OW43801   2.649   8.552   1.350  0.1066 -0.2270 -0.9352
14408SOL    HW143802   2.599   8.524   1.273  0.0144 -0.4990 -0.7777
14408SOL    HW243803   2.601   8.515   1.424  0.1787  0.0608 -0.7448
14409SOL     OW43804   2.137   8.524   8.398 -0.2403 -0.0306  0.3489
14409SOL    HW143805   2.227   8.530   8.364 -0.6256 -0.5034 -0.8285
14409SOL    HW243806   2.109   8.614   8.408 -0.1735  0.1479 -0.8456
14410SOL     OW43807   7.218   4.696   6.662  0.0426  0.6109 -0.0124
14410SOL    HW143808   7.236   4.728   6.574 -0.2253 -0.3106 -0.4224
14410SOL    HW243809   7.136   4.647   6.653  0.4938 -0.2792  0.5292
14411SOL     OW43810   6.458   4.082   1.438 -0.0803 -0.2636 -0.6145
14411SOL    HW143811   6.530   4.049   1.385 -0.7866  0.4351 -2.0692
14411SOL    HW243812   6.390   4.015   1.431  0.1708 -0.6214  0.2278
14412SOL     OW43813   7.438   8.552   1.257 -0.6505 -0.3485 -0.1040
14412SOL    HW143814   7.473   8.637   1.232  0.1540  0.1489  2.4505
14412SOL    HW243815   7.350   8.571   1.290 -0.2083 -0.3866  1.1195
14413SOL     OW43816   9.829   5.886   2.618  0.8312 -0.0024 -0.3245
14413SOL    HW143817   9.831   5.793   2.592  2.4430 -0.2265  0.5205
14413SOL    HW243818   9.753   5.921   2.571 -1.8725 -2.4604  1.7661
14414SOL     OW43819   4.543   0.026   3.756 -0.2556  0.3880  0.3725
14414SOL    HW143820   4.469   0.032   3.695  1.3833  0.2172 -1.7601
14414SOL    HW243821   4.523  -0.050   3.811 -0.9372 -0.6829 -1.2640
14415SOL     OW43822   3.786   0.451   9.757  0.3013  1.0279  0.1737
14415SOL    HW143823   3.699   0.437   9.719  1.3825 -0.5356 -1.9169
14415SOL    HW243824   3.845   0.456   9.681  2.4225 -0.9744  1.5686
14416SOL     OW43825   4.255   0.946   7.932  0.4373 -0.8015  0.2872
14416SOL    HW143826   4.237   1.039   7.921  0.4059 -0.6006  1.8622
14416SOL    HW243827   4.174   0.902   7.906  0.4827 -0.4172 -0.5514
14417SOL     OW43828   7.982   8.589   0.778  0.8286 -0.0187  0.2317
14417SOL    HW143829   8.065   8.543   0.790  2.2884  2.1984 -0.5663
14417SOL    HW243830   7.957   8.572   0.687  0.7606 -0.1525  0.2754
14418SOL     OW43831   9.608   8.597   5.142 -0.2085 -0.1259  0.7159
14418SOL    HW143832   9.676   8.585   5.076 -0.4839 -1.3403  0.6295
14418SOL    HW243833   9.649   8.649   5.211  0.5969 -0.2866  0.3596
14419SOL     OW43834   6.452   6.205   6.378  0.2774 -0.6668  0.5503
14419SOL    HW143835   6.530   6.229   6.327  0.4002  2.2938  1.9468
14419SOL    HW243836   6.477   6.125   6.423  0.9048 -2.2150 -2.2814
14420SOL     OW43837   6.678   0.690   6.636  0.5850  0.1043 -0.2360
14420SOL    HW143838   6.712   0.697   6.726  0.3336 -1.0707 -0.0342
14420SOL    HW243839   6.606   0.628   6.642 -1.1949  2.0060 -0.7976
14421SOL     OW43840   3.995   5.162   3.199  0.4067  0.3959  0.0030
14421SOL    HW143841   3.957   5.090   3.149 -1.7395  0.4743  1.4082
14421SOL    HW243842   3.992   5.237   3.140  0.5164 -0.1384 -0.6874
14422SOL     OW43843   5.638   6.863   3.616  0.6827  0.8619 -0.6748
14422SOL    HW143844   5.609   6.795   3.677  0.6073 -0.6980 -2.3815
14422SOL    HW243845   5.727   6.837   3.593  0.2165  0.6018 -2.2980
14423SOL     OW43846   8.756   4.282   1.587 -1.2400  0.0992 -0.2049
14423SOL    HW143847   8.737   4.265   1.679 -1.0117 -0.5173 -0.2684
14423SOL    HW243848   8.837   4.233   1.569 -2.4231 -1.5838 -1.2756
14424SOL     OW43849   6.975   7.775   3.807 -0.2392 -0.2165  0.0187
14424SOL    HW143850   6.926   7.832   3.867 -0.6062 -2.5769  2.1228
14424SOL    HW243851   7.064   7.810   3.809 -0.1023 -0.5287  2.4573
14425SOL     OW43852   2.845   1.886   1.441  0.3523  0.2298 -0.0971
14425SOL    HW143853   2.842   1.823   1.370 -2.8043 -0.8127  0.7629
14425SOL    HW243854   2.779   1.952   1.417 -0.5114  0.0503  1.6155
14426SOL     OW43855   5.356   3.614   2.204  0.0247 -0.6784  0.5848
14426SOL    HW143856   5.446   3.594   2.229  0.4744 -1.7564 -1.6736
14426SOL    HW243857   5.303   3.554   2.256  0.3766  1.0754  3.1818
14427SOL     OW43858   0.077   1.820   3.360  0.2578  0.0513  0.2488
14427SOL    HW143859   0.023   1.890   3.397  1.4732  1.4349 -0.5373
14427SOL    HW243860   0.015   1.767   3.310 -0.2757  2.1580 -1.4594
14428SOL     OW43861   2.728   0.135   6.364 -0.6223 -0.2168  0.0138
14428SOL    HW143862   2.696   0.138   6.454 -1.5670  0.0020 -0.3138
14428SOL    HW243863   2.770   0.219   6.350 -2.3577  0.6403 -0.3933
14429SOL     OW43864   9.937   3.132   0.558 -0.2818 -0.1268  0.4088
14429SOL    HW143865   9.910   3.050   0.601  0.3606  0.7375  2.5745
14429SOL    HW243866   9.860   3.159   0.508  0.0007 -2.8463 -1.7387
14430SOL     OW43867   9.147   7.323   8.310 -0.2497  0.0074  0.2599
14430SOL    HW143868   9.090   7.362   8.243  0.7262  1.8902  0.4473
14430SOL    HW243869   9.168   7.396   8.368  3.1497 -0.3450 -0.3597
14431SOL     OW43870   8.390   6.275   1.703  0.6713  0.1695  0.0564
14431SOL    HW143871   8.332   6.288   1.777 -0.8841  0.7467 -1.2127
14431SOL    HW243872   8.393   6.360   1.659 -0.2776 -0.7160 -1.8100
14432SOL     OW43873   1.615   1.934   9.638 -0.0793 -0.0733  0.6406
14432SOL    HW143874   1.553   1.991   9.592 -0.5625 -1.1175 -0.0401
14432SOL    HW243875   1.689   1.991   9.658 -0.5112  0.7760 -0.0877
14433SOL     OW43876   7.831   8.613   8.208  0.0451 -0.5709 -0.1992
14433SOL    HW143877   7.887   8.547   8.167 -0.2075 -0.4054 -0.8295
14433SOL    HW243878   7.890   8.684   8.232  0.3921 -1.2098  0.9118
14434SOL     OW43879   7.710   1.677   6.905  0.0038 -1.2339 -0.1338
14434SOL    HW143880   7.791   1.718   6.937 -0.7204 -0.8214  1.2729
14434SOL    HW243881   7.642   1.744   6.920 -0.8481 -2.1415  0.1621
14435SOL     OW43882   5.996   3.307   8.414 -0.1213 -0.2282 -0.3360
14435SOL    HW143883   5.916   3.270   8.452 -0.4385  0.1059 -0.6687
14435SOL    HW243884   6.002   3.267   8.327  0.9636 -1.5029  0.2890
14436SOL     OW43885   8.788   1.081   0.225 -0.5754 -0.3248 -0.1529
14436SOL    HW143886   8.727   1.014   0.194  0.3720 -0.6919 -1.2854
14436SOL    HW243887   8.769   1.158   0.171 -0.6990 -0.1373  0.1599
14437SOL     OW43888   1.456   0.375   9.084 -0.1752  0.2188 -0.1194
14437SOL    HW143889   1.416   0.359   9.169  0.0374  0.5735  0.0471
14437SOL    HW243890   1.515   0.449   9.098  1.6106 -1.1408 -0.0243
14438SOL     OW43891   7.355   5.442   3.695  0.3572 -0.6007  0.2592
14438SOL    HW143892   7.413   5.448   3.620  1.4856 -1.4793  1.0299
14438SOL    HW243893   7.413   5.444   3.771 -0.8072  1.1357  1.1765
14439SOL     OW43894   2.764   5.682   1.346  0.5939 -0.2716 -0.2292
14439SOL    HW143895   2.668   5.681   1.343  0.6160  0.1157 -2.1413
14439SOL    HW243896   2.786   5.770   1.379  0.3125 -0.4356  0.4203
14440SOL     OW43897   9.639   0.057   0.923 -0.0792  0.3334  0.4249
14440SOL    HW143898   9.629   0.099   0.838  1.8186  0.0460  0.0132
14440SOL    HW243899   9.591   0.113   0.984 -1.2378  0.6869 -0.7750
14441SOL     OW43900   8.399   3.254   7.101 -0.5362  0.4134 -0.0969
14441SOL    HW143901   8.363   3.342   7.115  1.1157  1.0590  0.3193
14441SOL    HW243902   8.408   3.246   7.006  0.2396  1.1017 -0.0899
14442SOL     OW43903   1.876   4.046   6.259 -0.5351  0.2408 -0.4254
14442SOL    HW143904   1.902   4.126   6.213 -0.1083 -0.1266 -0.8272
14442SOL    HW243905   1.833   3.993   6.193 -2.1817  0.7571  0.1864
14443SOL     OW43906   5.208   8.708   3.988 -0.3235  0.4380 -0.3894
14443SOL    HW143907   5.122   8.680   4.019 -1.0639  1.6503 -1.2529
14443SOL    HW243908   5.240   8.769   4.055  0.0255 -0.2686  0.0956
14444SOL     OW43909   6.456   3.711   3.149  0.2065 -0.2268  0.2082
14444SOL    HW143910   6.372   3.681   3.113 -0.1626  0.0564  0.8076
14444SOL    HW243911   6.520   3.646   3.119 -0.2357 -0.4788 -0.2081
14445SOL     OW43912   8.037   5.493   0.235 -0.0851 -0.3402 -0.8309
14445SOL    HW143913   8.049   5.444   0.153  0.7225 -1.7811  0.1027
14445SOL    HW243914   8.126   5.511   0.266 -0.3597 -0.7050  0.2220
14446SOL     OW43915   8.629   9.855   4.973 -0.3920 -0.9719  0.3608
14446SOL    HW143916   8.619   9.788   5.041 -0.3414 -0.3916  0.9593
14446SOL    HW243917   8.630   9.807   4.891  1.3315 -1.8909  0.8597
14447SOL     OW43918   4.373   0.948   7.483  0.2022  0.3030 -1.0210
14447SOL    HW143919   4.445   0.923   7.541  1.1619  1.4994 -1.6630
14447SOL    HW243920   4.304   0.980   7.542  1.1169  1.4024 -0.5132
14448SOL     OW43921   0.938   5.228   6.934  0.2252  0.7600 -0.0121
14448SOL    HW143922   0.865   5.193   6.884  0.1422  1.2226 -0.2149
14448SOL    HW243923   1.016   5.189   6.894  0.1420  0.9162 -0.3301
14449SOL     OW43924   2.591   0.586   7.840  0.0812 -0.0406 -0.1530
14449SOL    HW143925   2.549   0.544   7.916  1.3048  0.7556  1.0111
14449SOL    HW243926   2.543   0.668   7.829  0.1783  0.0450  0.0490
14450SOL     OW43927   7.847   3.412   9.359 -0.1683 -0.7304 -0.3770
14450SOL    HW143928   7.833   3.396   9.265  0.3835  0.5984 -0.7128
14450SOL    HW243929   7.906   3.341   9.386  0.5112 -0.5471 -1.2943
14451SOL     OW43930   1.566   8.602   8.694  0.2577  0.6606 -0.1334
14451SOL    HW143931   1.580   8.562   8.779  1.4557  0.8216 -0.2341
14451SOL    HW243932   1.566   8.529   8.632 -2.0166  0.3866  0.1034
14452SOL     OW43933   8.120   8.543   2.880  0.0866  0.0413  0.1244
14452SOL    HW143934   8.142   8.581   2.965 -1.1131 -0.3515  0.6355
14452SOL    HW243935   8.087   8.455   2.901 -0.4064  0.0117 -0.7223
14453SOL     OW43936   2.931   7.713   9.125  0.3939  0.4916 -0.2800
14453SOL    HW143937   3.012   7.762   9.123  0.8155 -0.1864 -0.0836
14453SOL    HW243938   2.958   7.621   9.126 -0.3622  0.1675 -2.5805
14454SOL     OW43939   6.972   7.783   8.540 -0.7525 -0.1973 -0.3677
14454SOL    HW143940   6.993   7.861   8.591  2.0508 -1.2125  0.2021
14454SOL    HW243941   6.949   7.816   8.453 -1.2036  1.3211  0.3024
14455SOL     OW43942   4.828   0.749   7.140  0.1373  0.0648 -0.1981
14455SOL    HW143943   4.750   0.693   7.150  1.7915 -2.4191 -0.4319
14455SOL    HW243944   4.819   0.787   7.053 -0.2203 -1.2201 -0.7455
14456SOL     OW43945   1.386   3.122   9.884  0.2625  0.0786 -0.2464
14456SOL    HW143946   1.400   3.215   9.901  1.8423 -0.2621  0.5588
14456SOL    HW243947   1.349   3.118   9.796  0.2991  1.4446 -0.3403
14457SOL     OW43948   3.597   8.441   8.834 -0.1190 -0.1520 -0.1312
14457SOL    HW143949   3.555   8.492   8.764  1.7105  1.0534 -0.3920
14457SOL    HW243950   3.671   8.494   8.862 -0.6985 -0.6764  2.6701
14458SOL     OW43951   6.846   3.551   0.644  0.1107  0.8518 -0.3802
14458SOL    HW143952   6.904   3.500   0.586  0.6604  0.5813  0.3974
14458SOL    HW243953   6.780   3.587   0.585  0.4913  0.3383 -1.1416
14459SOL     OW43954   0.539   7.545   8.876  0.1479  0.8706 -0.0484
14459SOL    HW143955   0.469   7.479   8.880  0.8087  0.0174 -1.5840
14459SOL    HW243956   0.536   7.578   8.786  2.2874  0.1332 -0.4468
14460SOL     OW43957   4.086   3.837   4.696  0.0964 -0.1786 -0.2181
14460SOL    HW143958   4.003   3.868   4.658  0.9042  0.0800 -1.8751
14460SOL    HW243959   4.062   3.762   4.749 -1.2277 -0.0426 -0.5876
14461SOL     OW43960   3.540   8.868   8.128 -0.1564  0.5572  0.1078
14461SOL    HW143961   3.563   8.787   8.081  3.1003  1.4833 -0.1168
14461SOL    HW243962   3.454   8.893   8.092 -0.0991 -1.4486 -1.6306
14462SOL     OW43963   8.777   8.363   4.988 -0.0181  0.1902  0.0003
14462SOL    HW143964   8.770   8.445   5.038 -2.3873  0.7556 -1.1172
14462SOL    HW243965   8.689   8.326   4.990  0.3815 -0.9739 -1.7639
14463SOL     OW43966   5.566   7.594   1.481  0.2575  0.0726  0.2042
14463SOL    HW143967   5.629   7.643   1.534  0.4378  0.3672 -0.2720
14463SOL    HW243968   5.546   7.652   1.408 -1.4780  0.4542  0.9505
14464SOL     OW43969   8.570   6.337   6.533 -0.3048  0.0561  0.0334
14464SOL    HW143970   8.596   6.341   6.625 -1.7690 -1.3235  0.5590
14464SOL    HW243971   8.552   6.244   6.518 -0.2096  0.2820 -1.6155
14465SOL     OW43972   3.386   6.741   3.795 -0.3230 -0.5061 -0.2186
14465SOL    HW143973   3.373   6.766   3.887  1.9600 -1.5227  0.4444
14465SOL    HW243974   3.366   6.647   3.794  2.5391 -1.2018 -0.0184
14466SOL     OW43975   0.696   9.210   5.937 -0.0241  0.7115  0.2054
14466SOL    HW143976   0.616   9.160   5.952 -0.0674  0.3689 -1.0397
14466SOL    HW243977   0.688   9.240   5.846  1.1696  0.8294  0.1310
14467SOL     OW43978   3.362   9.479   5.295  0.2586 -0.3446 -0.0966
14467SOL    HW143979   3.350   9.385   5.281 -0.3535 -0.2731 -0.0407
14467SOL    HW243980   3.389   9.512   5.209 -0.3068 -0.4399 -0.3127
14468SOL     OW43981   5.642   3.796   3.888 -0.0057  0.9380  0.0125
14468SOL    HW143982   5.637   3.738   3.812 -0.9614 -1.9842  2.1469
14468SOL    HW243983   5.735   3.817   3.896  0.1480  1.0882 -1.7248
14469SOL     OW43984   4.157   8.019   7.802  0.0392 -0.1922 -0.2943
14469SOL    HW143985   4.151   7.967   7.882 -1.8553 -0.3074 -0.4671
14469SOL    HW243986   4.071   8.060   7.793  0.3631  0.1984 -2.0258
14470SOL     OW43987   5.501   4.184   0.360 -0.2442 -0.4075  0.1683
14470SOL    HW143988   5.459   4.247   0.302 -0.3903  0.0860  0.8034
14470SOL    HW243989   5.470   4.207   0.447 -0.2537 -1.3261  0.4185
14471SOL     OW43990   5.971   5.697   3.808  0.4337  0.1131  0.5888
14471SOL    HW143991   5.978   5.641   3.885  1.7817 -0.0035  0.3994
14471SOL    HW243992   5.885   5.675   3.771 -0.7967  1.0693  2.7036
14472SOL     OW43993   9.093   8.291   3.829 -0.3123  0.2574  0.0960
14472SOL    HW143994   9.114   8.213   3.879 -1.5632  0.2466  0.6528
14472SOL    HW243995   9.075   8.358   3.895 -2.3351  0.1497 -0.2691
14473SOL     OW43996   1.061   4.664   3.563 -0.0946 -0.1386 -0.3039
14473SOL    HW143997   1.034   4.615   3.641  0.8401 -1.6902 -0.9018
14473SOL    HW243998   1.127   4.725   3.594  0.1250 -0.6042  0.1575
14474SOL     OW43999   0.131   5.411   4.105  0.7227  0.3566 -0.3397
14474SOL    HW144000   0.101   5.478   4.166  0.5707  0.4774 -0.5452
14474SOL    HW244001   0.136   5.331   4.158 -0.3149  0.2494 -0.3667
14475SOL     OW44002   9.155   0.674   5.370 -0.0517  0.5798 -0.0618
14475SOL    HW144003   9.214   0.626   5.428 -0.2827 -1.0478 -1.1173
14475SOL    HW244004   9.213   0.729   5.317  0.5013 -0.7024 -0.8178
14476SOL     OW44005   4.844   7.087   0.297  0.0205 -0.3129  0.1260
14476SOL    HW144006   4.894   7.168   0.308  1.7693 -1.0762 -1.5983
14476SOL    HW244007   4.870   7.033   0.371  0.2887  0.0136  0.2746
14477SOL     OW44008   9.006   1.612   8.086 -0.2979 -0.0759  0.0701
14477SOL    HW144009   8.931   1.660   8.119  1.2722  2.1853  0.6124
14477SOL    HW244010   9.071   1.616   8.157  0.5938 -1.3390 -0.6287
14478SOL     OW44011   1.559   5.734   3.045 -0.5370 -0.1796 -0.0460
14478SOL    HW144012   1.529   5.764   3.130  0.8156  0.3491  0.2681
14478SOL    HW244013   1.548   5.639   3.048 -3.2755  0.0514 -0.4289
14479SOL     OW44014   7.334   9.476   0.864  0.0868  0.2179  0.1592
14479SOL    HW144015   7.324   9.508   0.774  1.0917 -0.3326 -0.1751
14479SOL    HW244016   7.272   9.404   0.871 -1.8600  1.8765  0.7725
14480SOL     OW44017   3.598   6.690   8.577  0.0027 -0.2662  0.4841
14480SOL    HW144018   3.656   6.762   8.601  1.6117 -0.5996 -2.0095
14480SOL    HW244019   3.600   6.631   8.652  2.1724  0.2140  0.8616
14481SOL     OW44020   0.402   2.739   2.985 -0.5251 -0.5395  0.3119
14481SOL    HW144021   0.367   2.780   2.906 -1.5274 -0.5690  0.7301
14481SOL    HW244022   0.341   2.668   3.005  0.3158 -1.2177  0.5049
14482SOL     OW44023   0.292   8.036   0.990  0.6800 -0.4376 -0.3892
14482SOL    HW144024   0.346   8.093   0.936  1.4377 -1.3344 -0.5979
14482SOL    HW244025   0.325   8.049   1.079 -0.2430  0.6685 -0.1799
14483SOL     OW44026   0.556   9.196   9.291 -0.2394 -0.1895 -0.3437
14483SOL    HW144027   0.609   9.189   9.370 -1.3434  0.8027  0.5326
14483SOL    HW244028   0.615   9.171   9.220  2.0545  2.8051  0.3216
14484SOL     OW44029   1.085   1.827   9.470 -0.1388  0.3520  0.1311
14484SOL    HW144030   1.041   1.786   9.395 -1.5527  1.3573  0.3650
14484SOL    HW244031   1.034   1.906   9.487  2.3458  2.1606 -0.1812
14485SOL     OW44032   5.143   1.132   3.723 -0.3015 -0.5099  0.1577
14485SOL    HW144033   5.095   1.082   3.789  1.2031 -0.7572  1.1158
14485SOL    HW244034   5.235   1.121   3.747  0.2884 -0.5434 -1.9665
14486SOL     OW44035   3.943   2.811   9.539  0.1500 -0.4013 -0.0936
14486SOL    HW144036   4.027   2.780   9.505  1.4227  1.5841  1.0247
14486SOL    HW244037   3.964   2.848   9.625 -1.6966  0.9421 -0.1495
14487SOL     OW44038   8.343   1.114   8.306  0.3232  0.2494 -0.1874
14487SOL    HW144039   8.387   1.199   8.301  2.4863 -0.8229 -0.5842
14487SOL    HW244040   8.414   1.051   8.310 -1.2322 -1.5758 -0.1360
14488SOL     OW44041   4.121   3.296   1.696  0.7383 -0.4738  0.2687
14488SOL    HW144042   4.077   3.262   1.774 -1.9660 -0.3348 -1.0432
14488SOL    HW244043   4.113   3.391   1.703 -0.3822 -0.4826 -0.5661
14489SOL     OW44044   0.067   4.474   6.066  0.6289  0.0081 -0.6761
14489SOL    HW144045   0.021   4.390   6.071 -2.8268  1.6766 -1.3152
14489SOL    HW244046   0.100   4.478   5.976 -0.2657 -0.1861 -1.0213
14490SOL     OW44047   9.268   5.026   7.462 -0.5169  0.3078 -0.2616
14490SOL    HW144048   9.217   4.946   7.476 -0.3429  0.6184  2.7414
14490SOL    HW244049   9.209   5.083   7.413 -1.3583 -0.9441 -0.7849
14491SOL     OW44050   9.844   6.681   3.067  0.3849 -0.5821  0.1459
14491SOL    HW144051   9.762   6.634   3.056  0.2115 -0.0769 -0.7677
14491SOL    HW244052   9.896   6.657   2.991  0.3462  0.5893 -0.2638
14492SOL     OW44053   4.031   5.565   5.381  0.1538 -0.5259  0.1740
14492SOL    HW144054   4.064   5.477   5.361 -1.2640 -0.9832 -0.2420
14492SOL    HW244055   4.099   5.624   5.349  0.4899 -1.4255 -0.8301
14493SOL     OW44056   3.254   5.027   2.408  0.1327 -0.3997 -0.4310
14493SOL    HW144057   3.178   5.011   2.463  0.2093 -1.3453 -0.5746
14493SOL    HW244058   3.310   5.084   2.460  0.0770 -1.0565  0.3714
14494SOL     OW44059   6.478   6.763   8.769  0.2330  0.4911  0.0676
14494SOL    HW144060   6.567   6.730   8.783 -0.9246 -3.5707 -0.7081
14494SOL    HW244061   6.436   6.757   8.855 -0.1239 -0.7264 -0.1729
14495SOL     OW44062   5.354   3.292   4.449 -0.0497 -0.0026  0.2369
14495SOL    HW144063   5.353   3.350   4.525 -1.2485  2.0330 -1.2329
14495SOL    HW244064   5.294   3.332   4.387 -1.5149 -3.2208 -0.6522
14496SOL     OW44065   7.352   7.451   1.204  0.1789 -0.2724 -0.3445
14496SOL    HW144066   7.445   7.434   1.189  0.1937  0.3089 -0.9286
14496SOL    HW244067   7.319   7.369   1.243  0.7404 -0.8025 -0.9634
14497SOL     OW44068   6.161   4.211   5.004  0.0922  0.1512  0.3799
14497SOL    HW144069   6.199   4.298   5.020 -1.2001  0.9496 -0.6115
14497SOL    HW244070   6.092   4.202   5.070 -0.5037  0.3694 -0.2024
14498SOL     OW44071   2.024   1.524   4.460 -1.0251  0.1375  0.0463
14498SOL    HW144072   2.015   1.605   4.410  0.7076 -0.9749 -2.2906
14498SOL    HW244073   2.053   1.552   4.546  0.0014  2.0235 -0.8505
14499SOL     OW44074   2.085   9.117   1.939  0.5085  0.5790  0.1887
14499SOL    HW144075   2.157   9.062   1.971 -0.4195 -0.0408  1.2858
14499SOL    HW244076   2.125   9.202   1.923  1.9867 -0.3752 -1.5386
14500SOL     OW44077   3.559   4.041   3.847 -0.1955 -0.0958  0.0280
14500SOL    HW144078   3.653   4.033   3.864 -0.2523 -2.1895 -0.3394
14500SOL    HW244079   3.519   3.976   3.905 -1.3141 -0.0422 -0.6518
14501SOL     OW44080   7.468   2.178   4.409 -0.3329 -0.2859 -0.3773
14501SOL    HW144081   7.489   2.098   4.362  0.6499  0.3530 -1.0819
14501SOL    HW244082   7.379   2.165   4.442  0.2752 -2.1475  0.6061
14502SOL     OW44083   7.387   4.398   7.749 -0.2905 -0.2834 -0.0699
14502SOL    HW144084   7.359   4.450   7.673  0.0530 -2.1513 -1.5287
14502SOL    HW244085   7.306   4.384   7.800 -0.9806 -0.9325 -1.3101
14503SOL     OW44086   5.043   4.779   0.434  0.0368 -0.6061  0.7546
14503SOL    HW144087   5.076   4.743   0.352 -0.5624 -1.6109  0.9444
14503SOL    HW244088   5.121   4.793   0.487  0.3855 -0.3899  0.1946
14504SOL     OW44089   4.299   6.975   1.967 -0.1614  0.1219 -0.1501
14504SOL    HW144090   4.280   6.902   1.908 -1.9804  0.0984  0.4081
14504SOL    HW244091   4.256   7.050   1.926  1.3509  0.8233 -0.5087
14505SOL     OW44092   1.243   1.875   2.871 -0.6761 -0.7916 -0.3031
14505SOL    HW144093   1.300   1.826   2.931 -0.8918 -0.5251  0.1298
14505SOL    HW244094   1.197   1.937   2.928  0.7824  1.0622 -1.0146
14506SOL     OW44095   0.435   1.746   2.584 -0.4882 -0.1049 -0.4747
14506SOL    HW144096   0.464   1.682   2.519  0.1990  1.6647 -2.0171
14506SOL    HW244097   0.482   1.722   2.664  1.6978 -0.1074 -1.6713
14507SOL     OW44098   4.404   2.533   2.989  0.2235 -0.2001  0.0074
14507SOL    HW144099   4.384   2.627   2.996  2.6485  0.4030 -0.2024
14507SOL    HW244100   4.430   2.521   2.898  1.4143 -0.7277  0.3990
14508SOL     OW44101   5.028   5.865   7.847 -0.5115 -0.0483  0.2468
14508SOL    HW144102   5.043   5.839   7.757 -0.2312  2.2957 -0.4288
14508SOL    HW244103   4.935   5.844   7.863 -0.6477 -0.1546 -0.6723
14509SOL     OW44104   2.401   0.620   4.566 -0.2915 -0.0851  0.5338
14509SOL    HW144105   2.366   0.543   4.521 -1.2357  1.2545 -1.1325
14509SOL    HW244106   2.495   0.606   4.568 -0.2987 -0.6032 -1.1086
14510SOL     OW44107   0.202   0.512   5.794  0.2784 -0.3121  0.2674
14510SOL    HW144108   0.138   0.574   5.830 -3.0082 -1.5427 -2.7802
14510SOL    HW244109   0.163   0.426   5.811  0.9702 -1.1091 -1.8158
14511SOL     OW44110   9.426   4.656   6.912 -0.3673 -0.3093 -0.0187
14511SOL    HW144111   9.516   4.683   6.894 -0.3770 -0.1492  0.1639
14511SOL    HW244112   9.388   4.730   6.959 -0.3647 -0.6722  0.5662
14512SOL     OW44113   5.945   7.055   2.710  0.2005 -0.6951 -0.5411
14512SOL    HW144114   5.927   7.019   2.797  1.5599 -0.0607  0.0495
14512SOL    HW244115   5.860   7.060   2.667 -0.6510 -0.1106  1.1252
14513SOL     OW44116   5.524   4.338   5.974  0.0753  0.5119  0.0029
14513SOL    HW144117   5.474   4.346   5.893 -0.6920 -0.5961  0.3505
14513SOL    HW244118   5.580   4.262   5.961 -0.0019  0.3673  0.4879
14514SOL     OW44119   1.010   9.902   3.915 -0.3324  1.1693  0.2826
14514SOL    HW144120   0.923   9.889   3.878 -0.5126 -1.1375  1.3464
14514SOL    HW244121   1.068   9.850   3.860  0.0236  0.9593  0.8459
14515SOL     OW44122   6.100   4.310   4.488 -0.4079 -0.3265 -0.2149
14515SOL    HW144123   6.048   4.294   4.566  0.6791 -1.7802  0.2618
14515SOL    HW244124   6.175   4.362   4.518 -0.9124  0.6894 -0.6609
14516SOL     OW44125   7.521   7.810   4.408  0.3817  0.1512 -0.6340
14516SOL    HW144126   7.614   7.813   4.385  0.0010  0.0647 -2.3181
14516SOL    HW244127   7.481   7.877   4.352 -0.8226 -1.0268 -1.2265
14517SOL     OW44128   5.736   2.397   9.534  0.1088 -0.3707 -0.1134
14517SOL    HW144129   5.714   2.361   9.620  0.3453  0.3358  0.2484
14517SOL    HW244130   5.654   2.391   9.484 -0.4349  0.5315  0.6287
14518SOL     OW44131   3.645   6.598   1.927 -0.3284 -0.4073 -0.0378
14518SOL    HW144132   3.631   6.690   1.951  1.6730  0.2733 -1.2536
14518SOL    HW244133   3.709   6.567   1.991 -3.1459 -1.9453  2.2667
14519SOL     OW44134   2.675   7.792   2.727 -0.2811  0.0364  0.2249
14519SOL    HW144135   2.710   7.715   2.771  0.4498 -0.0224 -0.4259
14519SOL    HW244136   2.678   7.861   2.793 -1.2301 -0.5602  0.8994
14520SOL     OW44137   5.673   0.256   2.558  0.4881 -0.1140 -0.2337
14520SOL    HW144138   5.708   0.293   2.477 -1.0229  0.0047 -0.8749
14520SOL    HW244139   5.713   0.308   2.628 -0.1169  1.4848 -1.0361
14521SOL     OW44140   1.918   6.565   2.425  0.4425  0.3513  0.1873
14521SOL    HW144141   1.958   6.559   2.512  0.3596  1.1900  0.2904
14521SOL    HW244142   1.825   6.550   2.440  0.2670  1.6136  0.4101
14522SOL     OW44143   9.703   6.138   1.126  0.3719  0.1134 -0.1986
14522SOL    HW144144   9.647   6.127   1.203 -1.5324 -1.0805 -1.6888
14522SOL    HW244145   9.790   6.113   1.157 -0.0485  0.9847  1.9058
14523SOL     OW44146   1.801   6.877   1.927 -0.3652  0.3149 -0.1032
14523SOL    HW144147   1.865   6.929   1.975  0.9291 -1.2690 -0.0280
14523SOL    HW244148   1.752   6.831   1.994  0.7137 -1.0645 -0.2306
14524SOL     OW44149   8.948   7.694   7.189 -0.0496  0.3237 -0.0795
14524SOL    HW144150   8.927   7.601   7.199  0.4717  0.1830 -0.2793
14524SOL    HW244151   9.019   7.711   7.251 -0.7107  0.7906  0.5648
14525SOL     OW44152   4.464   8.567   4.658 -0.2143 -0.0075  0.0947
14525SOL    HW144153   4.499   8.624   4.590 -0.6634 -0.0010 -0.1386
14525SOL    HW244154   4.371   8.558   4.636 -0.1949 -0.6434  0.2640
14526SOL     OW44155   7.833   8.270   2.551 -0.4753 -0.5092 -0.4881
14526SOL    HW144156   7.883   8.319   2.486 -0.3930  0.2851  0.1489
14526SOL    HW244157   7.880   8.188   2.562 -0.2806 -0.4922 -1.1482
14527SOL     OW44158   2.362   5.501   6.612 -0.0787 -0.2969  0.2615
14527SOL    HW144159   2.347   5.436   6.543  1.2675  0.3942 -0.7290
14527SOL    HW244160   2.398   5.450   6.685 -2.0140 -1.1210  0.7159
14528SOL     OW44161   0.658   1.226   9.688  0.3167 -1.0722 -0.0882
14528SOL    HW144162   0.680   1.133   9.698  2.0825 -0.9097 -1.7687
14528SOL    HW244163   0.579   1.226   9.633  0.9723 -1.5991 -1.0716
14529SOL     OW44164   6.011   9.226   6.280  0.0996  0.2613  0.2225
14529SOL    HW144165   6.067   9.299   6.305 -0.9538  0.6092  1.7168
14529SOL    HW244166   5.970   9.198   6.362 -2.4630  0.4971 -0.8791
14530SOL     OW44167   1.185   6.439   9.219  0.5173 -0.3067  0.3348
14530SOL    HW144168   1.252   6.413   9.283 -0.0450  1.0523  1.5322
14530SOL    HW244169   1.214   6.525   9.188 -0.7828  0.4311  1.0795
14531SOL     OW44170   0.241   5.872   2.238  0.1390  0.2241 -0.1657
14531SOL    HW144171   0.264   5.911   2.323  1.8965  2.8672 -1.7003
14531SOL    HW244172   0.322   5.877   2.187 -1.0107 -0.7361 -2.1985
14532SOL     OW44173   6.082   1.517   6.438  0.6109 -0.1678  0.2020
14532SOL    HW144174   6.148   1.557   6.380 -0.0478 -0.0473 -0.4824
14532SOL    HW244175   6.053   1.588   6.495  0.6180 -0.0629  0.0760
14533SOL     OW44176   2.690   7.244   8.950  0.0744  0.6450 -0.0563
14533SOL    HW144177   2.714   7.218   9.039 -0.5582  0.2763  0.0103
14533SOL    HW244178   2.651   7.331   8.960  1.0455  1.0952 -0.1216
14534SOL     OW44179   8.648   6.668   9.060 -0.1832  0.6113  0.1011
14534SOL    HW144180   8.727   6.711   9.029 -0.4817  0.9309 -0.2216
14534SOL    HW244181   8.617   6.724   9.132 -0.1095  0.4767  0.2393
14535SOL     OW44182   6.882   9.671   8.916 -0.1892  0.3020  0.4650
14535SOL    HW144183   6.911   9.581   8.929 -1.3303 -0.2967 -0.9447
14535SOL    HW244184   6.920   9.719   8.990  2.0819 -0.9226  0.1817
14536SOL     OW44185   2.505   7.340   2.284  0.0875 -0.1095 -0.3128
14536SOL    HW144186   2.511   7.416   2.341 -0.2653 -1.8874  2.2645
14536SOL    HW244187   2.577   7.284   2.311 -1.1837 -1.8143 -0.2849
14537SOL     OW44188   4.110   4.623   2.437 -0.1562  0.2456  0.6305
14537SOL    HW144189   4.132   4.585   2.522  1.2466 -0.3670  0.0409
14537SOL    HW244190   4.184   4.599   2.381 -1.9952 -1.2099 -1.3353
14538SOL     OW44191   2.627   9.800   8.223 -0.3213  0.1091 -0.4139
14538SOL    HW144192   2.572   9.733   8.182  1.0280 -1.7339  0.6001
14538SOL    HW244193   2.626   9.778   8.317  1.3877  0.5532 -0.2565
14539SOL     OW44194   6.923   7.256   9.887  0.1253 -0.1368  0.6409
14539SOL    HW144195   6.996   7.256   9.948 -1.0842  1.2846  2.1720
14539SOL    HW244196   6.848   7.224   9.938 -0.8766  0.9177 -0.1159
14540SOL     OW44197   1.432   8.898   1.022  0.1791  0.1257 -0.1136
14540SOL    HW144198   1.345   8.882   1.059 -0.6886  3.4079 -0.4966
14540SOL    HW244199   1.442   8.831   0.954 -0.9274 -1.8779  1.5907
14541SOL     OW44200   2.398   7.418   1.468 -0.1040  0.4042  0.4657
14541SOL    HW144201   2.316   7.468   1.469 -0.7082 -0.5110 -0.8616
14541SOL    HW244202   2.370   7.326   1.470  0.8091  0.0370 -1.7137
14542SOL     OW44203   6.077   9.653   9.673  0.5715 -0.1471  0.0390
14542SOL    HW144204   6.146   9.716   9.651 -0.4546  2.6533  3.7583
14542SOL    HW244205   6.108   9.608   9.751 -0.8277 -0.5349  0.4150
14543SOL     OW44206   7.538   0.763   5.506 -0.2844 -0.1066  0.1427
14543SOL    HW144207   7.503   0.800   5.587 -1.6649  1.5755 -1.1418
14543SOL    HW244208   7.536   0.668   5.520 -2.4512  0.0508  1.3195
14544SOL     OW44209   3.141   7.158   2.780 -0.2076 -0.3595 -0.1662
14544SOL    HW144210   3.198   7.193   2.711 -2.5926  1.9682 -1.1160
14544SOL    HW244211   3.197   7.153   2.858  1.5366  0.7677 -1.2783
14545SOL     OW44212   8.169   8.251   5.274 -0.7526 -0.0422 -0.2124
14545SOL    HW144213   8.182   8.298   5.191 -3.5963 -1.5739 -1.6626
14545SOL    HW244214   8.195   8.314   5.341  0.7437  1.6036 -2.2038
14546SOL     OW44215   6.515   5.628   0.868 -0.0809  0.4971 -0.3799
14546SOL    HW144216   6.606   5.598   0.876 -0.3891 -0.3508 -0.0405
14546SOL    HW244217   6.487   5.644   0.958 -0.0023  1.6079 -0.5349
14547SOL     OW44218   0.207   0.575   4.219 -0.6679  0.0987  0.3393
14547SOL    HW144219   0.171   0.489   4.240 -0.7489  0.4175  1.5860
14547SOL    HW244220   0.297   0.571   4.251 -0.4466  0.2311 -0.2663
14548SOL     OW44221   8.955   2.807   4.992 -0.1500  0.1192  0.4947
14548SOL    HW144222   8.935   2.894   4.956  0.2782  0.0318  0.0309
14548SOL    HW244223   8.984   2.824   5.082 -0.8062  0.3839  0.6597
14549SOL     OW44224   5.509   5.607   4.682  0.1124  0.0522 -0.1372
14549SOL    HW144225   5.470   5.546   4.744 -0.8407  0.7047 -0.0748
14549SOL    HW244226   5.515   5.689   4.730  0.8662  0.1597 -0.3991
14550SOL     OW44227   9.569   7.515   2.618  1.0806 -0.0426  0.6205
14550SOL    HW144228   9.585   7.546   2.708  1.9572  0.3345  0.3528
14550SOL    HW244229   9.654   7.524   2.575  1.0931 -1.8233  0.2129
14551SOL     OW44230   5.050   3.986   6.230  0.3832  0.2223 -0.3500
14551SOL    HW144231   4.998   4.012   6.307 -1.1466 -1.2617 -0.7961
14551SOL    HW244232   5.138   3.974   6.264 -0.4985 -1.6670  1.5532
14552SOL     OW44233   7.594   6.261   9.551  0.1601  0.4209  0.4679
14552SOL    HW144234   7.631   6.249   9.638  1.3478  0.2746 -0.0293
14552SOL    HW244235   7.649   6.207   9.494 -1.8300 -1.1171 -0.1086
14553SOL     OW44236   9.152   8.715   2.398  0.1861  0.2823  0.3500
14553SOL    HW144237   9.135   8.620   2.398  1.3342  0.0668 -0.2033
14553SOL    HW244238   9.242   8.724   2.368  0.0515  1.5727  0.2646
14554SOL     OW44239   9.309   2.642   2.242  0.6308  0.2105 -0.8560
14554SOL    HW144240   9.277   2.560   2.204  0.6281  1.1167 -2.9368
14554SOL    HW244241   9.251   2.657   2.317 -2.9912  0.9569 -3.5062
14555SOL     OW44242   6.311   6.650   3.783  0.1324  0.1614  0.4962
14555SOL    HW144243   6.340   6.595   3.855  0.9553  2.1743  1.7839
14555SOL    HW244244   6.217   6.661   3.796 -0.0647 -0.9884  0.1497
14556SOL     OW44245   7.493   7.466   5.130  0.2221 -0.0008 -0.4782
14556SOL    HW144246   7.458   7.379   5.111 -0.1894  0.2152 -0.7303
14556SOL    HW244247   7.416   7.518   5.154  0.0988  0.9108 -2.6370
14557SOL     OW44248   7.526   5.912   4.534  0.1479 -0.0399 -0.2783
14557SOL    HW144249   7.470   5.885   4.606 -1.3138  0.0962 -1.3127
14557SOL    HW244250   7.514   6.007   4.529 -1.4231 -0.2679 -1.9577
14558SOL     OW44251   9.597   6.507   3.856  0.3262  0.1660  1.0685
14558SOL    HW144252   9.554   6.495   3.941  0.3911 -0.5461  1.0047
14558SOL    HW244253   9.626   6.599   3.857 -1.2904  0.6967  1.0552
14559SOL     OW44254   2.255   1.952   0.235  0.2325 -0.0943 -0.5517
14559SOL    HW144255   2.190   1.949   0.306  1.0055  0.2014  0.1839
14559SOL    HW244256   2.205   1.932   0.156 -0.3245 -2.3097  0.2860
14560SOL     OW44257   0.924   9.186   8.512  0.0649 -0.6707  0.2887
14560SOL    HW144258   0.858   9.238   8.468  0.7551 -0.2454 -0.2703
14560SOL    HW244259   0.914   9.207   8.605 -0.8128 -0.8979  0.2543
14561SOL     OW44260   8.571   7.588   5.430  0.7640 -0.2510 -0.3466
14561SOL    HW144261   8.653   7.551   5.462  0.7525  0.6405  0.7330
14561SOL    HW244262   8.594   7.675   5.398  0.1509  0.2166  0.4612
14562SOL     OW44263   6.862   7.139   5.430  0.2189 -0.5538  0.7002
14562SOL    HW144264   6.857   7.229   5.463  0.4505 -1.1020  2.2776
14562SOL    HW244265   6.895   7.149   5.341 -1.1241  1.0311  0.3204
14563SOL     OW44266   6.645   6.467   1.683 -0.6026  0.3472 -0.2901
14563SOL    HW144267   6.592   6.452   1.761  2.0127 -2.6130  1.1042
14563SOL    HW244268   6.639   6.562   1.668 -1.9815  0.8792  2.8847
14564SOL     OW44269   1.962   3.850   0.943 -1.0225 -0.0098 -0.7618
14564SOL    HW144270   1.995   3.908   0.875 -1.0244 -0.9750 -1.6169
14564SOL    HW244271   2.008   3.767   0.928 -0.5743 -0.0693  0.7960
14565SOL     OW44272   8.276   0.919   6.798  0.1828  0.3749  0.1372
14565SOL    HW144273   8.286   0.848   6.735  1.3345  1.2154 -0.6805
14565SOL    HW244274   8.359   0.920   6.847  0.1517  1.0843  0.1906
14566SOL     OW44275   4.080   0.897   6.846 -0.2100  0.0462  0.5345
14566SOL    HW144276   4.147   0.940   6.899  0.9177 -0.3021 -0.5842
14566SOL    HW244277   3.998   0.941   6.872  0.7090  1.9712  0.3847
14567SOL     OW44278   6.996   2.509   2.002 -0.3609 -0.5142  0.4804
14567SOL    HW144279   6.997   2.431   1.946  0.6090 -1.2156  1.4470
14567SOL    HW244280   6.927   2.491   2.066 -1.1276  0.0711 -0.1600
14568SOL     OW44281   5.313   0.634   8.415  0.2193 -0.1161  0.5407
14568SOL    HW144282   5.286   0.543   8.419  2.1906 -0.9349 -1.9787
14568SOL    HW244283   5.247   0.677   8.361 -0.1932 -0.2470  0.9328
14569SOL     OW44284   8.717   4.247   6.700  0.4775  0.6443  0.4518
14569SOL    HW144285   8.695   4.231   6.608 -1.8814  1.9364  0.7012
14569SOL    HW244286   8.697   4.164   6.744 -0.0769  0.5515  0.0342
14570SOL     OW44287   1.454   8.203   1.625 -0.6317  0.3346 -0.0287
14570SOL    HW144288   1.536   8.156   1.609  0.2807  2.6076 -2.7106
14570SOL    HW244289   1.407   8.198   1.542 -1.5402  2.1157  0.3355
14571SOL     OW44290   8.207   4.628   9.269 -0.1434  0.0829 -0.1296
14571SOL    HW144291   8.145   4.612   9.340 -0.3795  1.1178 -0.0988
14571SOL    HW244292   8.194   4.554   9.209  1.9718 -2.4117  2.1880
14572SOL     OW44293   9.079   4.843   3.705  0.1870  0.1072  0.3442
14572SOL    HW144294   9.062   4.781   3.775  1.1028 -0.1306  0.3716
14572SOL    HW244295   9.127   4.793   3.639 -0.0799  0.4933 -0.1517
14573SOL     OW44296   0.620   6.645   2.733 -0.7148 -0.4361  0.1592
14573SOL    HW144297   0.585   6.648   2.822 -1.5113 -0.5232 -0.1393
14573SOL    HW244298   0.677   6.568   2.731 -1.8346 -1.2995  0.2049
14574SOL     OW44299   9.351   8.455   7.383  0.0425  0.6559 -0.1250
14574SOL    HW144300   9.429   8.494   7.343 -0.3690  1.4457 -0.1780
14574SOL    HW244301   9.349   8.492   7.471 -0.1581  0.4724 -0.0511
14575SOL     OW44302   0.914   8.690   3.921 -0.4433  0.3714  0.4231
14575SOL    HW144303   0.855   8.705   3.995  0.3882  1.1045  0.9623
14575SOL    HW244304   0.858   8.656   3.852 -1.4144  0.6267  1.0611
14576SOL     OW44305   0.242   0.737   1.086  0.0144 -0.6418 -0.2235
14576SOL    HW144306   0.273   0.827   1.091  2.8321 -1.5777  1.2155
14576SOL    HW244307   0.168   0.741   1.025 -0.9785  2.8568  0.9510
14577SOL     OW44308   6.965   6.271   1.507  0.3651 -0.0628 -0.2066
14577SOL    HW144309   6.933   6.247   1.421  0.5845 -1.2451  0.0262
14577SOL    HW244310   6.892   6.315   1.549  0.0427 -0.0680 -0.7594
14578SOL     OW44311   5.494   4.074   9.624 -0.1436 -0.3455  0.4768
14578SOL    HW144312   5.522   4.155   9.581 -0.4413 -0.0913  0.7603
14578SOL    HW244313   5.567   4.052   9.682  0.3766 -0.8373 -0.3531
14579SOL     OW44314   9.577   1.497   7.933 -0.5197 -0.4189 -0.2775
14579SOL    HW144315   9.520   1.463   8.002  0.4433 -0.4107  0.5511
14579SOL    HW244316   9.520   1.553   7.880 -0.7874  1.5486  1.9256
14580SOL     OW44317   6.099   9.246   2.307  0.2458 -0.4667  0.3591
14580SOL    HW144318   6.126   9.307   2.239 -0.5436 -0.8603 -0.3215
14580SOL    HW244319   6.097   9.161   2.264 -1.4987 -0.5379  0.5129
14581SOL     OW44320   3.695   2.826   9.449 -0.5981  0.7922 -0.9562
14581SOL    HW144321   3.671   2.743   9.490 -0.7902  1.3615  0.1056
14581SOL    HW244322   3.787   2.839   9.472 -1.0979  1.8356  0.6059
14582SOL     OW44323   2.759   1.660   8.452  0.5889  0.3794 -0.0042
14582SOL    HW144324   2.727   1.570   8.448  0.1834  0.5492 -1.7237
14582SOL    HW244325   2.781   1.680   8.361 -1.5062  2.7737 -0.0818
14583SOL     OW44326   8.079   9.197   2.438  0.0302 -0.1011 -0.2112
14583SOL    HW144327   8.124   9.281   2.448  1.7459 -0.9914 -0.0776
14583SOL    HW244328   8.064   9.167   2.527  0.5486 -0.4997 -0.2543
14584SOL     OW44329   2.403   3.031   7.284 -0.1972 -0.3661 -0.5890
14584SOL    HW144330   2.451   3.089   7.343 -1.7400  0.2265  0.1284
14584SOL    HW244331   2.470   2.999   7.224  1.4450 -0.9975  1.4452
14585SOL     OW44332   9.554   4.959   8.177  0.3178 -0.2864  0.1388
14585SOL    HW144333   9.508   4.955   8.261  0.7380  1.8566  0.5252
14585SOL    HW244334   9.529   5.043   8.140  0.0549 -1.2527 -1.9818
14586SOL     OW44335   0.410   9.322   0.937  0.2034  0.6556 -0.6332
14586SOL    HW144336   0.397   9.228   0.926 -0.4985  0.7529 -0.6955
14586SOL    HW244337   0.449   9.351   0.855 -0.4424  0.5680 -0.9768
14587SOL     OW44338   0.064   0.064   9.326 -0.2327  0.3719 -0.4627
14587SOL    HW144339   0.114   0.112   9.260 -2.0428 -1.0134 -3.0198
14587SOL    HW244340  -0.011   0.119   9.345  0.0090  0.5255  0.0811
14588SOL     OW44341   1.575   1.720   0.282 -0.0825 -0.2565  0.3126
14588SOL    HW144342   1.532   1.636   0.300  1.9882 -1.3584  0.3440
14588SOL    HW244343   1.555   1.737   0.190  1.2981 -1.9500 -0.3594
14589SOL     OW44344   9.716   1.765   6.243 -0.3974  0.8656 -0.3810
14589SOL    HW144345   9.632   1.806   6.224 -0.4141  0.5612 -0.9902
14589SOL    HW244346   9.714   1.682   6.196  0.4033  1.0371 -0.7400
14590SOL     OW44347   7.820   5.701   7.320 -0.1748  0.2884 -0.1470
14590SOL    HW144348   7.730   5.732   7.307  0.1888  1.9307  1.0123
14590SOL    HW244349   7.858   5.700   7.232 -1.7479 -1.9579 -0.8862
14591SOL     OW44350   1.846   7.039   9.329  0.4217  0.1224  0.0131
14591SOL    HW144351   1.880   6.981   9.261  0.6794 -2.7367  2.3867
14591SOL    HW244352   1.751   7.030   9.324  0.4209  0.2883 -0.2650
14592SOL     OW44353   8.837   7.763   5.074  0.4948 -0.0287 -0.1454
14592SOL    HW144354   8.786   7.682   5.076  1.2368 -0.5345 -1.2764
14592SOL    HW244355   8.927   7.737   5.092  0.5406  0.7411  0.8725
14593SOL     OW44356   0.949   6.120   3.886  0.1956  0.5109  0.3332
14593SOL    HW144357   0.885   6.122   3.814  0.2794 -0.5784  0.2025
14593SOL    HW244358   0.924   6.043   3.937  1.2207  0.2414  0.4480
14594SOL     OW44359   3.695   6.940   2.751  0.1861  0.0063 -0.3661
14594SOL    HW144360   3.763   7.007   2.761  0.6051 -0.4094 -0.3673
14594SOL    HW244361   3.618   6.977   2.793  0.5844  0.2443  0.1609
14595SOL     OW44362   8.447   9.185   5.750 -0.2571 -0.4905  0.1463
14595SOL    HW144363   8.407   9.170   5.665  0.6057 -2.2373 -0.0061
14595SOL    HW244364   8.498   9.265   5.739 -0.1632 -0.6968 -0.9817
14596SOL     OW44365   5.833   5.240   6.305  0.7009 -0.3795  0.0923
14596SOL    HW144366   5.803   5.331   6.311 -0.2551 -0.7579  1.7560
14596SOL    HW244367   5.823   5.218   6.213  1.4138  1.3427 -0.4312
14597SOL     OW44368   1.144   3.550   3.351 -0.2977 -0.6427  0.2202
14597SOL    HW144369   1.124   3.545   3.257  1.5111  0.5142 -0.2723
14597SOL    HW244370   1.168   3.460   3.375 -0.5817 -0.9126 -0.4607
14598SOL     OW44371   6.028   6.895   3.754 -0.4595  0.0564 -0.8193
14598SOL    HW144372   6.049   6.843   3.676  0.5287 -0.0764 -0.4786
14598SOL    HW244373   6.005   6.830   3.821  0.6164  0.0530 -0.4398
14599SOL     OW44374   5.200   2.470   8.447  0.0675  0.1756 -0.0649
14599SOL    HW144375   5.226   2.389   8.490 -1.2570 -0.6362 -0.7252
14599SOL    HW244376   5.129   2.505   8.501  1.0652  1.2983  0.5935
14600SOL     OW44377   1.072   2.367   7.349  0.3074 -0.0267  0.4157
14600SOL    HW144378   1.108   2.323   7.272  0.2577 -0.7763  0.8087
14600SOL    HW244379   0.995   2.315   7.372  0.2520  0.2666  0.8937
14601SOL     OW44380   2.273   3.406   6.236 -0.0472  0.1202 -0.1806
14601SOL    HW144381   2.341   3.339   6.233 -0.4162 -0.2134 -1.3884
14601SOL    HW244382   2.321   3.489   6.229  0.3528 -0.0348  0.6273
14602SOL     OW44383   7.699   7.270   8.961 -0.0600  1.0205 -0.1749
14602SOL    HW144384   7.787   7.243   8.936  0.1227  2.8854 -1.7877
14602SOL    HW244385   7.702   7.278   9.056  2.2113  3.1013 -0.3157
14603SOL     OW44386   3.711   9.111   8.131 -0.4395  0.1944  0.1448
14603SOL    HW144387   3.727   9.140   8.042  0.9199 -0.7456  0.0407
14603SOL    HW244388   3.638   9.050   8.125 -0.6658  0.5044 -0.2439
14604SOL     OW44389   9.821   1.025   4.534  0.0448 -0.4388 -0.1989
14604SOL    HW144390   9.898   1.063   4.492  1.0079 -0.0572  1.7781
14604SOL    HW244391   9.857   0.960   4.595 -1.2709 -0.9679  0.0473
14605SOL     OW44392   0.845   0.967   5.980 -0.2232 -0.1159 -0.2062
14605SOL    HW144393   0.894   1.050   5.984  3.9657 -2.3815  2.0529
14605SOL    HW244394   0.834   0.950   5.886  0.6029  1.9990 -0.7457
14606SOL     OW44395   8.909   3.013   5.274 -0.5708 -0.1531 -0.0020
14606SOL    HW144396   8.820   3.037   5.249 -0.2740  1.0466  0.0063
14606SOL    HW244397   8.964   3.069   5.219  0.1726 -0.7544  0.1190
14607SOL     OW44398   3.663   1.412   0.269  0.2843  0.0411  0.3339
14607SOL    HW144399   3.685   1.340   0.210  0.6832 -0.0773  0.6228
14607SOL    HW244400   3.605   1.372   0.334 -0.8041  0.3484 -0.4165
14608SOL     OW44401   7.468   3.376   4.711 -0.2712 -0.4426 -0.8836
14608SOL    HW144402   7.420   3.428   4.647 -0.8904  0.7346  0.4618
14608SOL    HW244403   7.428   3.290   4.707 -1.1595 -0.0266 -1.1896
14609SOL     OW44404   5.602   6.480   8.059 -0.9282 -0.4003 -0.0411
14609SOL    HW144405   5.556   6.538   7.998 -0.7269  0.6736  0.8005
14609SOL    HW244406   5.627   6.404   8.006 -0.7712  0.4981 -1.2923
14610SOL     OW44407   0.616   9.365   1.273 -0.4954 -0.0627 -0.4546
14610SOL    HW144408   0.581   9.446   1.235 -0.9296  0.7341  1.4870
14610SOL    HW244409   0.711   9.375   1.269 -0.5436  0.6778 -0.0353
14611SOL     OW44410   9.209   9.431   5.788 -0.1047 -0.6577  0.7508
14611SOL    HW144411   9.232   9.493   5.858 -2.0898  1.5616 -0.4410
14611SOL    HW244412   9.268   9.453   5.716  0.2376 -1.2541  0.8388
14612SOL     OW44413   2.366   0.856   0.277  0.1368  0.1628  0.0021
14612SOL    HW144414   2.372   0.931   0.218 -0.2651  0.4531  0.3183
14612SOL    HW244415   2.453   0.849   0.315  0.1523  0.5341  0.0451
14613SOL     OW44416   9.938   2.455   8.157 -0.1992 -0.5931  0.2570
14613SOL    HW144417   9.978   2.384   8.208  0.1251 -1.3730 -1.0236
14613SOL    HW244418  10.011   2.514   8.138 -0.4735  0.1213  1.3411
14614SOL     OW44419   7.948   9.077   0.687 -0.2827 -0.7429 -0.2401
14614SOL    HW144420   8.015   9.072   0.620 -0.2587 -1.1472 -0.1868
14614SOL    HW244421   7.987   9.037   0.764  0.8974  2.5325  1.0460
14615SOL     OW44422   2.244   6.403   5.030  0.6497 -0.2335 -0.3423
14615SOL    HW144423   2.167   6.383   4.977 -0.3276 -2.3316  1.6828
14615SOL    HW244424   2.318   6.368   4.980  0.0894  0.1254 -1.4493
14616SOL     OW44425   9.528   2.289   1.233 -0.0166 -0.5132 -0.5138
14616SOL    HW144426   9.433   2.275   1.230 -0.0970  0.0181 -0.5484
14616SOL    HW244427   9.539   2.381   1.211  0.4748 -0.4599 -0.0676
14617SOL     OW44428   9.779   9.765   8.925 -0.0643  0.6996  0.2753
14617SOL    HW144429   9.820   9.679   8.922 -0.8960  0.3122 -0.5594
14617SOL    HW244430   9.752   9.776   9.016 -2.4839 -1.1774 -0.1237
14618SOL     OW44431   8.497   4.549   4.719  0.4270  0.2636  0.0564
14618SOL    HW144432   8.551   4.479   4.681 -0.3473 -0.6223  0.5472
14618SOL    HW244433   8.494   4.529   4.812 -0.4000  0.5347  0.0946
14619SOL     OW44434   8.184   4.975   6.361  0.3522 -0.2899 -0.6311
14619SOL    HW144435   8.219   4.890   6.336 -0.0492 -0.4383 -0.6950
14619SOL    HW244436   8.110   4.990   6.302  0.1077 -0.1281 -0.2929
14620SOL     OW44437   9.578   3.531   9.077 -0.2469  0.3206 -0.4111
14620SOL    HW144438   9.614   3.618   9.094 -1.9719  0.8495  0.7242
14620SOL    HW244439   9.588   3.519   8.983 -1.0584  2.2748 -0.7918
14621SOL     OW44440   9.675   2.506   2.937  0.2784  0.3942 -0.0016
14621SOL    HW144441   9.611   2.567   2.974  2.7564  2.8381  0.5760
14621SOL    HW244442   9.694   2.445   3.008  0.4117  1.2180  0.6886
14622SOL     OW44443   7.611   4.831   6.200 -0.0542  0.4047  0.0052
14622SOL    HW144444   7.612   4.745   6.243  0.2271  1.2442  1.7709
14622SOL    HW244445   7.578   4.813   6.112  2.0048 -1.8284 -0.4214
14623SOL     OW44446   9.066   9.804   6.321  0.2516  0.3301 -0.1064
14623SOL    HW144447   9.020   9.734   6.367  2.1828 -0.8252  0.2151
14623SOL    HW244448   8.998   9.853   6.276 -1.0930 -2.7460 -1.6881
14624SOL     OW44449   4.123   6.660   4.846 -0.1768  0.2829  0.0151
14624SOL    HW144450   4.049   6.712   4.879 -0.0934  0.7928 -0.5858
14624SOL    HW244451   4.082   6.593   4.791 -0.1451  1.3443 -1.3640
14625SOL     OW44452   3.030   0.882   2.796  0.2503 -0.0279  0.1381
14625SOL    HW144453   3.067   0.809   2.845  2.1961  1.2949  0.7680
14625SOL    HW244454   2.960   0.915   2.852  1.7275  0.7886  1.6030
14626SOL     OW44455   5.129   2.589   7.349  0.2498 -0.3994  0.1265
14626SOL    HW144456   5.212   2.559   7.386  0.4836 -2.9607 -2.1383
14626SOL    HW244457   5.076   2.509   7.341 -1.3503  0.7141 -1.0493
14627SOL     OW44458   4.588   9.258   1.059 -0.2232 -0.1602  0.3130
14627SOL    HW144459   4.644   9.190   1.021 -0.6555 -1.7617  2.3394
14627SOL    HW244460   4.628   9.275   1.145  0.1312  2.5315 -0.3202
14628SOL     OW44461   9.614   4.762   6.668 -0.6847 -0.3928 -0.8085
14628SOL    HW144462   9.543   4.706   6.635 -1.8098  0.1139  0.6761
14628SOL    HW244463   9.612   4.839   6.611 -2.6191  0.4846  0.3514
14629SOL     OW44464   1.567   3.068   0.709 -0.2602 -0.3248  0.0761
14629SOL    HW144465   1.499   3.001   0.713  0.2017 -0.9471 -1.4514
14629SOL    HW244466   1.552   3.123   0.786 -2.7900 -0.1149 -0.4796
14630SOL     OW44467   8.831   3.427   4.672 -0.0558  0.2329 -0.1376
14630SOL    HW144468   8.878   3.352   4.636 -0.0728  0.5718 -0.8910
14630SOL    HW244469   8.756   3.439   4.613 -0.0905  0.7973  0.0158
14631SOL     OW44470   3.360   6.953   6.470  0.4918 -0.0072 -0.3892
14631SOL    HW144471   3.348   7.047   6.457  0.2456  0.0854  0.4704
14631SOL    HW244472   3.317   6.934   6.553  0.8923 -0.8090 -0.3547
14632SOL     OW44473   6.263   9.808   9.568  0.3357 -0.3922  0.4855
14632SOL    HW144474   6.336   9.840   9.620  0.8931 -0.2529 -0.3672
14632SOL    HW244475   6.206   9.884   9.556  0.2857 -0.3874  0.7604
14633SOL     OW44476   1.736   8.446   0.785 -0.2751  0.6251 -0.1007
14633SOL    HW144477   1.828   8.420   0.791 -0.2599  0.7075  0.0224
14633SOL    HW244478   1.716   8.483   0.871 -1.3799 -2.5364  1.1653
14634SOL     OW44479   3.453   1.469   6.601  0.1513  0.0389 -0.6178
14634SOL    HW144480   3.472   1.394   6.656  0.7978 -0.2058 -1.1587
14634SOL    HW244481   3.491   1.544   6.648 -1.9635  0.3344  0.7699
14635SOL     OW44482   7.928   3.732   8.228 -0.6273  0.2176 -0.6278
14635SOL    HW144483   7.899   3.742   8.137 -1.1496 -3.0255 -0.9539
14635SOL    HW244484   7.848   3.729   8.279 -0.3421  1.7589 -0.0480
14636SOL     OW44485   8.866   5.378   7.888 -0.4573 -0.0252 -0.1202
14636SOL    HW144486   8.891   5.317   7.958 -2.6971 -1.0573 -0.1311
14636SOL    HW244487   8.917   5.456   7.906 -1.0229 -0.2006  2.8001
14637SOL     OW44488   3.109   9.188   1.297  0.2532  0.1213  0.3239
14637SOL    HW144489   3.158   9.125   1.244  1.8156  0.4990  1.2504
14637SOL    HW244490   3.081   9.138   1.374 -0.5839 -0.0072 -0.0455
14638SOL     OW44491   2.297   6.984   2.958  0.2895  0.3474  0.1906
14638SOL    HW144492   2.323   6.956   2.871  0.1106  0.8512 -0.0249
14638SOL    HW244493   2.337   6.919   3.017  1.3402  0.6380 -0.1819
14639SOL     OW44494   9.075   6.047   0.918  0.1610  0.7125  0.2233
14639SOL    HW144495   9.079   6.014   0.828  1.0988  2.7781 -0.5385
14639SOL    HW244496   9.044   5.972   0.968  3.1272 -1.7160 -1.2053
14640SOL     OW44497   4.452   4.464   6.554  0.0999 -0.0311  0.4270
14640SOL    HW144498   4.471   4.453   6.460 -1.5092  1.1339 -0.0883
14640SOL    HW244499   4.519   4.523   6.586  1.9845 -2.1081  0.5822
14641SOL     OW44500  -0.014   7.987   7.729  0.2918  0.1793 -0.1991
14641SOL    HW144501  -0.049   7.908   7.770  1.8878  0.4395  1.8497
14641SOL    HW244502   0.068   7.957   7.688  0.8785  0.7474  0.5455
14642SOL     OW44503   3.832   2.357   5.477 -0.0421 -0.0008 -0.4417
14642SOL    HW144504   3.893   2.310   5.534 -0.5229 -0.1014 -0.0033
14642SOL    HW244505   3.792   2.422   5.534  0.6267  0.9714 -1.0407
14643SOL     OW44506   7.101   3.736   5.021 -0.0369 -0.1624 -0.0645
14643SOL    HW144507   7.195   3.726   5.010  0.1626 -0.1854  1.4634
14643SOL    HW244508   7.064   3.713   4.936  1.3711  0.5829 -0.9029
14644SOL     OW44509  -0.014   8.925   1.788  0.5058  0.0970 -1.0653
14644SOL    HW144510  -0.009   8.891   1.698  2.4936  0.5962 -1.1942
14644SOL    HW244511   0.046   9.000   1.788  1.2700 -0.4544  0.9033
14645SOL     OW44512   4.402   2.147   8.477  0.3160  0.0218  0.4917
14645SOL    HW144513   4.351   2.105   8.546  0.1987  1.0102  1.0127
14645SOL    HW244514   4.364   2.113   8.396 -0.5342 -0.0057  0.8895
14646SOL     OW44515   0.538   1.624   1.073 -0.0073  0.6455  0.3574
14646SOL    HW144516   0.481   1.596   1.145  2.1966  0.2896  2.0865
14646SOL    HW244517   0.617   1.656   1.117  1.8359 -0.4770 -1.9549
14647SOL     OW44518   8.762   6.449   7.794 -0.0473  0.0706 -0.1041
14647SOL    HW144519   8.832   6.512   7.776  0.3096 -0.6346 -1.2881
14647SOL    HW244520   8.793   6.367   7.757 -2.2973  0.1699 -2.4754
14648SOL     OW44521   2.731   9.713   7.742  0.0323 -0.2364 -0.2242
14648SOL    HW144522   2.646   9.671   7.731  0.0100 -0.5054  0.8798
14648SOL    HW244523   2.710   9.805   7.758 -0.1220 -0.4641  0.9846
14649SOL     OW44524   1.918   1.070   0.625  0.2678  0.3069  0.2896
14649SOL    HW144525   2.010   1.047   0.622 -0.0851 -1.1143 -0.8644
14649SOL    HW244526   1.873   0.994   0.588 -1.4034  0.7819  1.2222
14650SOL     OW44527   6.596   3.126   4.236 -0.1416 -0.5024  0.6170
14650SOL    HW144528   6.529   3.075   4.191  0.0148  0.1573 -0.4231
14650SOL    HW244529   6.549   3.175   4.303 -0.7972  0.2723 -0.3775
14651SOL     OW44530   0.055   4.737   6.858  0.2670 -0.3043  0.3489
14651SOL    HW144531   0.113   4.714   6.786  1.2060  2.9473 -0.0860
14651SOL    HW244532   0.113   4.740   6.935 -0.3473 -1.8235  0.9055
14652SOL     OW44533   4.967   3.868   2.839 -0.6976 -0.2610 -0.3375
14652SOL    HW144534   4.887   3.892   2.885  0.3863  2.9059  0.1542
14652SOL    HW244535   5.037   3.887   2.901  0.5240 -1.1762 -1.3864
14653SOL     OW44536   3.125   3.855   0.473 -0.4138  0.6243  0.7736
14653SOL    HW144537   3.090   3.916   0.538  0.0055 -1.5136  3.1811
14653SOL    HW244538   3.220   3.861   0.482 -0.3631 -0.4222  1.1547
14654SOL     OW44539   2.093   1.468   1.626  0.2788  0.7005  0.5383
14654SOL    HW144540   2.055   1.463   1.538  1.8494 -4.0583 -0.1681
14654SOL    HW244541   2.028   1.428   1.683  0.8111  0.1774  0.7957
14655SOL     OW44542   3.652   1.013   3.458  0.9292  0.4968  0.4914
14655SOL    HW144543   3.566   1.052   3.471  1.3276  1.4223  0.4008
14655SOL    HW244544   3.634   0.932   3.410  0.2024  1.2762 -0.6072
14656SOL     OW44545   8.166   1.328   5.633 -0.1610  0.2892 -0.0683
14656SOL    HW144546   8.122   1.308   5.716 -0.0836  2.0695  0.4393
14656SOL    HW244547   8.114   1.398   5.595  0.2883  0.0545 -1.1390
14657SOL     OW44548   2.899   3.270   6.709 -0.7732  0.2904 -0.5110
14657SOL    HW144549   2.864   3.321   6.636  2.0944  1.5268 -1.1606
14657SOL    HW244550   2.980   3.232   6.676 -0.0339 -0.1987  1.6534
14658SOL     OW44551   3.916   0.858   3.508 -0.0500 -0.1183  0.2587
14658SOL    HW144552   3.850   0.870   3.440  1.1849  3.4460 -0.5473
14658SOL    HW244553   3.991   0.910   3.478  2.7895 -3.0184  1.6503
14659SOL     OW44554   4.736   8.077   5.651  0.3147 -0.0031  0.6691
14659SOL    HW144555   4.715   8.023   5.575 -2.8707  2.9392 -0.8048
14659SOL    HW244556   4.823   8.113   5.633 -0.1658  0.2165 -1.3850
14660SOL     OW44557   1.848   8.011   1.261 -0.0875 -0.0993 -0.0657
14660SOL    HW144558   1.801   7.927   1.259 -0.1618 -0.0463 -0.6882
14660SOL    HW244559   1.927   7.993   1.311 -0.3068 -0.4340  0.1678
14661SOL     OW44560   8.799   7.675   4.364  0.4204 -0.3605 -0.2989
14661SOL    HW144561   8.887   7.641   4.382  0.4130 -0.0356  0.3852
14661SOL    HW244562   8.802   7.701   4.272  1.7714  1.7303  0.2456
14662SOL     OW44563   7.933   6.961   9.628 -0.3228  0.1909  0.1351
14662SOL    HW144564   8.014   6.927   9.589 -1.1679  0.0548 -1.5935
14662SOL    HW244565   7.890   6.883   9.664  0.5457  0.3416  1.5843
14663SOL     OW44566   1.325   4.130   7.897 -0.7065  0.4321 -0.1471
14663SOL    HW144567   1.300   4.091   7.814 -0.6998  1.4100 -0.6266
14663SOL    HW244568   1.246   4.128   7.950 -0.1841 -2.2441  0.7022
14664SOL     OW44569   0.639   6.434   4.277 -1.2306  0.4365  0.1554
14664SOL    HW144570   0.700   6.493   4.321 -2.2497  0.9244  0.9864
14664SOL    HW244571   0.599   6.487   4.209 -0.8594  0.1687 -0.2745
14665SOL     OW44572   3.052   8.269   7.978 -0.1400 -0.0179  0.4482
14665SOL    HW144573   3.025   8.272   7.886  1.4867 -1.1428 -0.1105
14665SOL    HW244574   2.979   8.226   8.023 -0.5158 -0.4047 -0.5120
14666SOL     OW44575   6.292   6.618   3.398 -0.0182 -0.1935 -0.1183
14666SOL    HW144576   6.376   6.657   3.424  0.3086 -0.4990 -0.6828
14666SOL    HW244577   6.281   6.644   3.306 -0.4677 -0.2768 -0.0878
14667SOL     OW44578   3.647   7.565   9.759  0.2480 -0.4625  0.1907
14667SOL    HW144579   3.675   7.475   9.745  0.1180 -0.5383  0.4229
14667SOL    HW244580   3.725   7.609   9.792 -0.0145 -0.7849  1.3050
14668SOL     OW44581   1.313   7.120   1.496  0.2358  0.8397  0.1800
14668SOL    HW144582   1.362   7.195   1.530  3.0783 -0.3113 -0.9954
14668SOL    HW244583   1.355   7.100   1.412 -0.8366 -1.6387  0.1463
14669SOL     OW44584   4.491   5.447   1.645 -0.0456  0.0035 -0.1283
14669SOL    HW144585   4.452   5.493   1.719 -0.4382 -1.1953  0.4418
14669SOL    HW244586   4.441   5.478   1.569 -1.1388 -0.3885  0.4022
14670SOL     OW44587   4.671   4.196   1.708 -0.2479 -0.0885  0.4035
14670SOL    HW144588   4.631   4.273   1.668 -2.9082 -1.5877 -0.0512
14670SOL    HW244589   4.728   4.161   1.640 -0.8743  0.1644 -0.2684
14671SOL     OW44590   9.288   5.424   3.730  0.2794 -0.0485 -0.0490
14671SOL    HW144591   9.228   5.485   3.687 -0.4789 -0.6042  0.2120
14671SOL    HW244592   9.354   5.405   3.663 -2.4790 -3.2485 -2.1956
14672SOL     OW44593   7.320   3.555   4.552  0.2641  0.6705 -0.0898
14672SOL    HW144594   7.276   3.585   4.473 -0.3570  2.6486  0.9416
14672SOL    HW244595   7.275   3.600   4.624  0.5654 -1.3266  1.4414
14673SOL     OW44596   3.796   1.431   5.815 -0.9720 -0.5535  0.2766
14673SOL    HW144597   3.802   1.375   5.738 -1.3517 -0.6360  0.3054
14673SOL    HW244598   3.727   1.391   5.868  0.4510 -1.5249  1.4880
14674SOL     OW44599   3.714   9.598   3.251  0.0693  0.0061 -0.4427
14674SOL    HW144600   3.796   9.549   3.249 -0.3444 -0.6971 -0.3330
14674SOL    HW244601   3.682   9.597   3.161  0.0893  0.1276 -0.4520
14675SOL     OW44602   1.896   6.999   8.144  0.5843 -0.2190  0.2531
14675SOL    HW144603   1.925   6.925   8.091 -0.2468  0.8776 -1.8367
14675SOL    HW244604   1.946   6.991   8.225  1.5112 -2.2778 -0.4549
14676SOL     OW44605   7.257   1.781   5.470 -0.0714 -0.2399 -0.4453
14676SOL    HW144606   7.187   1.847   5.466  0.2476  0.2704  1.4116
14676SOL    HW244607   7.276   1.772   5.563 -0.1690 -3.0778 -0.6194
14677SOL     OW44608   3.316   0.659   2.297  0.1540  0.0918 -0.2851
14677SOL    HW144609   3.239   0.685   2.247  0.7635 -0.8758 -1.8196
14677SOL    HW244610   3.297   0.686   2.387 -1.1075  1.6669 -0.9669
14678SOL     OW44611   5.410   5.120   9.169 -0.3437 -0.0185 -0.0130
14678SOL    HW144612   5.381   5.082   9.086  1.1374  1.0265 -1.0792
14678SOL    HW244613   5.456   5.200   9.143  0.4654  0.1479  1.7954
14679SOL     OW44614   2.674   8.380   3.805 -0.1907  0.3590  0.0345
14679SOL    HW144615   2.704   8.320   3.736 -0.6247  0.9384 -0.6706
14679SOL    HW244616   2.622   8.324   3.864 -0.5351  0.0189 -0.5770
14680SOL     OW44617   4.286   5.336   2.832  0.3174 -0.2126  0.2294
14680SOL    HW144618   4.214   5.358   2.892 -0.2067 -0.8805 -0.1406
14680SOL    HW244619   4.268   5.388   2.753  0.6428  0.1672  0.4041
14681SOL     OW44620   9.796   7.264   4.167  0.1757  0.0552  0.0084
14681SOL    HW144621   9.737   7.336   4.191 -1.5249 -0.8460 -1.2692
14681SOL    HW244622   9.883   7.297   4.189 -0.4309  2.8570 -1.3206
14682SOL     OW44623   5.719   3.977   1.137 -0.2039 -0.0768  0.9641
14682SOL    HW144624   5.667   3.897   1.135 -0.7077  0.2610  0.4399
14682SOL    HW244625   5.795   3.958   1.082 -0.4645 -0.0949  0.6123
14683SOL     OW44626   8.465   3.090   4.966 -0.2474 -0.0199 -0.3228
14683SOL    HW144627   8.424   3.161   4.917  0.7536  1.6570  1.1350
14683SOL    HW244628   8.452   3.114   5.058 -0.9449 -2.3902  0.2709
14684SOL     OW44629   2.097   8.308   3.900 -0.1380 -0.1116  0.1954
14684SOL    HW144630   2.084   8.402   3.895  3.7924  0.6251 -4.1137
14684SOL    HW244631   2.142   8.294   3.983 -3.1607  1.1634  2.2172
14685SOL     OW44632   6.874   6.360   7.501 -0.8064 -0.1434  0.1414
14685SOL    HW144633   6.791   6.354   7.453 -1.1758  2.4446  0.2965
14685SOL    HW244634   6.933   6.405   7.441 -0.9343  2.1046  1.5692
14686SOL     OW44635   3.503   0.328   9.205 -0.1848 -0.1255 -0.2262
14686SOL    HW144636   3.531   0.286   9.124  0.7444  0.4294 -0.2104
14686SOL    HW244637   3.558   0.287   9.272 -0.9380 -0.5717  0.1297
14687SOL     OW44638   2.892   8.324   1.100 -0.1199 -0.5536 -0.3010
14687SOL    HW144639   2.913   8.314   1.193  0.1387 -0.9239 -0.3939
14687SOL    HW244640   2.937   8.251   1.058 -1.0570 -0.9818 -0.5943
14688SOL     OW44641   0.329   4.849   8.150  0.1332 -0.0950 -0.3165
14688SOL    HW144642   0.340   4.895   8.234 -0.0499 -1.8065  0.7003
14688SOL    HW244643   0.234   4.846   8.136  0.1850  0.5900 -0.8248
14689SOL     OW44644   0.844   6.920   5.499 -0.3287 -0.2581  0.6358
14689SOL    HW144645   0.810   6.861   5.432  0.2580 -1.6844  1.5203
14689SOL    HW244646   0.867   7.000   5.452 -2.4817 -0.1634 -0.3881
14690SOL     OW44647   0.631   8.653   0.312 -0.5092  0.2497 -0.4200
14690SOL    HW144648   0.609   8.625   0.223 -1.7758 -1.2563  0.3101
14690SOL    HW244649   0.580   8.733   0.326 -0.5295  0.3310 -0.9506
14691SOL     OW44650   8.173   3.359   2.364 -0.0392  0.1682 -0.6893
14691SOL    HW144651   8.268   3.348   2.362  0.2184  1.8660 -0.1169
14691SOL    HW244652   8.150   3.357   2.457 -1.0642 -3.3036 -0.8763
14692SOL     OW44653   6.167   0.352   6.753 -0.4866  0.2968 -0.1009
14692SOL    HW144654   6.127   0.291   6.692 -0.9608  0.0140  0.4862
14692SOL    HW244655   6.097   0.413   6.776 -0.9721 -0.8789  1.8195
14693SOL     OW44656   0.350   3.756   2.354 -0.1297  0.2095 -0.0726
14693SOL    HW144657   0.305   3.719   2.278 -0.0010  0.4375 -0.2620
14693SOL    HW244658   0.282   3.805   2.400 -0.2749 -0.1705  0.1187
14694SOL     OW44659   4.738   4.198   0.660 -0.3342 -0.4134  0.4500
14694SOL    HW144660   4.659   4.205   0.713  0.1115 -1.3437  1.2722
14694SOL    HW244661   4.737   4.109   0.627 -1.3611  0.5506 -2.4170
14695SOL     OW44662   1.998   8.315   8.918 -0.1529  0.1692 -0.3034
14695SOL    HW144663   2.077   8.295   8.867  1.8892  0.8115  2.4273
14695SOL    HW244664   1.971   8.230   8.954 -0.4784  0.0208 -0.8816
14696SOL     OW44665   5.976   9.484   7.418  0.0528 -0.7593 -0.0859
14696SOL    HW144666   6.071   9.490   7.416 -0.0293  0.7192 -0.6136
14696SOL    HW244667   5.950   9.525   7.500 -0.2407  1.3894 -1.1889
14697SOL     OW44668   9.664   3.844   4.727 -0.1003 -0.4189  0.2549
14697SOL    HW144669   9.603   3.904   4.771 -1.8939 -2.7940  1.2887
14697SOL    HW244670   9.694   3.892   4.650 -0.0082  2.4249  1.9053
14698SOL     OW44671   5.267   1.033   9.424  0.1213 -0.0479 -0.6715
14698SOL    HW144672   5.218   0.972   9.369  0.8632  0.8849 -2.4391
14698SOL    HW244673   5.340   0.981   9.457 -1.6966 -1.3399  1.6611
14699SOL     OW44674   8.107   2.713   9.678 -0.2388  0.0493  0.2564
14699SOL    HW144675   8.197   2.740   9.661 -0.3490 -0.5380 -1.4445
14699SOL    HW244676   8.068   2.787   9.724 -0.0357  2.1536 -2.7024
14700SOL     OW44677   5.203   6.764   3.913 -0.1761 -0.4315  0.4247
14700SOL    HW144678   5.280   6.780   3.858 -1.1562 -0.0154 -0.8790
14700SOL    HW244679   5.144   6.837   3.894 -1.2888 -1.2366  0.6668
14701SOL     OW44680   6.699   1.431   8.509 -0.0890  0.3481  1.0608
14701SOL    HW144681   6.637   1.410   8.438 -0.5673  1.9153  0.9781
14701SOL    HW244682   6.700   1.352   8.563 -1.1208 -0.2140  0.3098
14702SOL     OW44683   3.370   7.665   4.687 -0.0493 -0.2246 -0.3977
14702SOL    HW144684   3.412   7.586   4.721 -1.6594 -1.0194 -0.1820
14702SOL    HW244685   3.282   7.664   4.724 -1.0238  0.2480 -2.5275
14703SOL     OW44686   2.523   5.846   6.936  0.3493  0.5856 -0.1997
14703SOL    HW144687   2.582   5.780   6.901 -1.5140 -0.7790 -0.9612
14703SOL    HW244688   2.525   5.916   6.870  1.1010  0.5638 -0.2113
14704SOL     OW44689   0.932   0.731   1.751  0.1613  0.3313 -0.3799
14704SOL    HW144690   0.913   0.731   1.845 -1.3892  1.4698 -0.6554
14704SOL    HW244691   0.850   0.757   1.710  0.9816  0.4583 -2.0260
14705SOL     OW44692   3.329   3.907   8.782 -0.3012  0.4407 -0.2238
14705SOL    HW144693   3.336   3.923   8.688  1.8458  0.8356 -0.0601
14705SOL    HW244694   3.371   3.822   8.795 -1.6799 -0.1898  0.2485
14706SOL     OW44695   6.200   2.653   6.816  0.2100 -0.3071 -0.1019
14706SOL    HW144696   6.242   2.739   6.824 -0.8720  0.2583 -0.2490
14706SOL    HW244697   6.217   2.626   6.725  1.4996 -0.7798  0.2595
14707SOL     OW44698   4.126   7.600   3.548 -0.4120  0.1156  0.1781
14707SOL    HW144699   4.121   7.571   3.457 -0.4881 -0.7741  0.4546
14707SOL    HW244700   4.145   7.694   3.543  0.7231 -0.1497 -0.7403
14708SOL     OW44701   5.734   1.775   4.673  0.0151 -0.2463  0.1305
14708SOL    HW144702   5.770   1.687   4.664 -1.3920 -1.0182  1.5794
14708SOL    HW244703   5.798   1.831   4.629  0.2455 -2.1072 -2.1125
14709SOL     OW44704   0.561   4.997   2.933 -0.2541 -0.5963 -0.1050
14709SOL    HW144705   0.489   4.954   2.887 -1.0589  1.5416 -0.9939
14709SOL    HW244706   0.517   5.053   2.997  0.6346  0.3406 -0.2902
14710SOL     OW44707   4.105   0.270   0.053  0.4547 -0.4236 -0.2731
14710SOL    HW144708   4.062   0.334   0.109 -0.7594 -0.9894 -0.5351
14710SOL    HW244709   4.141   0.321  -0.019  1.0237  0.1668  0.4218
14711SOL     OW44710   5.263   7.923   2.354 -0.2153 -0.2115  0.7701
14711SOL    HW144711   5.275   7.924   2.259 -0.1044 -0.8357  0.7780
14711SOL    HW244712   5.186   7.978   2.368  1.4725  2.4421  0.5717
14712SOL     OW44713   6.930   8.034   5.599  0.4827 -0.3217  0.2467
14712SOL    HW144714   6.847   8.080   5.589  1.9205  2.0833 -2.2263
14712SOL    HW244715   6.980   8.089   5.660  0.9426 -0.6447  0.1668
14713SOL     OW44716   9.534   4.950   8.937 -0.4012  0.1545 -0.1464
14713SOL    HW144717   9.462   4.972   8.996 -2.0240 -0.7366 -1.6940
14713SOL    HW244718   9.588   4.888   8.986 -0.0582  1.6132  1.4117
14714SOL     OW44719   4.022   3.677   2.209  0.4467 -0.3484  0.1342
14714SOL    HW144720   4.082   3.641   2.275  0.8153 -0.8924 -0.4727
14714SOL    HW244721   3.993   3.760   2.245  1.2963 -0.2424  0.6159
14715SOL     OW44722   4.151   1.447   5.868 -0.1888  0.3118  0.0536
14715SOL    HW144723   4.087   1.434   5.799 -1.4374  0.0848  1.2293
14715SOL    HW244724   4.206   1.518   5.835  0.7730 -1.3376 -2.2092
14716SOL     OW44725   3.098   5.150   3.245 -0.0761  0.3536  0.0128
14716SOL    HW144726   3.032   5.209   3.283 -0.9590 -0.3112 -0.4448
14716SOL    HW244727   3.120   5.091   3.317 -0.7577 -0.0700 -0.1170
14717SOL     OW44728   6.134   0.222   7.010 -0.4430  0.0449  0.0762
14717SOL    HW144729   6.177   0.248   6.928 -0.4164 -1.7918 -0.5323
14717SOL    HW244730   6.041   0.226   6.990 -0.6064  2.7994  1.0146
14718SOL     OW44731   5.864   9.049   1.452  0.1963 -1.1472  0.0580
14718SOL    HW144732   5.784   9.063   1.401  0.5689  0.9146 -0.0582
14718SOL    HW244733   5.834   9.016   1.537 -0.8923  0.4644  0.3349
14719SOL     OW44734   8.946   1.083   4.295 -0.2776 -0.0236 -0.1261
14719SOL    HW144735   8.945   1.096   4.390 -1.2764  0.2451 -0.1606
14719SOL    HW244736   9.038   1.092   4.270  0.2234 -1.5581  1.0016
14720SOL     OW44737   1.821   0.163   1.908  0.0208 -0.2296 -0.1327
14720SOL    HW144738   1.879   0.090   1.888  0.8344  0.1155  0.8799
14720SOL    HW244739   1.789   0.192   1.822  0.0881 -1.4295 -0.5831
14721SOL     OW44740   2.708   1.745   4.572  0.1967 -0.3951  1.1232
14721SOL    HW144741   2.801   1.728   4.555  0.1496  0.1960  0.2405
14721SOL    HW244742   2.671   1.658   4.588  0.7047 -0.7452  0.4555
14722SOL     OW44743   7.003   0.701   1.456 -0.9176  0.3547 -0.3391
14722SOL    HW144744   7.096   0.719   1.439 -1.0897  1.0680 -0.5481
14722SOL    HW244745   6.968   0.675   1.371 -0.3359 -2.6744  0.2103
14723SOL     OW44746   5.679   9.681   5.258  0.6416 -0.3262 -0.4976
14723SOL    HW144747   5.649   9.645   5.341  2.2318 -0.6264 -0.0114
14723SOL    HW244748   5.620   9.754   5.240  1.3457  0.9090  1.8162
14724SOL     OW44749   8.644   2.116   3.636 -0.5746 -0.0457  0.0098
14724SOL    HW144750   8.630   2.138   3.728  0.3197  0.4550  0.0449
14724SOL    HW244751   8.557   2.110   3.598 -0.9696 -0.6615  0.9801
14725SOL     OW44752   0.145   8.644   0.748  0.4630  0.6238 -0.0095
14725SOL    HW144753   0.066   8.688   0.717  0.1812  0.6823  0.7556
14725SOL    HW244754   0.213   8.711   0.746 -0.0109  1.1749  1.3444
14726SOL     OW44755   5.227   0.259   8.134  0.2620 -0.4042 -0.1289
14726SOL    HW144756   5.249   0.187   8.192  0.6401 -0.1083  0.0993
14726SOL    HW244757   5.248   0.227   8.046 -1.9773 -1.5217 -0.3313
14727SOL     OW44758   6.137   5.507   7.670  0.6376 -0.3806  0.2760
14727SOL    HW144759   6.155   5.488   7.578  0.2273  0.0855  0.0929
14727SOL    HW244760   6.060   5.564   7.668  1.2356  0.4678  0.8536
14728SOL     OW44761   2.629   2.354   1.686 -0.1105 -0.0398  0.2656
14728SOL    HW144762   2.540   2.352   1.651 -0.9103  0.7650  2.1178
14728SOL    HW244763   2.638   2.272   1.733 -0.2845  0.3423  0.9814
14729SOL     OW44764   8.947   3.087   5.819 -0.2429  0.2330 -0.1212
14729SOL    HW144765   8.995   3.159   5.860 -0.2779  0.2885 -0.1786
14729SOL    HW244766   8.878   3.129   5.768 -0.3222  0.1552 -0.0802
14730SOL     OW44767   5.384   5.433   4.822  0.0318 -0.0188  0.4055
14730SOL    HW144768   5.328   5.486   4.878 -0.2150 -2.0533  2.1980
14730SOL    HW244769   5.414   5.362   4.878  1.9815 -0.6683 -1.3480
14731SOL     OW44770   2.963   9.580   3.934  0.6575 -0.0659  0.3904
14731SOL    HW144771   2.927   9.661   3.970 -0.8934 -0.3882 -0.3905
14731SOL    HW244772   3.038   9.609   3.882  0.6185  0.7793  0.7857
14732SOL     OW44773   9.979   5.271   5.930  0.3356  0.6508  0.6283
14732SOL    HW144774   9.898   5.266   5.981 -1.0456 -1.2110 -1.5944
14732SOL    HW244775  10.009   5.181   5.924  2.1695  1.2185  0.6877
14733SOL     OW44776   7.433   0.791   7.263  0.0414  0.8325 -0.3785
14733SOL    HW144777   7.444   0.803   7.169  3.2597 -0.2053 -0.2598
14733SOL    HW244778   7.369   0.857   7.289 -1.9581  0.2463 -3.4505
14734SOL     OW44779   8.029   5.191   0.914  0.3590 -0.1544  0.5999
14734SOL    HW144780   8.004   5.239   0.836 -2.2148  0.4234  1.6843
14734SOL    HW244781   8.018   5.099   0.890 -2.5415  0.0512  0.8287
14735SOL     OW44782   2.167   1.560   7.034 -0.0199  0.1191  0.0004
14735SOL    HW144783   2.158   1.615   6.956 -0.7552 -1.5658 -1.1498
14735SOL    HW244784   2.193   1.475   7.001 -0.4592 -0.6786  1.5984
14736SOL     OW44785   5.246   8.817   7.880 -0.1511 -0.2285  0.2836
14736SOL    HW144786   5.162   8.857   7.901  0.9124  1.8532  0.8558
14736SOL    HW244787   5.224   8.731   7.845 -2.3892 -0.7276  2.6428
14737SOL     OW44788   2.000   7.338   9.869 -0.9889 -0.1933  0.6441
14737SOL    HW144789   1.972   7.249   9.847 -2.0078  0.6386 -1.7470
14737SOL    HW244790   2.067   7.359   9.804 -1.9992  1.3645  0.0356
14738SOL     OW44791   4.122   5.271   0.060  0.5885 -0.0250  0.2704
14738SOL    HW144792   4.198   5.221   0.030  1.5947  1.0703  0.8597
14738SOL    HW244793   4.146   5.300   0.148 -0.5193  0.3464  0.4693
14739SOL     OW44794   5.341   9.642   9.491  0.2447  0.4614 -0.0993
14739SOL    HW144795   5.344   9.586   9.569  3.1323 -1.5006 -1.4486
14739SOL    HW244796   5.271   9.606   9.437  1.1876 -1.0757 -0.3418
14740SOL     OW44797   9.682   2.335   5.212 -0.1856  0.0282 -0.7941
14740SOL    HW144798   9.741   2.263   5.235  0.8421  0.9767 -0.4280
14740SOL    HW244799   9.595   2.294   5.211  0.4396 -1.3456 -1.1652
14741SOL     OW44800   3.664   7.217   9.377 -0.1086  0.3741  0.6858
14741SOL    HW144801   3.718   7.289   9.410  0.9051 -0.3168  0.5531
14741SOL    HW244802   3.681   7.145   9.437 -0.2014 -0.1199  0.1263
14742SOL     OW44803   2.624   0.476   3.794  0.4434 -0.0367 -0.0514
14742SOL    HW144804   2.543   0.513   3.829 -0.2356 -0.3991 -1.1954
14742SOL    HW244805   2.685   0.550   3.789 -0.1430  0.4399 -0.1366
14743SOL     OW44806   8.873   1.557   0.786  0.0479  0.0103  0.0205
14743SOL    HW144807   8.932   1.498   0.740 -1.1914 -1.6746  0.4898
14743SOL    HW244808   8.816   1.592   0.718 -1.1460 -1.7144  0.0545
14744SOL     OW44809   7.755   6.579   4.587  0.1948  0.3215 -0.0430
14744SOL    HW144810   7.844   6.614   4.579  0.4843  0.0261  1.5612
14744SOL    HW244811   7.745   6.523   4.510  0.9877  1.2036 -0.8160
14745SOL     OW44812   9.068   8.802   2.674  0.0863 -0.1757 -0.2355
14745SOL    HW144813   9.122   8.776   2.599  0.6705  0.8628 -0.1903
14745SOL    HW244814   9.008   8.867   2.638 -0.0671 -0.1539  0.0596
14746SOL     OW44815   1.630   1.439   1.436 -0.0103  0.1077 -0.2889
14746SOL    HW144816   1.679   1.512   1.398 -0.4387  0.5218 -0.0581
14746SOL    HW244817   1.634   1.370   1.370  0.5626  0.2688 -0.4265
14747SOL     OW44818   5.181   6.503   2.281 -0.3406  0.7385 -0.3740
14747SOL    HW144819   5.181   6.596   2.304  1.0355  0.3464  1.3788
14747SOL    HW244820   5.104   6.468   2.325  1.0914  0.4180  2.0324
14748SOL     OW44821   8.456   1.772   9.423 -0.3883  0.0069  0.3218
14748SOL    HW144822   8.513   1.737   9.492 -0.9748  1.3443  1.5360
14748SOL    HW244823   8.417   1.694   9.382  2.6417 -1.0079 -0.9221
14749SOL     OW44824   7.853   9.299   3.595 -0.0728 -0.2407 -0.2288
14749SOL    HW144825   7.841   9.208   3.625 -0.3048 -0.2708 -0.4094
14749SOL    HW244826   7.824   9.352   3.669 -0.7157 -0.3144 -0.4185
14750SOL     OW44827   9.070   2.602   3.109  0.6503 -0.4730  0.6426
14750SOL    HW144828   9.054   2.690   3.144  0.0938 -0.8668  1.3889
14750SOL    HW244829   8.994   2.551   3.136  0.0408 -0.7461 -1.3647
14751SOL     OW44830   0.975   3.795   9.707  0.1888  0.3457  0.1867
14751SOL    HW144831   0.967   3.825   9.797 -0.1486 -1.7656  0.9099
14751SOL    HW244832   0.889   3.809   9.668 -0.1027 -0.0998  0.6601
14752SOL     OW44833   6.365   8.695   3.268 -0.1830  0.5218 -0.6497
14752SOL    HW144834   6.316   8.613   3.260 -0.7549  0.7012  0.7367
14752SOL    HW244835   6.298   8.762   3.281  0.3602  0.7742  1.2427
14753SOL     OW44836   8.538   5.395   5.430  0.3006  0.5744  0.4349
14753SOL    HW144837   8.477   5.421   5.362  1.4010  0.0149 -0.8173
14753SOL    HW244838   8.540   5.299   5.425  0.0414  0.4937  1.5869
14754SOL     OW44839   0.538   7.341   6.266  0.1446 -0.2900  0.1365
14754SOL    HW144840   0.532   7.320   6.173  1.1230 -2.0610  0.4257
14754SOL    HW244841   0.544   7.436   6.269 -2.1987  0.0025 -1.4503
14755SOL     OW44842   8.270   0.743   7.414 -0.5523  0.8165 -0.2686
14755SOL    HW144843   8.200   0.698   7.462  1.1374  1.3338  3.0002
14755SOL    HW244844   8.269   0.832   7.448 -0.0121  1.5906 -2.1868
14756SOL     OW44845   8.797   6.101   6.328  0.0424  0.1840  0.2310
14756SOL    HW144846   8.787   6.023   6.274  1.5939  1.8229 -2.6389
14756SOL    HW244847   8.883   6.091   6.369  0.5694  0.6970 -0.7318
14757SOL     OW44848   7.942   8.234   6.732 -0.4363  0.3079  0.2233
14757SOL    HW144849   7.857   8.275   6.747 -1.6106 -1.9048  0.0312
14757SOL    HW244850   7.974   8.214   6.820 -0.6785  0.0673  0.2572
14758SOL     OW44851   3.581   6.885   1.933  0.0293  0.6093  0.3336
14758SOL    HW144852   3.563   6.946   2.005  0.7444  1.0597  0.1373
14758SOL    HW244853   3.635   6.935   1.872  1.1382 -0.3997  0.4589
14759SOL     OW44854   7.132   1.225   7.263 -0.0653 -0.1414  0.0215
14759SOL    HW144855   7.085   1.175   7.330  0.9324  1.0764  1.7007
14759SOL    HW244856   7.088   1.310   7.262  1.5422  0.7395  1.0478
14760SOL     OW44857   0.776   8.075   9.796 -0.2981  0.5883 -0.3838
14760SOL    HW144858   0.860   8.104   9.831 -0.7086  0.7665  0.4617
14760SOL    HW244859   0.748   8.005   9.855 -0.4527  0.0919 -1.0277
14761SOL     OW44860   1.038   1.743   6.763  0.0147 -0.0226  0.2013
14761SOL    HW144861   1.106   1.684   6.796 -0.7405 -0.6562  0.6789
14761SOL    HW244862   0.957   1.693   6.772 -0.6513  1.0782  0.5974
14762SOL     OW44863   5.258   4.014   9.158 -0.1253  0.0328  0.2200
14762SOL    HW144864   5.256   4.032   9.252 -1.1418  0.2471  0.1664
14762SOL    HW244865   5.255   4.100   9.117  1.3579 -0.0040 -0.0258
14763SOL     OW44866   2.663   8.687   6.252 -0.1568 -0.2155  0.6477
14763SOL    HW144867   2.680   8.776   6.220  0.7464 -0.3068  0.8511
14763SOL    HW244868   2.688   8.690   6.344 -3.4190  0.2481  1.6411
14764SOL     OW44869   2.158   1.728   6.756  0.4265 -0.4562  0.0392
14764SOL    HW144870   2.138   1.802   6.700 -0.4567 -0.3173  0.5165
14764SOL    HW244871   2.215   1.672   6.703 -0.7694 -0.5682 -1.1794
14765SOL     OW44872   1.865   0.935   8.770  0.1430  0.5703 -0.0245
14765SOL    HW144873   1.776   0.902   8.788  0.9247 -1.8982 -0.2860
14765SOL    HW244874   1.859   0.973   8.683 -1.1826  2.7048  0.9253
14766SOL     OW44875   8.446   2.967   6.587  0.1567 -0.1302 -0.2631
14766SOL    HW144876   8.501   3.043   6.603 -1.4193  1.0253 -0.1388
14766SOL    HW244877   8.386   2.964   6.661  0.3018 -1.6208 -0.1718
14767SOL     OW44878   3.400   1.058   7.025  0.3272  0.5017  0.3734
14767SOL    HW144879   3.343   1.125   7.064  1.3172  1.3562  0.4092
14767SOL    HW244880   3.487   1.099   7.023  0.6588 -0.2134 -1.0496
14768SOL     OW44881   4.748   2.721   0.278  0.7325  0.1858 -0.1350
14768SOL    HW144882   4.829   2.672   0.289 -0.2239 -0.8827  4.1104
14768SOL    HW244883   4.775   2.804   0.239  3.9958  0.0381  1.4583
14769SOL     OW44884   8.426   3.419   2.637  0.0646  0.4503 -0.5966
14769SOL    HW144885   8.490   3.402   2.567  0.4541  0.6122 -0.2887
14769SOL    HW244886   8.398   3.332   2.666 -0.3245  0.3875 -1.1549
14770SOL     OW44887   7.645   1.177   4.144 -0.0022  0.0188 -0.4002
14770SOL    HW144888   7.618   1.096   4.188  0.5940  1.9086  3.9880
14770SOL    HW244889   7.741   1.176   4.149  0.0765  0.3716 -1.6231
14771SOL     OW44890   5.729   0.583   3.489  0.0814  0.2114  0.5488
14771SOL    HW144891   5.709   0.625   3.572 -0.0917 -2.1770  1.8033
14771SOL    HW244892   5.825   0.572   3.490  0.0360 -0.1925  0.6377
14772SOL     OW44893   1.740   5.549   8.612 -0.0027 -0.7494  0.2459
14772SOL    HW144894   1.759   5.455   8.604  2.7550 -0.3738  1.3093
14772SOL    HW244895   1.825   5.590   8.625 -1.2223  1.8237  0.8049
14773SOL     OW44896   0.547   1.632   2.044  0.3774 -1.0860  0.0319
14773SOL    HW144897   0.485   1.566   2.014  0.6296 -1.1676 -0.3209
14773SOL    HW244898   0.542   1.701   1.978 -0.9595 -0.0646  1.1539
14774SOL     OW44899   3.237   2.944   3.773 -0.1594 -0.3346 -0.0361
14774SOL    HW144900   3.283   2.903   3.846  0.2707 -2.4044 -1.4029
14774SOL    HW244901   3.145   2.933   3.794 -0.0424 -1.3237 -0.0229
14775SOL     OW44902   3.012   5.617   5.347 -0.0440 -0.6611 -0.2922
14775SOL    HW144903   3.007   5.528   5.313  0.5010 -0.7304 -0.1899
14775SOL    HW244904   3.032   5.606   5.440 -0.1811 -0.4361 -0.2343
14776SOL     OW44905   0.646   6.305   9.715  1.0403 -0.0383 -0.1253
14776SOL    HW144906   0.673   6.392   9.742  0.0378 -0.0433  0.9642
14776SOL    HW244907   0.675   6.248   9.786  1.4060 -0.5547 -0.6793
14777SOL     OW44908   7.281   1.922   5.741 -0.3553  0.5346 -0.4353
14777SOL    HW144909   7.197   1.957   5.709 -0.3002 -0.9433 -2.3734
14777SOL    HW244910   7.261   1.891   5.830 -2.0946 -0.4031 -1.0858
14778SOL     OW44911   3.302   9.730   3.407 -0.1149  0.2209  0.0243
14778SOL    HW144912   3.358   9.796   3.449  0.8286 -0.1522 -0.6049
14778SOL    HW244913   3.364   9.663   3.377 -1.0811 -1.3044  1.2424
14779SOL     OW44914   8.602   7.678   6.275  0.2610  0.6652 -0.1115
14779SOL    HW144915   8.651   7.751   6.311  0.2215  0.3694  0.5585
14779SOL    HW244916   8.646   7.600   6.309  0.8739  0.3423 -1.5664
14780SOL     OW44917   5.942   4.627   0.076  0.0956  0.4472  0.4403
14780SOL    HW144918   5.981   4.708   0.107  0.6632  0.3126  0.0914
14780SOL    HW244919   5.971   4.619  -0.015  0.7660 -0.5755  0.7146
14781SOL     OW44920   4.094   0.012   0.040  0.2795  0.2386  0.4512
14781SOL    HW144921   4.027  -0.005  -0.026  1.3697 -1.5998 -0.2811
14781SOL    HW244922   4.108   0.106   0.037  3.2132  0.0360 -5.0906
14782SOL     OW44923   1.207   8.853   9.068 -0.5467  0.9209  0.3439
14782SOL    HW144924   1.203   8.921   9.000  0.2831  0.1508 -0.4996
14782SOL    HW244925   1.242   8.898   9.145  2.1562  1.0198 -0.8238
14783SOL     OW44926   1.472   2.401   5.568  0.1327  0.3560  0.2020
14783SOL    HW144927   1.546   2.439   5.521 -0.1608 -0.1273 -0.6693
14783SOL    HW244928   1.404   2.391   5.502  0.5310 -2.6454  0.1021
14784SOL     OW44929   0.308   5.283   1.459 -0.0350  0.1147  0.2689
14784SOL    HW144930   0.247   5.263   1.389  0.3053  1.7876 -0.5719
14784SOL    HW244931   0.376   5.336   1.416  1.1220 -0.3177  1.5061
14785SOL     OW44932   6.702   5.099   9.143 -0.0630 -0.1362 -0.3303
14785SOL    HW144933   6.623   5.046   9.148  0.7117 -1.4383 -1.2063
14785SOL    HW244934   6.703   5.148   9.226 -1.2142 -0.9016  0.1648
14786SOL     OW44935   3.583   1.110   6.241 -0.2993 -0.0062  0.4509
14786SOL    HW144936   3.543   1.098   6.155 -0.4357  3.3370 -0.0975
14786SOL    HW244937   3.672   1.140   6.222 -0.5818  1.5360  1.4092
14787SOL     OW44938   9.188   4.656   7.219  0.2856 -0.1262  0.3129
14787SOL    HW144939   9.129   4.674   7.292 -0.1895 -0.1681 -0.0599
14787SOL    HW244940   9.131   4.628   7.148  0.8615 -1.5277  0.3719
14788SOL     OW44941   0.268   8.500   3.758  0.7669  0.4150  0.2937
14788SOL    HW144942   0.198   8.566   3.747  0.6975 -0.0043 -2.4409
14788SOL    HW244943   0.349   8.550   3.750  0.7126  0.3077 -1.3781
14789SOL     OW44944   6.678   0.657   5.981  0.2451 -0.3967 -0.5616
14789SOL    HW144945   6.641   0.577   6.018  0.1526 -0.3581 -0.5690
14789SOL    HW244946   6.602   0.715   5.970  0.5112  0.2795  0.9210
14790SOL     OW44947   1.115   3.559   6.853  0.4737  0.0369 -0.5779
14790SOL    HW144948   1.053   3.552   6.926  0.5619  1.6906 -0.2989
14790SOL    HW244949   1.100   3.479   6.802  0.9422 -1.5690  1.6212
14791SOL     OW44950   2.537   4.017   7.475 -0.5509 -0.1999 -0.5448
14791SOL    HW144951   2.629   4.002   7.499 -0.6450 -1.8989 -1.0954
14791SOL    HW244952   2.511   3.936   7.431 -2.2743  0.3221 -0.5379
14792SOL     OW44953   4.354   8.451   2.750 -0.1729  0.4780 -0.3635
14792SOL    HW144954   4.356   8.362   2.785 -3.4133  0.9032  1.2585
14792SOL    HW244955   4.311   8.442   2.665 -1.8984  0.5759  0.4535
14793SOL     OW44956   7.853   7.888   1.351 -0.5064 -0.3686  0.0905
14793SOL    HW144957   7.924   7.836   1.387  0.2502  0.6557  0.1143
14793SOL    HW244958   7.896   7.955   1.298 -1.2603  1.7238  1.9257
14794SOL     OW44959   4.555   6.487   7.178  0.0048 -0.3088  0.1396
14794SOL    HW144960   4.565   6.456   7.088  0.1216 -0.7497  0.3059
14794SOL    HW244961   4.520   6.412   7.226  2.1346 -0.8487  0.9705
14795SOL     OW44962   9.322   2.513   6.152  0.4139  0.4329 -0.0455
14795SOL    HW144963   9.270   2.540   6.228  1.9831  0.5009  1.0673
14795SOL    HW244964   9.411   2.545   6.172  1.0722 -0.4327 -1.4469
14796SOL     OW44965   1.108   2.678   3.633  0.7762  0.5767  0.0616
14796SOL    HW144966   1.078   2.591   3.658  0.8288  0.0404 -1.6450
14796SOL    HW244967   1.183   2.663   3.577  1.1662  1.7559  0.2422
14797SOL     OW44968   1.122   0.433   3.350 -0.0863 -0.2897  0.4708
14797SOL    HW144969   1.209   0.470   3.368  1.0631 -2.1498 -0.9198
14797SOL    HW244970   1.063   0.508   3.354  1.7800  1.2750  0.0869
14798SOL     OW44971   2.865   4.366   9.515  0.1138 -0.4977 -0.6723
14798SOL    HW144972   2.954   4.375   9.549 -0.6020 -0.0327  1.1466
14798SOL    HW244973   2.863   4.278   9.477  0.8482 -1.2015  0.8376
14799SOL     OW44974   1.351   9.760   6.695  0.2706 -0.0800  0.3340
14799SOL    HW144975   1.366   9.669   6.669  0.6937 -0.0731  0.5435
14799SOL    HW244976   1.417   9.810   6.646  1.3262 -0.1079  1.6643
14800SOL     OW44977   7.218   0.090   7.614  0.1253  0.0585 -0.3014
14800SOL    HW144978   7.140   0.073   7.560  0.0034 -1.7706  0.3675
14800SOL    HW244979   7.199   0.046   7.697  1.5556  0.2552  0.1487
14801SOL     OW44980   1.086   8.061   7.179 -0.3128 -0.0572 -0.4768
14801SOL    HW144981   1.124   8.124   7.118  0.6747 -0.2965 -0.1442
14801SOL    HW244982   1.015   8.108   7.221 -2.6248 -0.6167 -3.4435
14802SOL     OW44983   6.426   0.073   9.784  0.1844  0.1405 -0.5397
14802SOL    HW144984   6.463   0.108   9.864 -1.9242  0.2953  0.4348
14802SOL    HW244985   6.458  -0.018   9.780 -1.8817 -0.8353  2.0746
14803SOL     OW44986   4.729   7.962   3.457  0.0169 -0.0071  0.0795
14803SOL    HW144987   4.808   7.910   3.470  0.9114  0.5891 -2.4701
14803SOL    HW244988   4.683   7.957   3.541  1.7333 -2.0465  0.9903
14804SOL     OW44989   4.892   6.198   6.085 -0.6567  0.6544 -0.3321
14804SOL    HW144990   4.924   6.137   6.150 -1.4780 -0.4875 -0.9740
14804SOL    HW244991   4.919   6.284   6.118  0.3273 -0.0114  0.6866
14805SOL     OW44992   6.289   3.737   2.039  0.5101 -0.5662  0.6682
14805SOL    HW144993   6.266   3.763   2.128 -1.6528  0.5565 -0.1441
14805SOL    HW244994   6.216   3.683   2.009 -1.1062  2.6026 -1.8058
14806SOL     OW44995   5.511   1.586   7.747 -0.0679 -0.2190 -0.1807
14806SOL    HW144996   5.541   1.664   7.793  0.6963 -0.2288 -0.6519
14806SOL    HW244997   5.590   1.539   7.724 -0.3918 -0.0332 -1.7988
14807SOL     OW44998   1.880   4.201   9.797  0.5518  0.2674  0.0192
14807SOL    HW144999   1.877   4.215   9.702  0.1297  1.4697  0.1942
14807SOL    HW245000   1.953   4.256   9.827 -0.1580  0.9355  0.5514
14808SOL     OW45001   4.753   8.003   4.794  0.0441  0.1627 -0.7500
14808SOL    HW145002   4.836   8.021   4.838  1.2862 -4.9981 -0.2800
14808SOL    HW245003   4.688   8.002   4.864  0.6660 -0.8419 -0.1505
14809SOL     OW45004   0.546   8.616   0.859 -0.1286 -0.0380 -0.5590
14809SOL    HW145005   0.557   8.646   0.949 -1.2283 -2.2049  0.3911
14809SOL    HW245006   0.461   8.651   0.832  0.6594  1.4681 -1.1683
14810SOL     OW45007   6.504   0.526   1.302  0.6644  0.0213  0.0369
14810SOL    HW145008   6.529   0.618   1.297  0.1925  0.3368  2.3413
14810SOL    HW245009   6.409   0.525   1.289  0.6122 -0.0868  0.4122
14811SOL     OW45010   9.160   6.394   5.164 -0.3581 -0.1593 -0.1732
14811SOL    HW145011   9.097   6.461   5.189  0.5047  0.6241 -0.0354
14811SOL    HW245012   9.227   6.398   5.232  0.8211  0.3557 -1.3221
14812SOL     OW45013   2.721   0.006   8.888 -0.3111  0.0295 -0.3196
14812SOL    HW145014   2.777   0.008   8.810  2.4346 -0.5415  1.4993
14812SOL    HW245015   2.736   0.091   8.930 -2.0455  0.4752 -0.5514
14813SOL     OW45016   2.567   4.256   2.683 -0.0988  0.4219 -0.5487
14813SOL    HW145017   2.479   4.227   2.704  0.1567 -1.6779 -2.0547
14813SOL    HW245018   2.560   4.351   2.675 -2.6795  0.1866 -2.4593
14814SOL     OW45019   9.104   5.935   8.717 -0.2998  0.5020  0.1458
14814SOL    HW145020   9.021   5.900   8.749  0.0838 -0.5875 -0.0056
14814SOL    HW245021   9.159   5.858   8.704 -0.7761  0.6511 -4.2083
14815SOL     OW45022   3.572   6.109   7.615  0.1572  0.2027  0.1233
14815SOL    HW145023   3.591   6.015   7.616  0.1109  0.1960  0.8118
14815SOL    HW245024   3.554   6.129   7.523 -0.0402 -0.5014  0.0069
14816SOL     OW45025   8.985   0.688   3.508 -0.7141 -0.5215 -0.3668
14816SOL    HW145026   9.020   0.653   3.426  0.6015 -1.5316  0.5784
14816SOL    HW245027   8.890   0.690   3.496 -0.5195 -0.3481 -2.0090
14817SOL     OW45028   5.664   6.814   4.933 -0.0907 -0.7439  0.2735
14817SOL    HW145029   5.573   6.828   4.958  0.0114 -0.9741  0.7849
14817SOL    HW245030   5.696   6.747   4.994  0.1632 -1.3221 -0.4722
14818SOL     OW45031   5.113   1.086   8.706 -0.2906  0.5793  0.0408
14818SOL    HW145032   5.194   1.092   8.757  0.0962  2.3656 -0.6973
14818SOL    HW245033   5.060   1.160   8.737 -0.3655  1.2324 -1.5648
14819SOL     OW45034   9.220   3.855   2.384 -0.0619 -0.1855  0.3952
14819SOL    HW145035   9.270   3.884   2.308  0.0873 -0.5674  0.3414
14819SOL    HW245036   9.166   3.783   2.350 -1.6314  1.0671  0.1482
14820SOL     OW45037   3.152   6.647   7.519  0.3581  0.1343 -0.0228
14820SOL    HW145038   3.092   6.581   7.554 -0.1676  0.0125 -1.1171
14820SOL    HW245039   3.239   6.612   7.537  0.1445  0.6196  2.1746
14821SOL     OW45040   3.242   7.230   6.387  0.6160  0.2579  0.0674
14821SOL    HW145041   3.246   7.190   6.301  1.6702 -0.7457  0.5445
14821SOL    HW245042   3.157   7.272   6.391 -0.9800 -2.6825 -0.1683
14822SOL     OW45043   5.147   2.200   0.424  0.0601 -0.4341 -0.1145
14822SOL    HW145044   5.056   2.201   0.452 -0.8247  2.1672 -2.6262
14822SOL    HW245045   5.183   2.283   0.453  1.2241 -0.8112 -0.4040
14823SOL     OW45046   9.311   2.252   4.020 -0.1586 -0.1439 -0.0188
14823SOL    HW145047   9.335   2.209   3.938 -1.0344 -0.8630  0.0901
14823SOL    HW245048   9.327   2.345   4.004  0.9049 -0.4073 -0.5651
14824SOL     OW45049   5.846   1.317   9.677 -0.3830 -0.4635  0.2502
14824SOL    HW145050   5.895   1.363   9.745 -2.3981 -1.1710  2.2901
14824SOL    HW245051   5.902   1.244   9.652  0.4310 -0.1396  1.0734
14825SOL     OW45052   4.539   9.269   4.983 -0.2131  0.3292 -0.2030
14825SOL    HW145053   4.604   9.338   4.993 -0.3376  0.4843 -0.4500
14825SOL    HW245054   4.484   9.276   5.061 -1.1118  1.4559 -0.9100
14826SOL     OW45055   5.842   6.618   2.988  0.3320 -0.0436 -0.2778
14826SOL    HW145056   5.774   6.593   2.925  2.1769 -3.8259 -1.0415
14826SOL    HW245057   5.839   6.550   3.055  2.3039  0.5894  0.5186
14827SOL     OW45058   0.503   6.095   1.026  0.3812  0.0732  0.9115
14827SOL    HW145059   0.571   6.094   0.960 -0.2168 -1.3799  0.2705
14827SOL    HW245060   0.460   6.180   1.016 -0.1209 -0.3569 -1.0437
14828SOL     OW45061   4.927   6.008   6.955 -0.1750 -0.4810  0.4438
14828SOL    HW145062   4.980   6.009   6.876 -0.5654 -0.1402  0.1812
14828SOL    HW245063   4.840   6.035   6.926 -0.5155 -1.1080  0.8532
14829SOL     OW45064   0.519   8.364   8.558 -0.3127 -0.1272 -0.3712
14829SOL    HW145065   0.523   8.354   8.463  0.0246 -0.6133 -0.3058
14829SOL    HW245066   0.557   8.451   8.574  0.6059 -0.4778 -0.5972
14830SOL     OW45067   8.665   0.138   1.314 -0.2481 -0.3590  0.0929
14830SOL    HW145068   8.687   0.226   1.284 -1.9129  0.1684  0.3476
14830SOL    HW245069   8.625   0.151   1.399  1.9921 -1.6266  1.4472
14831SOL     OW45070   6.784   5.424   3.834 -0.0814 -0.1795 -0.5152
14831SOL    HW145071   6.744   5.388   3.914 -0.9816 -1.4026 -1.4715
14831SOL    HW245072   6.716   5.480   3.797  0.6734  1.1411  0.0282
14832SOL     OW45073   6.759   2.150   6.636 -0.2048  0.6330 -0.5292
14832SOL    HW145074   6.805   2.222   6.679 -0.4540  0.7526 -0.4613
14832SOL    HW245075   6.666   2.170   6.648 -0.2811 -0.0565  0.1038
14833SOL     OW45076   8.691   2.276   8.780  0.4117 -0.6323 -0.0904
14833SOL    HW145077   8.624   2.222   8.738  0.3689  0.0732 -0.9504
14833SOL    HW245078   8.774   2.246   8.742  0.3793 -0.0479 -0.6496
14834SOL     OW45079   2.666   1.777   8.679  0.1489 -0.4066 -0.1372
14834SOL    HW145080   2.718   1.734   8.611  0.3580  1.0039 -0.8979
14834SOL    HW245081   2.650   1.865   8.646 -1.7691 -0.4328  0.5958
14835SOL     OW45082   6.817   8.935   6.541 -0.3633  0.6671  0.2024
14835SOL    HW145083   6.892   8.953   6.598  0.2760 -0.1465 -0.3488
14835SOL    HW245084   6.772   9.019   6.532  0.5112  1.1779  0.5137
14836SOL     OW45085   0.225   3.665   6.412  0.2552  0.3945  0.9301
14836SOL    HW145086   0.234   3.760   6.402  0.6646  0.2007 -0.7780
14836SOL    HW245087   0.164   3.639   6.344  1.4769 -0.7791  0.2337
14837SOL     OW45088   7.879   9.698   5.281 -0.1202 -0.2826  0.3281
14837SOL    HW145089   7.846   9.687   5.192  1.4333  0.5074 -0.3824
14837SOL    HW245090   7.975   9.695   5.272  0.0782  0.4007  1.8776
14838SOL     OW45091   9.349   4.838   8.755  0.4382 -0.0895 -0.8402
14838SOL    HW145092   9.286   4.873   8.818  0.1838  0.0087 -1.1524
14838SOL    HW245093   9.431   4.883   8.777  0.8063 -1.3660  0.6094
14839SOL     OW45094   2.448   1.381   4.811 -0.5262  0.3565 -0.4056
14839SOL    HW145095   2.441   1.289   4.784 -0.7661  0.4870 -0.7957
14839SOL    HW245096   2.459   1.377   4.906 -1.7309 -0.0300 -0.2700
14840SOL     OW45097   9.806   2.257   8.398  0.3266  0.5927  0.5441
14840SOL    HW145098   9.856   2.265   8.317 -2.0248 -2.5438 -1.4626
14840SOL    HW245099   9.725   2.307   8.381  0.0514  0.3889  1.2114
14841SOL     OW45100   5.759   6.489   9.511 -0.4873  0.0240  0.3455
14841SOL    HW145101   5.685   6.428   9.509 -0.7938  0.3915 -1.8755
14841SOL    HW245102   5.755   6.535   9.427  3.3318 -1.2230 -0.7097
14842SOL     OW45103   4.887   9.647   2.241 -0.1602 -0.0743 -0.3896
14842SOL    HW145104   4.831   9.722   2.261  1.8085  1.9167 -1.8323
14842SOL    HW245105   4.916   9.617   2.327 -0.1138  1.5835  0.2260
14843SOL     OW45106   7.206   5.203   5.698  0.3380  0.7007 -0.2707
14843SOL    HW145107   7.213   5.143   5.773 -1.3698  0.1315 -0.5231
14843SOL    HW245108   7.115   5.196   5.671  1.1334  0.0620 -3.0974
14844SOL     OW45109   5.047   8.600   2.617 -0.3228 -0.2723  0.5020
14844SOL    HW145110   4.957   8.574   2.634 -0.0920 -1.2695  0.2579
14844SOL    HW245111   5.054   8.688   2.654 -1.3823 -0.1953  0.5454
14845SOL     OW45112   9.309   4.782   0.223  0.8281  0.1775  0.9646
14845SOL    HW145113   9.341   4.692   0.223 -0.3993 -0.2801  0.5676
14845SOL    HW245114   9.222   4.776   0.183  0.9532  1.6213  0.4483
14846SOL     OW45115   0.155   1.241   5.487 -0.3440  0.0376  0.5907
14846SOL    HW145116   0.154   1.153   5.524 -1.8367  0.0163  0.5289
14846SOL    HW245117   0.177   1.298   5.561 -1.9063 -0.1473  1.2211
14847SOL     OW45118   4.023   8.296   0.499 -0.1391  0.3169  0.0022
14847SOL    HW145119   3.941   8.262   0.535  0.3460 -1.5388 -0.5472
14847SOL    HW245120   4.012   8.289   0.404  0.7669 -0.2645 -0.0689
14848SOL     OW45121   3.144   2.704   3.541  0.2413  0.6720 -0.1585
14848SOL    HW145122   3.195   2.692   3.621 -0.3665  0.1536  0.1581
14848SOL    HW245123   3.157   2.796   3.519  0.8007  0.7032  0.2655
14849SOL     OW45124   8.433   7.074   4.060  0.4433  0.0500 -0.0849
14849SOL    HW145125   8.405   7.160   4.091  0.1056  0.0198 -0.3024
14849SOL    HW245126   8.524   7.067   4.089  1.3944  1.6146 -2.3506
14850SOL     OW45127   7.865   0.870   1.448 -0.4117  0.1561  0.3537
14850SOL    HW145128   7.957   0.848   1.461 -0.3165 -0.1321 -0.7793
14850SOL    HW245129   7.841   0.919   1.527  0.4822 -0.4688  1.0295
14851SOL     OW45130   5.272   1.013   1.048 -0.2459  0.6696  0.2184
14851SOL    HW145131   5.240   0.961   0.975 -1.4491  1.3771  0.2073
14851SOL    HW245132   5.223   0.981   1.123 -0.4853  1.3106  0.3373
14852SOL     OW45133   9.336   7.432   5.322 -0.3578  0.2955 -0.2782
14852SOL    HW145134   9.367   7.487   5.250  1.2694 -1.2135 -0.7989
14852SOL    HW245135   9.413   7.415   5.375 -1.3252  0.4896  1.2588
14853SOL     OW45136   3.056   5.875   9.623  0.4932  0.3368  0.1849
14853SOL    HW145137   3.100   5.823   9.691  0.0471  0.7043  0.7670
14853SOL    HW245138   3.097   5.847   9.541  1.0343 -0.1242  0.6028
14854SOL     OW45139   5.675   7.308   3.718 -0.1166 -0.6408  0.8863
14854SOL    HW145140   5.634   7.222   3.727 -0.7422 -0.5024 -0.3486
14854SOL    HW245141   5.740   7.295   3.649 -0.3092 -0.0949  0.6012
14855SOL     OW45142   9.907   7.670   0.287 -0.0267  0.3232 -0.2015
14855SOL    HW145143   9.990   7.655   0.332 -0.1484  1.3437  0.3916
14855SOL    HW245144   9.841   7.633   0.345 -0.0345 -0.0770 -0.4587
14856SOL     OW45145   1.022   0.865   2.808 -0.0701 -0.4984  0.5872
14856SOL    HW145146   1.086   0.932   2.785  0.1673 -0.8518  0.1950
14856SOL    HW245147   1.013   0.812   2.728  1.3022 -2.1944  1.5133
14857SOL     OW45148   2.797   5.300   1.765 -0.3561  0.2575  0.0367
14857SOL    HW145149   2.874   5.265   1.810 -1.7175  0.1286  2.4206
14857SOL    HW245150   2.830   5.374   1.713  1.9937 -2.2118 -2.3138
14858SOL     OW45151   3.583   2.341   6.061 -0.1577 -0.1479 -0.2812
14858SOL    HW145152   3.492   2.335   6.090 -0.0421  0.6081  0.2661
14858SOL    HW245153   3.577   2.332   5.965 -0.8520  0.3032 -0.2934
14859SOL     OW45154   2.153   5.717   9.823  0.1510  0.4987 -0.8627
14859SOL    HW145155   2.180   5.716   9.915  0.0705 -0.0457 -0.8400
14859SOL    HW245156   2.073   5.770   9.822  0.9306  1.6985 -0.8531
14860SOL     OW45157   7.542   9.869   1.359 -0.4494 -0.4603  0.4412
14860SOL    HW145158   7.524   9.922   1.437 -1.3848 -0.6252  0.3506
14860SOL    HW245159   7.624   9.905   1.324  0.8119 -1.3566  2.3210
14861SOL     OW45160   4.126   2.704   9.384  0.2281 -0.3563 -0.1924
14861SOL    HW145161   4.184   2.647   9.436 -0.4706  0.8494  2.0214
14861SOL    HW245162   4.185   2.747   9.322  1.3974 -0.6033  0.7068
14862SOL     OW45163   5.809   5.883   4.683  0.0430 -0.5100 -0.4851
14862SOL    HW145164   5.815   5.794   4.647 -1.9411 -0.5318 -0.8922
14862SOL    HW245165   5.729   5.882   4.735  0.2014  0.9525 -0.1772
14863SOL     OW45166   8.606   6.047   2.265  0.8024 -0.1981 -0.7114
14863SOL    HW145167   8.559   5.964   2.255  0.4640 -0.0890 -0.0269
14863SOL    HW245168   8.698   6.024   2.250  0.6461 -0.5852 -1.0992
14864SOL     OW45169   1.697   6.694   2.115 -0.2162 -0.0199 -0.1504
14864SOL    HW145170   1.771   6.731   2.163 -1.2612  0.7573  0.9254
14864SOL    HW245171   1.735   6.626   2.060  1.8269  2.6469 -2.3030
14865SOL     OW45172   9.349   3.826   5.525 -0.2989  0.1458  0.0870
14865SOL    HW145173   9.345   3.883   5.603 -1.7411 -0.4898  0.5053
14865SOL    HW245174   9.433   3.848   5.484  0.1214  1.0780  1.3760
14866SOL     OW45175   3.099   3.574   5.784  0.4611 -0.5496  0.5061
14866SOL    HW145176   3.172   3.580   5.846  1.7328  1.7743 -1.0852
14866SOL    HW245177   3.051   3.656   5.795 -0.5186 -1.0060 -0.1892
14867SOL     OW45178   1.797   4.225   9.078 -0.3959  0.0783  0.1834
14867SOL    HW145179   1.754   4.263   9.155  0.1016 -0.1764  0.5928
14867SOL    HW245180   1.739   4.155   9.049 -0.2987 -0.2147  0.6868
14868SOL     OW45181   3.445   6.418   0.214 -0.5696 -0.2494  0.0516
14868SOL    HW145182   3.438   6.430   0.309 -0.3164  0.6723 -0.0392
14868SOL    HW245183   3.442   6.506   0.178 -1.2992 -0.6212 -0.8488
14869SOL     OW45184   2.053   7.750   7.058 -0.2519 -0.0796 -0.2510
14869SOL    HW145185   2.071   7.660   7.085  0.2981  0.0202 -0.2636
14869SOL    HW245186   2.030   7.795   7.140 -2.7705 -0.7153 -0.5158
14870SOL     OW45187   0.568   5.021   3.751  0.7299 -0.4619 -0.7164
14870SOL    HW145188   0.553   5.017   3.656 -0.9710  0.6013 -0.5386
14870SOL    HW245189   0.527   5.103   3.778  1.3118 -0.6794  0.9433
14871SOL     OW45190   2.775   1.600   6.223  0.0342 -0.3897 -0.0313
14871SOL    HW145191   2.821   1.684   6.226  2.1582 -1.5288  1.6620
14871SOL    HW245192   2.793   1.560   6.308 -2.8009 -1.6471  0.0855
14872SOL     OW45193   7.027   8.855   1.122 -0.5310 -0.2486  0.4364
14872SOL    HW145194   6.988   8.788   1.065 -0.1514 -0.2961  0.2311
14872SOL    HW245195   7.118   8.828   1.132 -0.7338 -0.5803  1.5612
14873SOL     OW45196   3.119   5.934   2.743 -0.5671  0.1849  0.3270
14873SOL    HW145197   3.164   5.864   2.792 -1.8895 -1.6073 -0.9097
14873SOL    HW245198   3.134   5.912   2.651  1.8119  3.4532 -0.2582
14874SOL     OW45199   1.890   6.552   7.110  0.3350 -0.1144  0.0575
14874SOL    HW145200   1.898   6.567   7.015  0.6578  1.0319  0.2510
14874SOL    HW245201   1.921   6.462   7.122 -1.4313 -0.9354 -1.1402
14875SOL     OW45202   8.199   1.711   4.201  0.3651  0.1832 -0.0271
14875SOL    HW145203   8.185   1.776   4.133 -2.1866  0.1818  0.3711
14875SOL    HW245204   8.230   1.761   4.277  0.6670  0.5674 -0.4023
14876SOL     OW45205   6.337   0.005   8.446  0.3079 -0.4488  0.4719
14876SOL    HW145206   6.353   0.099   8.445  2.3640 -0.7314  0.6328
14876SOL    HW245207   6.303  -0.015   8.359  1.5058  0.2368 -0.1767
14877SOL     OW45208   2.188   9.713   0.431  0.0824  0.6821 -0.1988
14877SOL    HW145209   2.261   9.670   0.384 -0.3878  0.8967 -1.1558
14877SOL    HW245210   2.191   9.676   0.519 -1.2911 -2.6036 -1.3851
14878SOL     OW45211   6.374   5.416   8.250 -0.2464 -0.1104 -0.2568
14878SOL    HW145212   6.359   5.480   8.319 -0.7835 -2.0535  1.5208
14878SOL    HW245213   6.288   5.379   8.232  0.2398 -1.2919 -0.2586
14879SOL     OW45214   0.484   9.051   0.927 -0.3063  1.1387 -0.0996
14879SOL    HW145215   0.513   9.072   1.016  0.2780  2.1376 -0.5160
14879SOL    HW245216   0.562   9.062   0.873 -1.0982  2.4427 -1.0304
14880SOL     OW45217   5.582   1.244   1.097  0.2278 -0.3240 -0.2137
14880SOL    HW145218   5.579   1.226   1.191 -2.5225  1.8233  0.2500
14880SOL    HW245219   5.515   1.186   1.060  0.1525 -0.0051 -0.5825
14881SOL     OW45220   9.111   3.632   7.551 -0.2179 -0.3220  0.1176
14881SOL    HW145221   9.050   3.629   7.625 -0.0366  2.9262  0.5398
14881SOL    HW245222   9.067   3.584   7.482 -2.1597 -0.1352  1.1549
14882SOL     OW45223   1.193   6.304   8.327  0.5605  0.1280  0.3112
14882SOL    HW145224   1.198   6.392   8.365  1.3101  0.0733  0.3460
14882SOL    HW245225   1.146   6.252   8.392  1.3913  0.1585  0.9539
14883SOL     OW45226   5.015   2.410   0.595  0.0125 -0.4007  0.3163
14883SOL    HW145227   4.951   2.362   0.542  0.0633  0.2674 -0.3839
14883SOL    HW245228   4.978   2.410   0.683 -0.4996 -0.8243  0.1108
14884SOL     OW45229   3.084   2.670   7.994 -0.0264 -0.0343 -0.5759
14884SOL    HW145230   3.110   2.655   7.903  0.6908 -0.6626 -0.2814
14884SOL    HW245231   3.023   2.744   7.990 -0.9121 -0.7828 -1.6956
14885SOL     OW45232   7.423   8.270   9.939 -0.3724 -0.7492 -1.0707
14885SOL    HW145233   7.485   8.205   9.971 -0.6814 -0.3371  0.3989
14885SOL    HW245234   7.360   8.218   9.888  1.3578 -1.1208 -2.9999
14886SOL     OW45235   6.781   5.182   8.582 -0.1985 -0.7223  0.1659
14886SOL    HW145236   6.779   5.144   8.670 -0.0347  1.9565  1.4433
14886SOL    HW245237   6.855   5.243   8.584 -1.5693  1.0835 -1.0442
14887SOL     OW45238   8.412   4.495   1.977  0.4491 -0.5542 -0.3529
14887SOL    HW145239   8.471   4.478   2.050  0.4926  0.4770 -0.1224
14887SOL    HW245240   8.326   4.469   2.009  0.1940  1.4149  0.7136
14888SOL     OW45241   7.911   3.112   9.470  0.1487  0.3553 -0.3641
14888SOL    HW145242   7.961   3.145   9.395  1.4479  0.5613  0.5623
14888SOL    HW245243   7.977   3.084   9.532 -0.8538  1.8249  1.4567
14889SOL     OW45244   1.501   9.327   3.072 -0.6542  0.1786 -0.7892
14889SOL    HW145245   1.565   9.284   3.130 -2.3463 -0.1301  0.9583
14889SOL    HW245246   1.536   9.314   2.984  1.2763 -0.6569  0.0428
14890SOL     OW45247   7.454   5.154   0.635  0.5350  0.2248 -0.6169
14890SOL    HW145248   7.481   5.216   0.702 -1.2992 -1.3090  1.7066
14890SOL    HW245249   7.359   5.166   0.628 -0.0558 -2.7989  0.6052
14891SOL     OW45250   2.290   0.533   5.142 -0.0546  0.0648 -0.1048
14891SOL    HW145251   2.374   0.499   5.173  1.2751  2.7909 -0.4303
14891SOL    HW245252   2.240   0.553   5.221  1.5314  2.7670  0.3207
14892SOL     OW45253   1.746   9.733   9.484 -0.7410 -0.4881  0.1553
14892SOL    HW145254   1.789   9.813   9.453 -1.1638 -0.4367 -0.3065
14892SOL    HW245255   1.701   9.759   9.564 -1.6466 -0.0310 -0.4853
14893SOL     OW45256   0.496   9.165   7.388 -0.0175  0.0211 -0.4057
14893SOL    HW145257   0.426   9.120   7.341 -0.5157  0.3424  0.0324
14893SOL    HW245258   0.478   9.258   7.375 -0.9757  0.1644  1.5730
14894SOL     OW45259   1.686   3.393   0.735  0.2298 -0.3917 -0.5343
14894SOL    HW145260   1.669   3.379   0.642  0.4538  2.5171 -1.1031
14894SOL    HW245261   1.625   3.461   0.761  0.7215 -0.5787  1.2834
14895SOL     OW45262   2.393   8.969   5.301 -0.0992  0.2550 -0.1053
14895SOL    HW145263   2.370   8.878   5.323  0.4021  0.2220  0.2909
14895SOL    HW245264   2.308   9.012   5.288 -0.3480 -0.9064 -3.0115
14896SOL     OW45265   4.965   6.409   5.574  0.3010  0.0229  0.1469
14896SOL    HW145266   4.877   6.377   5.556  0.8927 -1.0468 -1.0025
14896SOL    HW245267   4.961   6.439   5.665 -2.1174  3.2017 -0.8439
14897SOL     OW45268   8.266   3.009   5.427 -0.3722 -0.2207  0.5460
14897SOL    HW145269   8.209   3.085   5.414  0.7838  0.5654 -0.0901
14897SOL    HW245270   8.347   3.046   5.462  0.3232 -1.1065 -0.0845
14898SOL     OW45271   0.046   7.790   6.980  0.2555  0.0487 -0.0161
14898SOL    HW145272   0.053   7.702   6.945  2.2630  0.1341  0.0656
14898SOL    HW245273   0.068   7.781   7.073 -1.7710  0.3264  0.5365
14899SOL     OW45274   3.929   7.134   9.592 -0.2994 -0.2529  0.1080
14899SOL    HW145275   3.988   7.060   9.574 -2.1859 -2.0088  0.7225
14899SOL    HW245276   3.842   7.100   9.571 -1.2456  1.8159  0.4721
14900SOL     OW45277   8.896   8.302   3.091  0.5600  0.2040 -0.2333
14900SOL    HW145278   8.872   8.383   3.138 -1.5185  0.0535 -0.9198
14900SOL    HW245279   8.863   8.232   3.147 -0.2112 -0.0459 -0.9961
14901SOL     OW45280   0.681   7.508   3.025 -0.0510  0.4660 -0.2227
14901SOL    HW145281   0.759   7.455   3.046 -0.8779 -0.4975  0.5628
14901SOL    HW245282   0.609   7.460   3.065 -1.5382 -0.3999 -3.6074
14902SOL     OW45283   7.211   0.144   4.744 -0.6017 -0.2283  0.1256
14902SOL    HW145284   7.265   0.204   4.692  0.1534  0.3022  1.4629
14902SOL    HW245285   7.237   0.161   4.835 -0.7140 -2.2447  0.5875
14903SOL     OW45286   3.200   2.391   8.557 -0.0433  0.6097  0.0903
14903SOL    HW145287   3.110   2.391   8.524 -0.8085  0.4086  2.0541
14903SOL    HW245288   3.242   2.318   8.511 -0.8737  0.6801 -0.8240
14904SOL     OW45289   1.004   2.623   0.748 -0.1625 -0.5856 -0.0801
14904SOL    HW145290   1.056   2.561   0.799  0.3578  0.5896  0.8658
14904SOL    HW245291   1.016   2.596   0.657  1.3448 -0.9160  0.1909
14905SOL     OW45292   3.444   4.082   9.708  1.0711 -0.0163  0.2856
14905SOL    HW145293   3.454   4.082   9.612 -1.2987  0.6273 -0.0496
14905SOL    HW245294   3.462   4.172   9.734 -0.2764  0.3203  0.1279
14906SOL     OW45295   0.184   4.950   8.776 -0.2314  0.0176 -0.3792
14906SOL    HW145296   0.272   4.978   8.752  0.0297 -0.0585  0.4578
14906SOL    HW245297   0.160   4.885   8.710  0.4809 -0.2151 -0.4142
14907SOL     OW45298   7.219   5.989   3.481 -0.1325  0.2105 -0.3563
14907SOL    HW145299   7.189   6.025   3.564  1.5880  0.9415 -0.0144
14907SOL    HW245300   7.246   5.899   3.501 -0.0244  0.2794 -0.1953
14908SOL     OW45301   0.849   1.957   5.804 -0.1134  0.5387 -0.1153
14908SOL    HW145302   0.935   1.989   5.831  0.1291  0.9344 -1.3401
14908SOL    HW245303   0.800   2.035   5.781 -1.1249  0.3956  1.3855
14909SOL     OW45304   6.175   6.488   2.161 -0.2065  0.1119 -0.3253
14909SOL    HW145305   6.156   6.579   2.184  2.2793  1.3045 -2.3932
14909SOL    HW245306   6.124   6.436   2.223 -3.7325  2.8312 -0.6117
14910SOL     OW45307   0.645   3.535   1.662  0.0912  0.5863  0.0310
14910SOL    HW145308   0.703   3.607   1.685  0.5709  0.4489 -0.7036
14910SOL    HW245309   0.648   3.532   1.566 -1.2628  0.6859 -0.0313
14911SOL     OW45310   6.997   4.279   6.355 -0.2738 -0.2007  0.2578
14911SOL    HW145311   7.062   4.213   6.383 -0.0782 -0.4483 -0.7470
14911SOL    HW245312   6.916   4.252   6.397 -0.0819 -0.8121  0.2440
14912SOL     OW45313   8.727   5.526   3.283  0.2411  0.4052  1.0009
14912SOL    HW145314   8.770   5.469   3.348  0.1159  0.5601  1.2209
14912SOL    HW245315   8.800   5.566   3.235  0.3360 -0.9503 -0.0596
14913SOL     OW45316   9.857   0.348   6.723 -0.5578  0.3085 -0.1509
14913SOL    HW145317   9.952   0.355   6.726 -0.5886  0.4414  0.6174
14913SOL    HW245318   9.832   0.322   6.812 -1.1605 -0.6818 -0.5913
14914SOL     OW45319   0.162   1.527   0.319 -0.0486  0.6222  0.0730
14914SOL    HW145320   0.120   1.613   0.321 -0.9310  0.1939  1.5855
14914SOL    HW245321   0.206   1.520   0.404 -2.3036 -1.4843  1.1909
14915SOL     OW45322   2.931   7.574   5.711  0.1055 -0.0642 -0.6820
14915SOL    HW145323   2.856   7.543   5.661  1.0553 -1.9807 -1.0038
14915SOL    HW245324   2.966   7.647   5.659  0.5173 -1.4106 -2.3753
14916SOL     OW45325   8.647   7.995   7.143 -0.1936 -0.3908 -0.4669
14916SOL    HW145326   8.614   8.066   7.087 -0.3990 -0.8017 -0.8792
14916SOL    HW245327   8.742   7.997   7.131 -0.2535 -0.6181 -1.0134
14917SOL     OW45328   7.213   3.982   7.368 -0.6639  0.3092  0.4700
14917SOL    HW145329   7.127   4.026   7.371 -1.2474 -0.7160 -0.4811
14917SOL    HW245330   7.192   3.890   7.354  0.6061  0.0661  0.0832
14918SOL     OW45331   9.122   6.427   4.646  0.1304  0.0244 -0.6090
14918SOL    HW145332   9.093   6.394   4.561  1.6145 -2.3250 -0.2957
14918SOL    HW245333   9.106   6.355   4.707  0.1620  1.2379  0.9061
14919SOL     OW45334   9.075   4.409   0.528  0.5400 -0.1578  0.0426
14919SOL    HW145335   9.066   4.351   0.604  1.8956  0.4010  0.6707
14919SOL    HW245336   9.000   4.467   0.532  0.0575 -0.7904  0.3674
14920SOL     OW45337   5.570   3.543   0.800 -0.0959  0.1785 -0.0892
14920SOL    HW145338   5.479   3.543   0.768 -0.6121 -1.8794  1.1463
14920SOL    HW245339   5.566   3.593   0.882 -1.1381 -3.2054  2.1503
14921SOL     OW45340   6.077   0.798   7.910  0.2123 -0.3214  0.0682
14921SOL    HW145341   6.064   0.785   7.816  1.5334  0.2278 -0.2069
14921SOL    HW245342   6.100   0.711   7.943  1.4989 -0.1850 -0.4365
14922SOL     OW45343   6.295   2.481   7.036 -0.2845  0.2422  0.3019
14922SOL    HW145344   6.242   2.508   7.111  0.6826  0.3832  0.9504
14922SOL    HW245345   6.255   2.526   6.961 -2.1776 -1.0627  0.4550
14923SOL     OW45346   7.550   4.478   7.225 -0.8770 -0.5466  0.2416
14923SOL    HW145347   7.479   4.496   7.286 -0.0067 -2.3632  1.8927
14923SOL    HW245348   7.519   4.405   7.172 -0.5617 -0.8078  0.4141
14924SOL     OW45349   1.146   2.550   7.510 -0.3010  0.0546  0.3600
14924SOL    HW145350   1.120   2.486   7.444  0.1967 -0.1338  0.3468
14924SOL    HW245351   1.086   2.624   7.497  0.7984  0.6842 -1.3497
14925SOL     OW45352   1.681   2.567   4.260 -0.0592 -0.8753 -0.3888
14925SOL    HW145353   1.771   2.541   4.242 -0.1994 -1.2278 -0.5879
14925SOL    HW245354   1.644   2.584   4.173  0.2320  0.6872 -0.2388
14926SOL     OW45355   2.800   3.688   8.627 -0.2574  0.1186  0.3971
14926SOL    HW145356   2.771   3.778   8.612 -0.7596 -0.3528 -1.7824
14926SOL    HW245357   2.727   3.634   8.597  0.6726 -1.0302  0.1425
14927SOL     OW45358   7.682   2.783   4.634  0.4888 -0.0475 -0.0362
14927SOL    HW145359   7.650   2.836   4.560 -1.7559 -1.0602  0.1180
14927SOL    HW245360   7.675   2.693   4.602  0.3539 -0.4477  1.1067
14928SOL     OW45361   5.534   1.176   1.409 -0.4371  0.1478 -0.2685
14928SOL    HW145362   5.511   1.266   1.431 -1.6496  0.4610 -2.4517
14928SOL    HW245363   5.624   1.166   1.437 -0.6516  1.6413  1.0931
14929SOL     OW45364   9.835   3.823   6.399  0.1107 -0.1025 -0.0404
14929SOL    HW145365   9.739   3.820   6.401  0.0117  1.6851 -0.0954
14929SOL    HW245366   9.861   3.815   6.491 -0.0709 -0.9971 -0.0659
14930SOL     OW45367   5.542   9.546   9.258 -0.0871  0.5405  0.2605
14930SOL    HW145368   5.504   9.601   9.189  1.5459  1.9584  0.4417
14930SOL    HW245369   5.506   9.582   9.339  0.9175  1.3373  0.3730
14931SOL     OW45370   5.978   7.181   4.416  0.4428 -0.3867  0.2820
14931SOL    HW145371   5.942   7.198   4.329 -1.0495 -0.4615  0.8676
14931SOL    HW245372   5.919   7.226   4.476  1.3917 -0.4279  1.2758
14932SOL     OW45373   8.497   4.452   0.772  0.0794  0.2876 -0.3543
14932SOL    HW145374   8.482   4.373   0.823  0.5263  0.3723 -0.0793
14932SOL    HW245375   8.427   4.454   0.707 -0.7159  0.3729  0.4872
14933SOL     OW45376   0.851   3.368   1.900 -0.1267  0.2110 -0.3775
14933SOL    HW145377   0.817   3.321   1.824 -0.6821 -0.0881  0.0484
14933SOL    HW245378   0.876   3.454   1.866 -0.3642  0.0776 -0.8984
14934SOL     OW45379   4.203   3.185   7.884  0.0320  0.4176 -0.2456
14934SOL    HW145380   4.137   3.202   7.951 -0.8506 -0.7812 -0.7864
14934SOL    HW245381   4.232   3.096   7.901  0.2258  0.3104 -1.1070
14935SOL     OW45382   1.071   3.513   3.101  0.3907  0.0291 -0.6170
14935SOL    HW145383   1.064   3.418   3.091 -2.3430  0.0390  0.3124
14935SOL    HW245384   1.075   3.546   3.011 -2.1967 -0.8596 -1.1524
14936SOL     OW45385   7.831   8.855   5.961  0.0369  0.0543  0.2808
14936SOL    HW145386   7.775   8.788   6.001  0.0140  0.4777  0.9805
14936SOL    HW245387   7.882   8.808   5.895 -1.3916 -0.2663 -0.6154
14937SOL     OW45388   3.439   8.491   6.691  0.2142  0.5123  0.1239
14937SOL    HW145389   3.407   8.418   6.745 -1.2656  1.6991  0.9452
14937SOL    HW245390   3.534   8.487   6.700  0.1115 -0.6979  0.9883
14938SOL     OW45391  -0.031   1.151   6.610  0.5739 -0.2632 -0.0496
14938SOL    HW145392  -0.011   1.103   6.529  1.5986 -1.3412  0.8089
14938SOL    HW245393   0.053   1.189   6.636  0.2483  0.0678  0.5238
14939SOL     OW45394   5.092   1.676   2.341  0.1171 -0.1817  0.2181
14939SOL    HW145395   5.045   1.593   2.340  0.1065 -0.1825 -1.0779
14939SOL    HW245396   5.168   1.661   2.397  0.1996 -1.1138 -0.1388
14940SOL     OW45397   3.165   3.299   6.926  0.8401  0.0271  0.0424
14940SOL    HW145398   3.248   3.324   6.966 -0.0061  1.1729  1.1612
14940SOL    HW245399   3.160   3.351   6.846 -0.3831  2.7531  1.7787
14941SOL     OW45400   7.826   8.329   2.151  0.2451  0.0136  0.0792
14941SOL    HW145401   7.779   8.413   2.144  2.3719  1.2370 -0.5240
14941SOL    HW245402   7.892   8.344   2.219 -0.1478 -1.6243  0.8614
14942SOL     OW45403   9.372   1.504   9.924  0.1959  0.4592  0.1919
14942SOL    HW145404   9.372   1.549  10.008 -1.7897 -0.9609  1.0388
14942SOL    HW245405   9.437   1.434   9.934 -1.5007 -1.0325  1.3990
14943SOL     OW45406   2.644   1.870   7.222 -0.2309 -0.1754 -0.2550
14943SOL    HW145407   2.626   1.934   7.153 -0.9111 -0.7433 -0.6220
14943SOL    HW245408   2.694   1.918   7.287  0.4060  0.3804 -1.1345
14944SOL     OW45409   8.855   2.721   1.762  0.7672 -0.4994 -0.9866
14944SOL    HW145410   8.923   2.770   1.717 -2.3610  2.6223 -2.8515
14944SOL    HW245411   8.803   2.681   1.692 -0.7687 -0.5889  0.1327
14945SOL     OW45412   2.504   8.498   0.490 -0.1780 -0.2299  0.4637
14945SOL    HW145413   2.458   8.582   0.489  0.1114 -0.0203 -1.9317
14945SOL    HW245414   2.456   8.444   0.428  0.1427 -1.5806  1.3528
14946SOL     OW45415   3.482   4.127   2.111  0.2860 -0.2951 -0.2168
14946SOL    HW145416   3.443   4.191   2.171  0.6472 -1.3685  1.1991
14946SOL    HW245417   3.420   4.123   2.037 -0.7723  0.1884  0.6181
14947SOL     OW45418   3.609   5.021   9.675  0.2550 -0.5566  0.1857
14947SOL    HW145419   3.549   5.083   9.632  2.1149  1.8242  0.8280
14947SOL    HW245420   3.674   5.001   9.607 -0.6533 -2.3794 -0.2074
14948SOL     OW45421   8.858   4.384   5.102 -0.2972  0.4943  0.6419
14948SOL    HW145422   8.860   4.471   5.142 -3.0551  1.2381 -0.5987
14948SOL    HW245423   8.846   4.401   5.009  1.3374 -1.2452  0.0556
14949SOL     OW45424   1.036   4.732   7.619 -0.2573  0.1973  0.1719
14949SOL    HW145425   1.038   4.828   7.623 -0.8246  0.5831 -4.0805
14949SOL    HW245426   0.944   4.710   7.632 -0.3200  0.3547  0.0100
14950SOL     OW45427   1.052   5.021   7.311  0.0138  0.4703  0.1608
14950SOL    HW145428   0.974   5.042   7.258  0.4824  2.5774  0.2462
14950SOL    HW245429   1.016   4.998   7.397 -0.5408  1.4946  0.2241
14951SOL     OW45430   8.420   1.796   1.221 -0.6137  0.1839  0.4464
14951SOL    HW145431   8.415   1.735   1.147  1.6359  0.9101 -0.3694
14951SOL    HW245432   8.510   1.828   1.220 -0.8790  1.1852  2.7582
14952SOL     OW45433   1.689   5.271   1.769  0.5749 -0.1740 -0.1033
14952SOL    HW145434   1.596   5.290   1.754  0.6145 -1.5888 -2.7507
14952SOL    HW245435   1.707   5.307   1.856 -2.3125  0.5632  0.2982
14953SOL     OW45436   1.178   4.465   2.701 -0.2207 -0.1110 -0.1054
14953SOL    HW145437   1.247   4.460   2.766 -0.5974 -4.2654  0.2635
14953SOL    HW245438   1.100   4.494   2.749  0.3246  0.5047  0.4096
14954SOL     OW45439   3.308   8.912   7.971 -0.4908 -0.0491  0.2508
14954SOL    HW145440   3.223   8.953   7.959  0.0110  1.5862  1.8280
14954SOL    HW245441   3.289   8.818   7.976 -2.2626  0.3090  0.9870
14955SOL     OW45442   7.076   7.644   0.669  0.5109  0.6504 -0.1660
14955SOL    HW145443   7.122   7.668   0.750  0.6466 -0.9416  0.2541
14955SOL    HW245444   7.099   7.552   0.655 -0.5563  0.5410 -1.3201
14956SOL     OW45445   9.134   6.741   9.779 -0.1668  0.0982  0.0074
14956SOL    HW145446   9.090   6.674   9.727  1.4871 -0.9867 -0.0610
14956SOL    HW245447   9.084   6.821   9.762 -1.0543 -0.7055 -1.3992
14957SOL     OW45448   3.226   8.039   6.785  0.2149  0.0527 -0.3997
14957SOL    HW145449   3.248   8.127   6.815 -1.1169  0.4528 -0.5379
14957SOL    HW245450   3.172   8.003   6.856  2.3800 -1.4394  0.5925
14958SOL     OW45451   3.851   9.605   5.332 -0.0027  0.3653 -0.1706
14958SOL    HW145452   3.936   9.606   5.288  0.4338 -4.5417  0.0655
14958SOL    HW245453   3.872   9.613   5.425  0.1462 -0.1382 -0.1596
14959SOL     OW45454   6.194   7.242   3.686  0.5262 -0.6505  0.5663
14959SOL    HW145455   6.209   7.169   3.625 -0.6595 -0.4712  0.0332
14959SOL    HW245456   6.110   7.222   3.727  0.9929 -0.4243  1.6667
14960SOL     OW45457   1.689   8.081   5.728  0.5450  0.0048 -0.3834
14960SOL    HW145458   1.664   8.090   5.636  0.4835  0.4925 -0.3237
14960SOL    HW245459   1.620   8.128   5.776  1.3269  0.9808 -0.1888
14961SOL     OW45460   2.877   9.853   6.205 -0.4074  0.1761 -0.0375
14961SOL    HW145461   2.865   9.923   6.269 -0.6525  0.5268 -0.4612
14961SOL    HW245462   2.795   9.851   6.156  0.0225  0.3617 -0.7813
14962SOL     OW45463   9.325   4.183   2.736 -0.5180  0.1138  0.1452
14962SOL    HW145464   9.342   4.093   2.763  0.7186 -0.1363 -1.2944
14962SOL    HW245465   9.278   4.174   2.652 -1.5993  0.8277  0.6547
14963SOL     OW45466   5.974   9.161   5.131  0.1714  0.6203  0.8511
14963SOL    HW145467   5.893   9.169   5.081 -0.7224  0.4438  2.2269
14963SOL    HW245468   6.025   9.238   5.106 -0.3701  0.6914 -0.0924
14964SOL     OW45469   6.594   3.916   9.542 -0.6730  0.2669  0.5218
14964SOL    HW145470   6.519   3.856   9.552 -1.2892  0.1771 -3.2492
14964SOL    HW245471   6.554   4.000   9.520  0.3385  0.8355  0.7957
14965SOL     OW45472   6.725   9.956   1.672  1.0265  0.0979 -0.3577
14965SOL    HW145473   6.773   9.876   1.649 -1.2240 -1.4901  0.0980
14965SOL    HW245474   6.707   9.946   1.766 -0.3981  0.4990 -0.5741
14966SOL     OW45475   0.833   3.501   2.429  0.4255 -0.1904 -0.0913
14966SOL    HW145476   0.825   3.596   2.414 -0.2729 -0.3464 -0.7543
14966SOL    HW245477   0.822   3.462   2.343 -1.0351 -0.9713  0.4154
14967SOL     OW45478   1.704   4.613   2.551 -0.2288 -0.3983  0.4786
14967SOL    HW145479   1.675   4.573   2.469  2.6380 -1.4616 -0.1068
14967SOL    HW245480   1.669   4.557   2.620 -0.4825 -0.9901 -0.1293
14968SOL     OW45481   3.054   4.471   4.520  0.1887 -0.0050  0.0314
14968SOL    HW145482   3.066   4.407   4.449 -0.2438  1.0232 -0.9970
14968SOL    HW245483   3.140   4.479   4.560  0.7391  0.2746 -1.1551
14969SOL     OW45484   8.205   4.595   7.189  0.4326  0.0472  0.0892
14969SOL    HW145485   8.176   4.676   7.230  0.1617  0.5087 -0.9852
14969SOL    HW245486   8.127   4.560   7.146  0.2863 -1.3375  1.3821
14970SOL     OW45487   2.679   2.955   7.519  0.4624  0.4132  0.2098
14970SOL    HW145488   2.655   2.910   7.600 -0.7212 -0.5091 -0.6103
14970SOL    HW245489   2.617   3.026   7.511  1.1497  1.0621  0.5550
14971SOL     OW45490   6.549   5.110   7.736 -0.0006  0.1409  0.0758
14971SOL    HW145491   6.499   5.028   7.732  1.1645 -0.7283  2.0338
14971SOL    HW245492   6.638   5.083   7.759  0.6534  1.9085 -0.2157
14972SOL     OW45493   3.924   3.339   0.298 -0.2205  0.1735  0.2695
14972SOL    HW145494   3.954   3.359   0.387  0.8132  3.0694 -0.5951
14972SOL    HW245495   3.855   3.404   0.282 -0.8071 -0.7081 -0.8525
14973SOL     OW45496   1.350   4.530   9.068 -0.3465 -0.2127  0.3809
14973SOL    HW145497   1.278   4.485   9.113 -0.8432  0.4906  0.3137
14973SOL    HW245498   1.342   4.503   8.977 -1.7910  1.3864 -0.0261
14974SOL     OW45499   7.633   8.522   0.839 -0.1834  0.5842  0.3514
14974SOL    HW145500   7.653   8.521   0.932  0.0535 -0.7977  0.3155
14974SOL    HW245501   7.647   8.432   0.810  0.6433  1.1740 -1.2244
14975SOL     OW45502   5.952   4.525   4.844  0.5681  0.0063 -0.1609
14975SOL    HW145503   5.942   4.572   4.761 -0.6552 -0.8965 -0.5485
14975SOL    HW245504   6.033   4.559   4.881  0.6944  1.0337 -1.3297
14976SOL     OW45505   2.177   3.422   5.933 -0.2293 -0.0119 -0.3590
14976SOL    HW145506   2.230   3.498   5.907 -1.0926  0.7545  0.0645
14976SOL    HW245507   2.231   3.375   5.996  0.3226  0.2378 -0.6384
14977SOL     OW45508   6.115   9.106   1.427 -0.5347  0.2006  0.0839
14977SOL    HW145509   6.146   9.037   1.368 -0.5548  0.9806 -0.8526
14977SOL    HW245510   6.020   9.104   1.420 -0.4949  1.0725 -0.8257
14978SOL     OW45511   2.561   0.591   5.379 -0.2028  0.2727 -0.4189
14978SOL    HW145512   2.521   0.615   5.462 -1.2781  1.2028 -1.1618
14978SOL    HW245513   2.655   0.589   5.397 -0.3686  1.1568  0.6493
14979SOL     OW45514   2.282   4.370   2.042 -0.0046 -0.0325  0.2039
14979SOL    HW145515   2.311   4.321   2.119 -1.7682 -0.8140  0.4275
14979SOL    HW245516   2.225   4.309   1.995  0.3429  0.7284 -1.2756
14980SOL     OW45517   6.950   7.794   1.332 -0.4521  0.1802 -0.0604
14980SOL    HW145518   6.911   7.714   1.296 -0.1111  0.0641 -0.1783
14980SOL    HW245519   7.045   7.780   1.323 -0.3061 -0.2457  1.6967
14981SOL     OW45520   1.398   6.907   2.104  0.3670 -0.5509 -0.6387
14981SOL    HW145521   1.358   6.984   2.145  1.2070 -1.1303  1.4276
14981SOL    HW245522   1.487   6.904   2.140  1.6257 -0.4608 -3.5097
14982SOL     OW45523   8.320   0.749   7.926 -0.5371 -0.0897  0.0970
14982SOL    HW145524   8.333   0.801   7.846  2.7897 -1.7404 -0.5956
14982SOL    HW245525   8.267   0.675   7.897 -1.9374  0.8222  0.2024
14983SOL     OW45526   2.827   9.763   7.354 -0.7974 -0.2357  0.0515
14983SOL    HW145527   2.778   9.814   7.419  0.7847 -0.3754  1.4241
14983SOL    HW245528   2.914   9.754   7.392  0.0271 -0.7831 -1.8923
14984SOL     OW45529   5.204   5.825   3.477 -0.1809  0.4888  0.1935
14984SOL    HW145530   5.168   5.783   3.555 -0.8370  1.3906  0.3871
14984SOL    HW245531   5.132   5.875   3.441  0.5548  1.3810 -0.0808
14985SOL     OW45532   2.924   4.577   1.169  0.1144  0.8178  0.2402
14985SOL    HW145533   2.980   4.625   1.109  0.5835  0.2481  0.2161
14985SOL    HW245534   2.959   4.598   1.256  1.5801 -0.9908  0.1517
14986SOL     OW45535   6.788   0.297   8.031  0.6015 -0.4848 -0.4172
14986SOL    HW145536   6.774   0.351   7.954  1.4208 -0.2761 -0.4320
14986SOL    HW245537   6.868   0.332   8.071  0.3021 -0.7242  0.4076
14987SOL     OW45538   9.787   6.022   1.542 -0.7434 -0.1220 -0.0301
14987SOL    HW145539   9.863   6.073   1.514  0.6717 -1.0933  1.8171
14987SOL    HW245540   9.713   6.080   1.529  0.7867  2.5095  2.0798
14988SOL     OW45541   9.810   0.684   3.681  0.1617  0.2085 -0.5411
14988SOL    HW145542   9.744   0.715   3.742  1.0398  0.2360  0.4337
14988SOL    HW245543   9.859   0.763   3.656 -0.0198  0.1578 -1.0825
14989SOL     OW45544   9.210   2.104   2.934  0.1418  0.5071 -0.1380
14989SOL    HW145545   9.285   2.074   2.985  1.1027  3.9921  0.7907
14989SOL    HW245546   9.246   2.169   2.874 -1.8979  1.0577 -0.8590
14990SOL     OW45547   9.389   3.256   6.101 -0.1898 -0.8741  0.1183
14990SOL    HW145548   9.321   3.191   6.086  0.6202 -1.2372 -2.4437
14990SOL    HW245549   9.467   3.205   6.122 -0.1861 -0.5683  0.8854
14991SOL     OW45550   4.263   9.563   5.101  0.3756 -0.7627  0.4966
14991SOL    HW145551   4.241   9.525   5.016  0.4546  0.5974 -0.1685
14991SOL    HW245552   4.189   9.542   5.157  0.0494 -1.1748 -0.0754
14992SOL     OW45553   7.506   4.137   4.627  0.5742  0.0215  0.1223
14992SOL    HW145554   7.507   4.153   4.532 -3.4010 -2.4754 -0.5735
14992SOL    HW245555   7.444   4.202   4.661 -1.6315 -1.9422  0.1138
14993SOL     OW45556   0.494   5.903   6.756  0.5559 -0.4687  0.0486
14993SOL    HW145557   0.485   5.998   6.757  2.3440 -0.2599  0.4951
14993SOL    HW245558   0.431   5.874   6.690  0.1104  1.0345 -0.2328
14994SOL     OW45559   3.893   9.805   0.364 -0.2297 -0.4999 -0.7346
14994SOL    HW145560   3.951   9.855   0.306 -0.0417 -0.4543 -0.5067
14994SOL    HW245561   3.944   9.792   0.444 -0.7888  0.1619 -0.2581
14995SOL     OW45562   0.435   6.419   6.201 -0.0467  0.0013  0.1444
14995SOL    HW145563   0.501   6.352   6.182 -1.2499 -1.3048  0.4037
14995SOL    HW245564   0.372   6.375   6.259 -1.2086  1.1559 -0.1967
14996SOL     OW45565   0.444   7.872   1.814  0.5505  0.0027  0.0603
14996SOL    HW145566   0.420   7.819   1.890  0.5584  1.3486  1.0321
14996SOL    HW245567   0.493   7.946   1.850 -0.3432  1.2312 -1.1428
14997SOL     OW45568   5.056   4.985   1.128 -0.3335 -0.1602  0.7989
14997SOL    HW145569   4.985   4.930   1.096 -0.6543  0.3795  0.5690
14997SOL    HW245570   5.035   5.001   1.220 -0.2022 -0.4748  0.8854
14998SOL     OW45571   3.199   7.256   6.006  0.4221 -0.4425 -0.0582
14998SOL    HW145572   3.293   7.260   5.989  0.6310 -1.3346  0.7748
14998SOL    HW245573   3.188   7.181   6.065 -0.8436 -0.5270 -0.3600
14999SOL     OW45574   5.295   0.543   3.572 -0.1528  0.4424 -0.6656
14999SOL    HW145575   5.257   0.455   3.565 -0.1703  0.3290  0.5660
14999SOL    HW245576   5.388   0.527   3.587 -0.3320  0.5696  0.7518
15000SOL     OW45577   1.809   5.056   5.522 -0.4294  0.5430 -0.1759
15000SOL    HW145578   1.871   4.986   5.544 -1.4936 -0.0709  1.0167
15000SOL    HW245579   1.863   5.134   5.513  0.8383 -0.4621 -1.8917
15001SOL     OW45580   4.075   1.065   0.641  0.2092  0.8464  0.0607
15001SOL    HW145581   3.992   1.108   0.661  0.0880  1.0409 -0.8070
15001SOL    HW245582   4.142   1.119   0.684  0.1071  2.2247 -1.4057
15002SOL     OW45583   9.985   7.793   9.743  0.6890 -0.0029  0.1170
15002SOL    HW145584   9.914   7.856   9.743  0.1532 -0.6012 -0.4431
15002SOL    HW245585  10.013   7.789   9.835 -1.3163 -1.1999  0.7546
15003SOL     OW45586   4.569   1.347   3.931  0.2822 -0.3368  0.1275
15003SOL    HW145587   4.580   1.269   3.986  0.3728  1.5344  2.9691
15003SOL    HW245588   4.495   1.393   3.970  1.3899  1.9045 -0.2632
15004SOL     OW45589   5.923   7.231   3.543  0.2081  0.7258 -0.4167
15004SOL    HW145590   5.928   7.179   3.463  0.2727  0.0818 -0.0027
15004SOL    HW245591   5.985   7.303   3.529  1.8756 -0.5628 -0.1089
15005SOL     OW45592   0.691   1.869   4.176 -0.0899  0.1148  0.0642
15005SOL    HW145593   0.752   1.913   4.117  1.3281  0.7252  1.8925
15005SOL    HW245594   0.608   1.914   4.163  0.1459  0.1342 -1.5364
15006SOL     OW45595   6.335   6.959   9.763  0.0219 -0.5487 -0.0990
15006SOL    HW145596   6.368   6.988   9.678 -1.7103 -0.1849 -0.7070
15006SOL    HW245597   6.364   7.026   9.825 -0.9383  0.6520 -0.8874
15007SOL     OW45598   1.481   7.096   5.972  0.4946  0.8827  0.8278
15007SOL    HW145599   1.527   7.177   5.994  0.7641  0.4873  1.7807
15007SOL    HW245600   1.516   7.031   6.034 -0.2585  0.2154  0.5695
15008SOL     OW45601   9.487   2.112   0.347  0.1321  0.7017  0.0175
15008SOL    HW145602   9.559   2.123   0.284 -0.6549 -0.3584 -1.1258
15008SOL    HW245603   9.470   2.018   0.346 -1.9744  1.0499 -0.5569
15009SOL     OW45604   5.187   0.361   0.499  0.2119  0.3848  0.2151
15009SOL    HW145605   5.155   0.311   0.573  2.2624 -2.0983 -0.4252
15009SOL    HW245606   5.140   0.444   0.503 -2.1559 -0.9462  2.3118
15010SOL     OW45607   7.701   1.461   9.535  0.1006  0.3747 -0.3407
15010SOL    HW145608   7.700   1.415   9.618 -0.1061  0.8366 -0.0848
15010SOL    HW245609   7.692   1.554   9.558  4.0186  0.9770 -0.5505
15011SOL     OW45610   4.870   6.816   0.122  0.6844  0.0027  0.5385
15011SOL    HW145611   4.857   6.753   0.192  1.1398  0.4723  1.0530
15011SOL    HW245612   4.792   6.872   0.125 -0.3387 -1.2700 -0.7337
15012SOL     OW45613   8.785   8.237   0.135 -0.1849  0.0903 -0.1519
15012SOL    HW145614   8.833   8.272   0.060 -0.7006 -1.0174 -1.0300
15012SOL    HW245615   8.832   8.156   0.157  0.4232  0.7953  1.2258
15013SOL     OW45616   3.201   5.568   5.895 -0.1193 -0.0753 -0.7397
15013SOL    HW145617   3.223   5.549   5.986  2.1128  0.9742 -0.9835
15013SOL    HW245618   3.127   5.629   5.900 -0.4558 -0.5503  0.3262
15014SOL     OW45619   2.553   1.727   7.944 -0.1927  0.2091 -0.2757
15014SOL    HW145620   2.526   1.819   7.946 -0.1382  0.2179  1.5458
15014SOL    HW245621   2.574   1.706   8.035  3.0882 -0.6456 -1.1005
15015SOL     OW45622   1.441   7.127   6.338 -0.3355 -0.2532 -0.3647
15015SOL    HW145623   1.449   7.101   6.429  0.5020  1.6632  0.1381
15015SOL    HW245624   1.494   7.063   6.290  0.4559 -0.3857  0.6594
15016SOL     OW45625   1.094   7.193   6.756  0.2484 -0.2865 -0.2432
15016SOL    HW145626   1.003   7.163   6.755  0.5570 -1.3568 -2.0398
15016SOL    HW245627   1.089   7.286   6.773 -1.3929  0.0729 -2.3187
15017SOL     OW45628   7.693   4.742   2.497  0.1314 -0.2175 -0.1485
15017SOL    HW145629   7.736   4.745   2.583  0.5610 -2.0058 -0.2448
15017SOL    HW245630   7.646   4.659   2.498  0.0236 -0.1894 -1.5928
15018SOL     OW45631   6.748   2.879   8.550  0.4199 -0.1795 -0.0940
15018SOL    HW145632   6.762   2.887   8.645  3.5607  2.9693 -0.5991
15018SOL    HW245633   6.668   2.928   8.533 -1.6239 -2.8471  1.0205
15019SOL     OW45634   6.321   7.968   9.928 -0.4251  0.0125  0.3561
15019SOL    HW145635   6.397   8.025   9.935 -0.2554 -0.0236 -0.9384
15019SOL    HW245636   6.342   7.892   9.983 -0.0833  0.5723  1.0122
15020SOL     OW45637   6.378   1.581   1.596  0.8138  0.4553 -0.3543
15020SOL    HW145638   6.289   1.612   1.579  0.3465 -0.3330  0.5826
15020SOL    HW245639   6.434   1.649   1.560 -0.1381  0.4124 -2.0607
15021SOL     OW45640   4.732   9.487   7.142 -0.7321  0.6289  0.0754
15021SOL    HW145641   4.726   9.401   7.183 -1.1086  0.0154 -1.2134
15021SOL    HW245642   4.765   9.469   7.054  1.5089  2.0544  0.5421
15022SOL     OW45643   2.017   6.544   1.365 -0.1965 -0.2491 -0.2285
15022SOL    HW145644   2.002   6.598   1.287  1.4627 -0.1267 -0.5002
15022SOL    HW245645   2.112   6.547   1.378 -0.1509 -2.3605  0.2882
15023SOL     OW45646   1.521   5.010   9.441  0.8459 -0.5538 -0.9244
15023SOL    HW145647   1.527   4.927   9.489  0.0945 -0.6737 -1.0227
15023SOL    HW245648   1.487   5.072   9.506  0.1486 -0.6384 -1.1970
15024SOL     OW45649   2.359   0.053   7.507 -0.7384  0.4426  0.1845
15024SOL    HW145650   2.325   0.041   7.418  0.4339 -0.2720 -0.2010
15024SOL    HW245651   2.408   0.135   7.503 -1.1319  0.6852  0.3200
15025SOL     OW45652   0.892   2.380   0.381  0.1716 -0.0580 -0.5743
15025SOL    HW145653   0.831   2.436   0.333  0.3867 -0.0419 -0.8335
15025SOL    HW245654   0.976   2.391   0.335  0.4568  0.2020  0.0022
15026SOL     OW45655   2.969   6.519   0.676  0.0454  0.3942  0.2606
15026SOL    HW145656   2.954   6.598   0.728  0.2322  0.5665  0.0574
15026SOL    HW245657   2.887   6.506   0.628 -0.4487 -0.2737  1.2580
15027SOL     OW45658   4.449   8.314   6.226 -0.7565 -0.4778  0.3559
15027SOL    HW145659   4.439   8.395   6.276  1.1972  0.5758 -0.7893
15027SOL    HW245660   4.374   8.313   6.167 -1.3524 -0.0446  1.0964
15028SOL     OW45661   5.640   5.724   5.109  0.7824  0.2295  0.4488
15028SOL    HW145662   5.685   5.662   5.052  1.0762  1.0735 -0.2722
15028SOL    HW245663   5.708   5.758   5.167  0.7925  0.4503  0.3112
15029SOL     OW45664   8.231   4.626   3.788  0.0562  0.4441 -0.1683
15029SOL    HW145665   8.266   4.628   3.878 -0.0505  1.7635 -0.1291
15029SOL    HW245666   8.304   4.598   3.734  0.5462  1.0493  0.1726
15030SOL     OW45667   3.977   4.090   9.067  0.0298  0.0552  0.5071
15030SOL    HW145668   4.039   4.020   9.048  0.8876  1.0565 -0.5051
15030SOL    HW245669   4.027   4.152   9.120 -0.4768  0.3143  0.6863
15031SOL     OW45670   6.591   0.422   6.048 -0.5291  0.2749 -0.1001
15031SOL    HW145671   6.625   0.368   5.976  0.6151  1.8013 -0.7504
15031SOL    HW245672   6.521   0.369   6.085  0.3945 -1.5745 -0.8334
15032SOL     OW45673   8.841   8.081   3.518  0.0314 -0.0373  0.3854
15032SOL    HW145674   8.786   8.010   3.551 -1.0099  0.4160 -0.3066
15032SOL    HW245675   8.873   8.048   3.433 -0.3705  0.2693  0.1112
15033SOL     OW45676   9.941   1.499   9.345  0.0840  0.1766  0.0612
15033SOL    HW145677  10.016   1.484   9.287  0.4294 -0.8466  0.7332
15033SOL    HW245678   9.865   1.473   9.293  0.4440 -1.3800  0.2617
15034SOL     OW45679   2.261   9.543   1.636  0.2285  0.9190  0.6579
15034SOL    HW145680   2.240   9.609   1.702  1.0041  0.4513  1.3828
15034SOL    HW245681   2.273   9.594   1.555 -0.0147  1.5703  1.0225
15035SOL     OW45682   4.884   5.053   9.395 -0.5719  0.6162  0.2800
15035SOL    HW145683   4.896   5.142   9.430  0.3378  0.2259  0.9993
15035SOL    HW245684   4.818   5.013   9.453  0.6510  0.0991  1.3583
15036SOL     OW45685   3.055   5.623   3.259  0.1520  0.1359 -0.2692
15036SOL    HW145686   3.059   5.561   3.186 -0.0612  1.6527 -1.6288
15036SOL    HW245687   2.971   5.667   3.248  0.7367  1.3757  0.0319
15037SOL     OW45688   2.177   5.851   5.761  0.3636 -0.1457  0.1916
15037SOL    HW145689   2.135   5.807   5.834  1.1998 -1.1354  0.1129
15037SOL    HW245690   2.124   5.827   5.685 -0.3667  0.6885  0.4209
15038SOL     OW45691   8.778   2.485   9.421 -0.2160 -0.2233 -0.4971
15038SOL    HW145692   8.771   2.577   9.398 -0.8538 -0.3150 -0.6785
15038SOL    HW245693   8.690   2.450   9.410 -0.4113 -0.4460  1.3487
15039SOL     OW45694   7.423   6.045   9.890 -0.2518 -0.0836 -0.4723
15039SOL    HW145695   7.353   6.039   9.956 -0.4648 -0.3677 -0.7246
15039SOL    HW245696   7.378   6.038   9.806  0.1779 -1.2486 -0.6193
15040SOL     OW45697   7.156   8.318   1.790  0.5802  0.0343  0.2354
15040SOL    HW145698   7.072   8.280   1.767 -0.2221  1.7677  0.1030
15040SOL    HW245699   7.200   8.251   1.841 -0.4087 -1.3285 -0.6432
15041SOL     OW45700   8.783   5.850   6.250 -0.1460 -0.3350 -0.1225
15041SOL    HW145701   8.877   5.830   6.248 -0.4489 -1.8849 -0.6775
15041SOL    HW245702   8.749   5.810   6.170 -1.4687 -0.8959  0.6909
15042SOL     OW45703   4.080   6.283   7.726 -0.1820  0.0110  0.5692
15042SOL    HW145704   4.108   6.192   7.735 -0.7980 -0.1690  0.7170
15042SOL    HW245705   4.013   6.280   7.657 -0.1778  0.3599  0.5509
15043SOL     OW45706   4.117   7.011   8.207  0.5624  0.7429  0.1405
15043SOL    HW145707   4.024   7.011   8.231  0.5151 -2.3442  0.2681
15043SOL    HW245708   4.155   7.081   8.261 -1.5777  1.8357  0.3518
15044SOL     OW45709   6.777   3.743   8.409  0.3594  0.2545 -0.5838
15044SOL    HW145710   6.831   3.814   8.374  0.5578 -0.1604 -1.1279
15044SOL    HW245711   6.689   3.781   8.415  0.4801  0.5719 -0.7933
15045SOL     OW45712   2.908   9.128   3.474  0.5428 -0.3788 -0.0221
15045SOL    HW145713   2.884   9.170   3.556 -0.5674  0.6390 -0.8347
15045SOL    HW245714   2.872   9.040   3.480  0.8535 -0.4621  0.7441
15046SOL     OW45715   0.945   8.774   8.460 -0.3501 -0.3587 -0.2062
15046SOL    HW145716   0.937   8.680   8.473 -1.8348 -0.4354 -1.4278
15046SOL    HW245717   0.964   8.784   8.367 -2.7859  0.5984 -0.6854
15047SOL     OW45718   3.650   1.305   0.681 -0.0941  0.2876 -0.4268
15047SOL    HW145719   3.570   1.338   0.639  0.5409  0.9349 -1.1577
15047SOL    HW245720   3.645   1.336   0.771 -1.3171 -0.8333 -0.0731
15048SOL     OW45721   0.045   8.050   7.007 -0.3609  0.3897 -0.0644
15048SOL    HW145722   0.139   8.062   7.016 -0.0518 -0.6998 -1.4538
15048SOL    HW245723   0.035   7.958   6.983 -1.6562  0.8125 -1.2767
15049SOL     OW45724   8.432   4.203   6.854  0.1248 -0.4347  0.3592
15049SOL    HW145725   8.388   4.119   6.863 -0.1208 -0.3888 -0.3505
15049SOL    HW245726   8.508   4.197   6.912  1.0091 -1.7566 -0.8358
15050SOL     OW45727   6.839   7.879   5.919 -0.3702  0.0964  0.5437
15050SOL    HW145728   6.753   7.909   5.948 -0.1636  1.2946  0.0109
15050SOL    HW245729   6.820   7.807   5.859 -1.1227  1.2553 -0.6891
15051SOL     OW45730   3.420   6.983   9.892  0.1144 -0.2245 -1.0633
15051SOL    HW145731   3.428   6.938   9.808  0.8881 -2.0852 -0.0787
15051SOL    HW245732   3.369   6.923   9.947  1.5850 -0.1692  0.4670
15052SOL     OW45733   2.073   5.352   6.657  0.2557  0.0886  0.0689
15052SOL    HW145734   2.079   5.266   6.700  0.9377  0.3440  0.4976
15052SOL    HW245735   2.162   5.369   6.626  0.4029  1.1774  1.0439
15053SOL     OW45736   6.626   7.171   4.901 -0.1902 -0.4090  0.4871
15053SOL    HW145737   6.609   7.209   4.987 -1.6058  1.5833 -0.6069
15053SOL    HW245738   6.570   7.093   4.899 -0.1758 -0.4579  1.3412
15054SOL     OW45739   2.027   8.403   9.429  0.0030  0.0748  0.0907
15054SOL    HW145740   1.955   8.353   9.468 -0.5345  0.1958 -0.7308
15054SOL    HW245741   2.032   8.482   9.483 -0.5964  0.1480  0.0528
15055SOL     OW45742   8.858   8.010   0.452  0.0278  0.2218 -0.2027
15055SOL    HW145743   8.933   8.039   0.503  0.8101 -0.5361 -0.8721
15055SOL    HW245744   8.894   7.989   0.366 -0.8311 -0.7688 -0.3551
15056SOL     OW45745   3.257   5.631   0.082  0.6772 -0.4112 -0.4835
15056SOL    HW145746   3.176   5.587   0.107 -1.3009  3.9920  1.8485
15056SOL    HW245747   3.326   5.570   0.110 -1.7349 -2.1621  2.3011
15057SOL     OW45748   6.671   0.554   7.553  0.0159 -0.0457  0.2883
15057SOL    HW145749   6.661   0.533   7.460  1.9943 -2.8548  0.5727
15057SOL    HW245750   6.696   0.647   7.554  2.6334 -0.5601 -2.2859
15058SOL     OW45751   1.045   3.108   0.289  0.0777  0.0845 -0.6012
15058SOL    HW145752   1.076   3.167   0.358 -2.3150  2.0111 -1.0626
15058SOL    HW245753   1.110   3.117   0.219 -0.5705  2.8422 -0.9690
15059SOL     OW45754   3.654   1.072   6.778 -0.1895 -0.4622  0.0497
15059SOL    HW145755   3.645   1.164   6.804  0.6146 -0.8178  1.6795
15059SOL    HW245756   3.725   1.038   6.832 -1.0722 -2.2892  0.1399
15060SOL     OW45757   6.424   0.657   3.652 -0.1579  0.1741 -0.1475
15060SOL    HW145758   6.490   0.647   3.721  0.8711 -0.3960 -1.1863
15060SOL    HW245759   6.450   0.736   3.605 -1.5448  1.2518  0.8158
15061SOL     OW45760   5.883   2.130   9.506 -0.0062  0.3046  0.3941
15061SOL    HW145761   5.917   2.199   9.563  1.3130 -0.7136  0.9179
15061SOL    HW245762   5.839   2.176   9.435  1.0994  1.6913  0.5633
15062SOL     OW45763   9.343   0.791   2.110  0.1198 -0.3186  0.3190
15062SOL    HW145764   9.376   0.704   2.128 -1.3510 -0.6675  1.5803
15062SOL    HW245765   9.285   0.779   2.035 -2.4208 -1.1060  2.2544
15063SOL     OW45766   2.522   9.672   6.089 -0.1797 -0.6766  0.0776
15063SOL    HW145767   2.560   9.611   6.151 -0.1124  1.1085  1.9153
15063SOL    HW245768   2.523   9.626   6.005  0.6801 -2.7966  1.1877
15064SOL     OW45769   8.780   5.978   4.508 -0.0210  0.4609 -0.2752
15064SOL    HW145770   8.752   5.924   4.435 -0.4063  0.3642 -0.0603
15064SOL    HW245771   8.699   6.010   4.547  0.1888  0.7401 -0.0616
15065SOL     OW45772   9.596   4.246   5.727  0.9343  0.1642 -0.4478
15065SOL    HW145773   9.656   4.219   5.796 -0.8145  0.0758  1.1001
15065SOL    HW245774   9.602   4.342   5.727  1.0499  0.1582 -0.3018
15066SOL     OW45775   4.871   9.075   0.599 -0.3332  0.0768 -0.2511
15066SOL    HW145776   4.822   8.992   0.593  0.5464 -0.4630 -0.1972
15066SOL    HW245777   4.807   9.142   0.575 -1.1438 -0.5899 -0.0286
15067SOL     OW45778   4.184   5.571   6.765 -0.1644 -0.3686  0.6252
15067SOL    HW145779   4.088   5.575   6.763 -0.1878 -0.1512  1.8290
15067SOL    HW245780   4.204   5.481   6.739 -0.7903 -1.0318  2.3119
15068SOL     OW45781   1.764   1.096   0.896  0.3265 -0.1373  0.1072
15068SOL    HW145782   1.730   1.010   0.919 -0.8415 -0.1287 -1.4598
15068SOL    HW245783   1.844   1.078   0.847  0.8615 -0.2584  0.9979
15069SOL     OW45784   0.029   9.018   8.171  0.2184 -0.0817  0.3994
15069SOL    HW145785   0.022   9.037   8.077 -1.8550  1.5359  0.8118
15069SOL    HW245786   0.040   8.923   8.175 -2.3312 -0.5610 -1.4680
15070SOL     OW45787   1.756   8.761   3.669  0.8053 -0.0109 -0.0976
15070SOL    HW145788   1.668   8.742   3.702  1.2639  0.1493  1.2770
15070SOL    HW245789   1.797   8.675   3.659  0.5928 -0.0706 -0.4886
15071SOL     OW45790   3.702   4.732   3.378  0.3815 -0.1124  0.1784
15071SOL    HW145791   3.785   4.704   3.341  0.2800  0.3823 -0.4342
15071SOL    HW245792   3.641   4.730   3.305  0.3685  1.6690  0.0947
15072SOL     OW45793   7.196   3.538   5.744 -0.0781  0.0241  0.5382
15072SOL    HW145794   7.250   3.496   5.677 -1.1183 -1.4856  0.5955
15072SOL    HW245795   7.238   3.515   5.826  0.1554  0.3216  0.5051
15073SOL     OW45796   6.764   0.938   2.116  0.0801 -0.3303  0.2942
15073SOL    HW145797   6.811   0.958   2.197 -0.8404  4.2056 -0.0504
15073SOL    HW245798   6.825   0.964   2.046 -0.8870  0.4589 -0.2807
15074SOL     OW45799   7.277   5.760   0.273 -0.1836  0.1005 -0.2286
15074SOL    HW145800   7.235   5.677   0.294  1.9674 -1.5298 -1.8236
15074SOL    HW245801   7.361   5.757   0.319  0.0683  1.2169 -0.5854
15075SOL     OW45802   4.429   0.233   4.269 -0.2136 -0.3727  0.1988
15075SOL    HW145803   4.390   0.203   4.187 -1.0970 -0.0117  0.4681
15075SOL    HW245804   4.357   0.229   4.332  0.2076  0.2662  0.7334
15076SOL     OW45805   3.483   9.807   8.925 -0.1356 -0.1299 -0.3895
15076SOL    HW145806   3.424   9.754   8.978 -0.8049  0.5802 -0.4184
15076SOL    HW245807   3.507   9.751   8.851 -0.2522 -0.6458 -0.0391
15077SOL     OW45808   7.139   9.824   4.120 -0.4087 -0.0534 -0.3380
15077SOL    HW145809   7.224   9.810   4.078 -0.4634  0.4253 -0.6209
15077SOL    HW245810   7.143   9.914   4.154 -1.2454  0.4301 -1.4487
15078SOL     OW45811   3.248   1.958   3.143 -0.1604  0.5816  0.3258
15078SOL    HW145812   3.185   1.949   3.215 -0.6673 -1.6269 -0.3054
15078SOL    HW245813   3.331   1.978   3.186 -0.7548  0.8394  1.3926
15079SOL     OW45814   2.744   5.680   6.861 -0.3741  0.5048  0.0458
15079SOL    HW145815   2.831   5.721   6.861  0.4079 -1.0700 -0.6166
15079SOL    HW245816   2.743   5.625   6.783 -2.2974  1.1006 -0.3979
15080SOL     OW45817   6.494   8.749   5.529  0.0309  0.2747  0.0011
15080SOL    HW145818   6.568   8.726   5.585  0.4024  1.7112  0.1496
15080SOL    HW245819   6.533   8.800   5.458 -0.8823  1.7007  0.4832
15081SOL     OW45820   8.746   5.342   1.835  0.2912  0.1093  0.5331
15081SOL    HW145821   8.665   5.294   1.818  0.8863 -0.7446  0.0576
15081SOL    HW245822   8.726   5.432   1.810 -0.5882 -0.0379  0.6627
15082SOL     OW45823   0.307   3.117   5.787 -0.0787 -1.0205  0.1363
15082SOL    HW145824   0.321   3.023   5.803 -0.5988 -0.8779  1.5186
15082SOL    HW245825   0.392   3.157   5.806 -0.0551 -1.1353  0.2777
15083SOL     OW45826   5.462   8.453   6.022 -0.4180 -0.1199  0.1475
15083SOL    HW145827   5.477   8.546   6.043  0.2961  0.0407 -0.9979
15083SOL    HW245828   5.526   8.406   6.075 -0.4151  0.0845  0.3277
15084SOL     OW45829   3.829   6.624   8.833  0.5399 -0.5036  0.6026
15084SOL    HW145830   3.831   6.706   8.784 -0.5807 -0.8640 -0.0759
15084SOL    HW245831   3.907   6.627   8.888  0.7675  0.7952  0.2330
15085SOL     OW45832   0.392   8.406   3.084  0.2504  0.6919 -0.0734
15085SOL    HW145833   0.325   8.391   3.151 -1.5519  0.1412 -1.9091
15085SOL    HW245834   0.472   8.423   3.134 -1.2509  1.4807  2.2178
15086SOL     OW45835   5.358   9.768   5.128  0.1383  0.6789  0.7598
15086SOL    HW145836   5.346   9.787   5.221 -1.1759 -0.3935  0.8428
15086SOL    HW245837   5.313   9.685   5.115 -1.4772  1.7841 -1.2414
15087SOL     OW45838   6.084   4.212   1.553 -0.0672 -0.3541 -0.4104
15087SOL    HW145839   6.000   4.242   1.518 -1.0642 -2.0872  0.3561
15087SOL    HW245840   6.149   4.253   1.496 -1.4014  1.1460 -0.9462
15088SOL     OW45841   3.045   2.547   3.123  0.4559 -0.0777 -0.1215
15088SOL    HW145842   3.064   2.485   3.052  0.0187  0.0570 -0.3587
15088SOL    HW245843   3.118   2.536   3.184 -0.1236 -1.5461  0.3404
15089SOL     OW45844   6.681   2.058   1.518 -0.1868 -0.4783 -0.3169
15089SOL    HW145845   6.681   2.154   1.517 -2.0387 -0.4026  1.0638
15089SOL    HW245846   6.617   2.034   1.450  0.8469 -0.7923 -1.2067
15090SOL     OW45847   1.360   1.042   6.864 -0.4520  0.1666 -0.1067
15090SOL    HW145848   1.421   1.039   6.790  0.3220  0.8704  0.4687
15090SOL    HW245849   1.411   1.084   6.934 -1.2286 -0.3056  0.7568
15091SOL     OW45850   8.372   4.802   6.651  0.2587 -0.2671 -0.0866
15091SOL    HW145851   8.443   4.860   6.625  0.3870 -0.3051  0.1709
15091SOL    HW245852   8.319   4.791   6.572  0.0163  0.5090 -0.0440
15092SOL     OW45853   9.494   3.716   7.628 -0.1347 -0.2235 -0.2038
15092SOL    HW145854   9.559   3.659   7.587  0.1515  0.8667 -1.3250
15092SOL    HW245855   9.546   3.783   7.674 -0.4238  0.8393 -1.3708
15093SOL     OW45856   8.256   9.499   9.001 -0.3741 -0.2998 -0.2546
15093SOL    HW145857   8.199   9.473   9.074 -1.2356 -0.3819 -0.9477
15093SOL    HW245858   8.223   9.585   8.974  1.8500  1.2235  1.3953
15094SOL     OW45859   9.904   3.165   2.472  0.2695 -0.6385  0.9974
15094SOL    HW145860   9.954   3.141   2.394 -1.4005  0.1492 -0.3890
15094SOL    HW245861   9.865   3.083   2.502 -1.3438 -0.5661 -0.7224
15095SOL     OW45862   1.075   0.409   5.250 -0.3258 -0.3415  0.0628
15095SOL    HW145863   1.144   0.377   5.192  0.1844  1.5753 -0.4685
15095SOL    HW245864   1.103   0.382   5.337  0.7316 -0.2421 -0.2248
15096SOL     OW45865   6.188   6.318   5.226  0.1550 -0.3579 -0.4287
15096SOL    HW145866   6.201   6.244   5.168  0.6538 -0.5435 -0.0823
15096SOL    HW245867   6.276   6.341   5.256 -0.1408 -0.5997  0.6633
15097SOL     OW45868   3.988   6.253   6.557  0.2681 -0.0466 -0.1060
15097SOL    HW145869   3.923   6.196   6.515  0.5147  0.3960 -1.0965
15097SOL    HW245870   4.062   6.195   6.575  0.4190 -0.0959 -0.8785
15098SOL     OW45871   2.675   0.481   0.679 -0.2297  0.1776 -0.3621
15098SOL    HW145872   2.729   0.486   0.758 -1.2816 -3.1539  0.7321
15098SOL    HW245873   2.739   0.477   0.607  0.8514  0.0098  0.5876
15099SOL     OW45874   7.908   6.359   1.767  0.1923  0.2661  0.5648
15099SOL    HW145875   7.871   6.271   1.772  5.1811 -2.3118 -1.2430
15099SOL    HW245876   7.950   6.371   1.853 -0.0346  0.6599  0.6196
15100SOL     OW45877   8.325   1.544   7.682  0.3871 -0.2493 -0.0907
15100SOL    HW145878   8.413   1.528   7.647  0.9378  0.1129  1.0654
15100SOL    HW245879   8.322   1.639   7.695 -0.4053 -0.1892 -0.6965
15101SOL     OW45880   8.922   9.298   4.119 -0.3598 -0.0814  0.1188
15101SOL    HW145881   8.944   9.259   4.204 -0.4812 -0.4578 -0.0211
15101SOL    HW245882   8.947   9.232   4.055 -1.0864 -0.1650 -0.0895
15102SOL     OW45883   9.651   7.457   4.319 -0.4066 -0.3736 -0.3586
15102SOL    HW145884   9.574   7.476   4.372 -1.8244 -1.6471 -1.8732
15102SOL    HW245885   9.724   7.494   4.369 -2.1345  2.5858  0.2218
15103SOL     OW45886   4.645   4.631   5.886 -0.3344  0.3678  0.1794
15103SOL    HW145887   4.666   4.540   5.862  0.1374  0.5937 -0.2584
15103SOL    HW245888   4.558   4.625   5.926 -0.2498 -0.2978  0.2777
15104SOL     OW45889   5.304   1.403   6.166  0.0027 -0.5414  0.0610
15104SOL    HW145890   5.238   1.404   6.235 -0.0906  1.0027 -0.0278
15104SOL    HW245891   5.320   1.495   6.145  0.0100 -0.9555 -2.0002
15105SOL     OW45892   7.505   1.810   5.311 -0.4121 -0.4354  0.0186
15105SOL    HW145893   7.438   1.789   5.376 -0.3783  2.1749  1.0051
15105SOL    HW245894   7.461   1.869   5.250  0.2276 -0.9958 -1.0154
15106SOL     OW45895   6.811   8.773   0.296 -0.2522  0.0663 -0.0026
15106SOL    HW145896   6.729   8.761   0.247  0.0607  1.3573 -0.9063
15106SOL    HW245897   6.866   8.824   0.237  0.5731  0.6782  1.2635
15107SOL     OW45898   4.791   8.492   5.402 -0.6980 -0.0285  0.5164
15107SOL    HW145899   4.734   8.566   5.423 -1.4145 -1.3118  3.6159
15107SOL    HW245900   4.868   8.505   5.457 -0.5271 -1.2470  0.5847
15108SOL     OW45901   6.635   9.310   0.371  0.6664 -0.0757  0.6648
15108SOL    HW145902   6.703   9.273   0.315 -0.3861  0.4529 -1.0694
15108SOL    HW245903   6.658   9.402   0.379 -0.6125  0.4610 -1.2477
15109SOL     OW45904   8.233   0.197   4.310 -0.2944 -0.1086  0.2102
15109SOL    HW145905   8.188   0.183   4.227  0.0227  2.3176 -0.4553
15109SOL    HW245906   8.324   0.173   4.292  0.1418  1.9654 -0.7555
15110SOL     OW45907   2.232   3.249   8.705  0.3075  0.0836  0.1517
15110SOL    HW145908   2.142   3.244   8.737 -0.1058  0.7108 -0.8940
15110SOL    HW245909   2.230   3.314   8.635  2.0538  1.9055  1.6623
15111SOL     OW45910   2.835   8.504   0.190  0.1851  0.1834  0.2374
15111SOL    HW145911   2.859   8.583   0.140  0.6556 -0.1171 -0.0178
15111SOL    HW245912   2.839   8.532   0.281  0.0698  0.5321  0.1387
15112SOL     OW45913   2.585   0.294   0.863  0.1899  0.3111 -0.0731
15112SOL    HW145914   2.605   0.351   0.788 -2.6765 -0.4705 -1.5547
15112SOL    HW245915   2.621   0.209   0.838  0.1405  0.2945 -0.0869
15113SOL     OW45916   6.081   5.951   3.962  0.1992 -0.2585  0.3902
15113SOL    HW145917   6.158   5.949   3.905 -0.0559  0.1860  0.0333
15113SOL    HW245918   6.008   5.929   3.904 -0.2822  1.7351  0.1905
15114SOL     OW45919   1.860   8.258   1.442 -0.5858 -0.4390  0.3990
15114SOL    HW145920   1.862   8.253   1.537  0.0564 -0.5792  0.3844
15114SOL    HW245921   1.854   8.166   1.414 -2.0824 -0.3423  0.3135
15115SOL     OW45922   8.023   8.788   3.593  0.7048 -0.4117 -0.0204
15115SOL    HW145923   7.962   8.715   3.601 -0.9599  1.1665  3.2562
15115SOL    HW245924   7.996   8.833   3.513 -2.0047 -0.2062  0.9251
15116SOL     OW45925   6.077   7.730   1.293  0.4229  0.1102 -0.5712
15116SOL    HW145926   6.138   7.762   1.227  1.5383 -1.8018 -0.5432
15116SOL    HW245927   6.041   7.650   1.256  0.9895 -0.9509  1.0494
15117SOL     OW45928   5.046   9.037   8.928  0.0123  0.1700  0.1731
15117SOL    HW145929   5.038   9.013   9.020 -0.5354 -1.4000 -0.2555
15117SOL    HW245930   4.960   9.016   8.890  1.2279 -2.4553 -1.3754
15118SOL     OW45931   4.465   8.961   0.911  0.7896 -0.0491 -0.0555
15118SOL    HW145932   4.513   9.028   0.862  0.8463 -0.2036 -0.2082
15118SOL    HW245933   4.528   8.927   0.974 -0.0612  2.2991  2.2734
15119SOL     OW45934   6.989   8.387   5.452  0.2566 -0.0972 -0.0963
15119SOL    HW145935   7.045   8.314   5.479 -0.1003  0.5535  2.7188
15119SOL    HW245936   6.924   8.347   5.395  2.4956 -1.1654 -2.0988
15120SOL     OW45937   3.785   8.211   0.141 -0.1313  0.2920  0.5730
15120SOL    HW145938   3.721   8.183   0.075  0.2348 -0.9668  0.7189
15120SOL    HW245939   3.869   8.213   0.094  0.0985 -0.4188  0.9299
15121SOL     OW45940   0.210   3.470   5.986 -0.2472 -0.0315  0.3229
15121SOL    HW145941   0.166   3.546   5.947  1.8119  0.3488 -1.4904
15121SOL    HW245942   0.195   3.399   5.923 -1.1148 -0.8265  1.3944
15122SOL     OW45943   3.975   2.023   5.344  0.7205 -0.1610 -0.5263
15122SOL    HW145944   3.979   2.070   5.261 -0.1014  0.2545 -0.3433
15122SOL    HW245945   4.060   2.038   5.384  0.3144  1.6256 -0.2449
15123SOL     OW45946   4.505   3.134   2.422  0.2728 -0.2380  0.2181
15123SOL    HW145947   4.488   3.084   2.502  0.8950 -0.8860 -0.0430
15123SOL    HW245948   4.533   3.068   2.358 -1.2135  0.1273 -0.8547
15124SOL     OW45949   1.382   7.024   0.546 -0.0639 -0.3636 -0.2612
15124SOL    HW145950   1.433   7.105   0.552  2.0613 -1.6600  0.3575
15124SOL    HW245951   1.338   7.029   0.462  0.9340  0.9472 -0.7269
15125SOL     OW45952   8.191   5.287   9.285  0.0232 -0.3190  0.4541
15125SOL    HW145953   8.261   5.338   9.326  0.4263 -1.8654  1.7846
15125SOL    HW245954   8.236   5.214   9.242 -0.6215 -0.1047 -0.6495
15126SOL     OW45955   2.821   5.368   6.355  0.1350  0.1208 -0.5108
15126SOL    HW145956   2.908   5.339   6.383  0.4935  1.5649 -0.0212
15126SOL    HW245957   2.836   5.454   6.314 -0.7565 -0.6793 -2.6585
15127SOL     OW45958   7.312   0.419   1.707 -0.6786 -0.0105 -0.3380
15127SOL    HW145959   7.256   0.412   1.784 -0.0406 -2.3908  0.0193
15127SOL    HW245960   7.382   0.479   1.733 -1.7180  1.0398  0.0790
15128SOL     OW45961   5.353   6.223   0.290  0.2114 -0.0064 -0.2732
15128SOL    HW145962   5.332   6.278   0.216 -0.7836  0.7736  0.5617
15128SOL    HW245963   5.416   6.274   0.341  0.2945 -0.2082 -0.1705
15129SOL     OW45964   4.407   0.340   8.279 -0.3801  0.5579 -0.0513
15129SOL    HW145965   4.368   0.295   8.354  0.8146  1.1321  0.9383
15129SOL    HW245966   4.344   0.327   8.208 -1.0114 -0.9403  0.7443
15130SOL     OW45967   5.529   0.589   3.024 -0.0172 -0.1118  0.1914
15130SOL    HW145968   5.566   0.676   3.011  0.0256 -0.1007  0.3815
15130SOL    HW245969   5.604   0.530   3.024  0.0177 -0.0753  0.6995
15131SOL     OW45970   5.657   3.130   2.384  0.0593 -0.3690 -0.0001
15131SOL    HW145971   5.695   3.130   2.296  0.5980 -0.6816  0.2280
15131SOL    HW245972   5.631   3.221   2.399  0.1672 -0.2718 -0.3946
15132SOL     OW45973   7.669   1.662   9.761 -0.0335 -0.0321 -0.1165
15132SOL    HW145974   7.719   1.720   9.704 -2.2638  0.9390 -1.2491
15132SOL    HW245975   7.578   1.676   9.735 -0.8141 -2.8528  0.7230
15133SOL     OW45976   7.478   6.889   6.460 -0.3630  0.3288 -0.5032
15133SOL    HW145977   7.390   6.852   6.463 -0.8920  1.3916 -1.8449
15133SOL    HW245978   7.494   6.905   6.367  1.9265 -1.3605 -0.4980
15134SOL     OW45979   4.564   8.307   3.723 -0.0848  0.1655 -0.9076
15134SOL    HW145980   4.607   8.349   3.797 -0.0650  0.4814 -1.0944
15134SOL    HW245981   4.527   8.380   3.672  0.6484  0.0208 -1.6702
15135SOL     OW45982   6.040   7.894   7.345 -0.1721 -0.0249 -0.1733
15135SOL    HW145983   5.984   7.907   7.421 -0.1409  0.1398 -0.1774
15135SOL    HW245984   6.119   7.853   7.379 -0.9809 -1.8593 -0.4101
15136SOL     OW45985   8.794   3.525   2.630  0.1507  0.1349  0.1946
15136SOL    HW145986   8.747   3.497   2.552 -0.2895  1.0751  0.1091
15136SOL    HW245987   8.886   3.526   2.603  0.4792 -3.0362  0.7509
15137SOL     OW45988   8.979   0.258   6.880  0.0193  0.0170 -0.2037
15137SOL    HW145989   8.998   0.197   6.808  0.9349 -1.4745  1.2195
15137SOL    HW245990   8.988   0.345   6.841  3.3434 -0.6533 -1.2896
15138SOL     OW45991   9.371   1.019   6.230  0.0059  0.0603  0.6776
15138SOL    HW145992   9.304   0.957   6.203  1.0538 -0.5804 -0.5122
15138SOL    HW245993   9.325   1.080   6.288 -1.7426 -0.0150 -0.5541
15139SOL     OW45994   9.295   6.260   7.172  0.3433  0.4522  0.0738
15139SOL    HW145995   9.252   6.342   7.196  1.4450  0.8913  0.5724
15139SOL    HW245996   9.388   6.280   7.169  0.4397  0.0286 -3.0385
15140SOL     OW45997   0.294   1.119   0.285 -0.0378  0.1052  0.4897
15140SOL    HW145998   0.292   1.208   0.248  0.3236  0.0943  0.4437
15140SOL    HW245999   0.310   1.063   0.210  0.4384  0.0605  0.6230
15141SOL     OW46000   6.066   5.294   6.573 -0.0369  0.3638 -0.4445
15141SOL    HW146001   6.097   5.239   6.645  0.2332  0.7948 -0.2236
15141SOL    HW246002   6.093   5.383   6.598 -0.9516  0.6764 -0.5309
15142SOL     OW46003   0.762   1.156   1.021 -0.6538  0.1447 -0.4971
15142SOL    HW146004   0.783   1.086   1.083 -0.1526  0.4030 -0.3715
15142SOL    HW246005   0.807   1.131   0.941 -0.1885  0.4880 -0.3507
15143SOL     OW46006   0.403   9.335   8.987 -0.3112 -0.0174 -0.7068
15143SOL    HW146007   0.400   9.240   8.977 -1.5650 -0.1711  0.7367
15143SOL    HW246008   0.368   9.369   8.905  1.3561 -0.7300 -1.7647
15144SOL     OW46009   3.015   1.674   8.784  0.2516  0.6063 -0.0893
15144SOL    HW146010   3.022   1.718   8.699  1.9422 -1.4424 -1.0935
15144SOL    HW246011   2.933   1.625   8.778 -0.4004  1.6394  0.0922
15145SOL     OW46012   3.096   9.517   0.760 -0.5245  0.2713 -0.1601
15145SOL    HW146013   3.148   9.580   0.709 -1.6529  1.3117 -0.0536
15145SOL    HW246014   3.042   9.472   0.695 -0.5621  0.2338 -0.1024
15146SOL     OW46015   0.092   5.702   3.700  0.0952  0.1638 -0.0105
15146SOL    HW146016   0.151   5.778   3.707 -0.9357  0.8979  1.1851
15146SOL    HW246017   0.046   5.700   3.784 -1.0073 -0.8785 -0.6123
15147SOL     OW46018   7.410   1.347   0.197  0.4252 -0.0173 -0.1535
15147SOL    HW146019   7.469   1.351   0.272 -0.3258  1.2528  0.4092
15147SOL    HW246020   7.377   1.257   0.196  2.6109 -0.8644 -0.7137
15148SOL     OW46021   1.522   0.970   2.016  0.4194 -0.1046  0.6414
15148SOL    HW146022   1.530   0.955   1.921  0.8342 -0.9269  0.7973
15148SOL    HW246023   1.436   1.010   2.026  0.1833 -0.4076 -0.0469
15149SOL     OW46024   0.099   0.791   2.382  0.7978  0.1808 -0.0339
15149SOL    HW146025   0.132   0.879   2.366 -1.9220  0.9352 -2.3604
15149SOL    HW246026   0.015   0.805   2.427  0.3487 -1.2114 -0.4000
15150SOL     OW46027   0.090   3.964   1.403  0.1229 -0.0048 -0.5061
15150SOL    HW146028   0.176   4.004   1.409  1.9761 -3.5014 -0.9544
15150SOL    HW246029   0.073   3.929   1.490 -0.5932  0.1422 -0.5789
15151SOL     OW46030   1.803   8.118   2.871 -0.5292  0.5517 -0.2345
15151SOL    HW146031   1.717   8.098   2.833 -0.6010 -0.8750  0.6205
15151SOL    HW246032   1.804   8.073   2.955  1.5563 -0.5536 -0.7797
15152SOL     OW46033   0.175   7.262   7.050  0.3838  0.0582  0.4708
15152SOL    HW146034   0.192   7.173   7.019 -0.3792 -0.0957  0.4856
15152SOL    HW246035   0.256   7.310   7.031 -0.0383 -0.0266 -1.7847
15153SOL     OW46036   0.399   4.695   9.011  0.2532 -0.2610  0.2245
15153SOL    HW146037   0.418   4.632   9.080 -1.7941  0.9381  2.0228
15153SOL    HW246038   0.392   4.643   8.932 -2.3680 -2.5524  1.7771
15154SOL     OW46039   5.736   5.733   3.331 -0.2141 -0.2027 -0.1006
15154SOL    HW146040   5.669   5.705   3.269 -0.4540 -0.0859  0.1041
15154SOL    HW246041   5.767   5.817   3.296  1.6703 -1.4410 -1.6232
15155SOL     OW46042   2.911   1.644   6.877 -0.2126 -0.2397  0.1851
15155SOL    HW146043   2.891   1.699   6.953 -0.9978 -0.7936  0.3958
15155SOL    HW246044   2.939   1.705   6.809 -0.4060  0.3467  0.6251
15156SOL     OW46045   3.613   1.816   5.347 -0.3843 -0.2342 -0.1989
15156SOL    HW146046   3.699   1.784   5.321 -0.6296 -1.5549  0.4967
15156SOL    HW246047   3.630   1.866   5.427 -0.2024 -0.1026 -0.3198
15157SOL     OW46048   8.688   7.080   4.211 -0.4926  0.2343  0.1978
15157SOL    HW146049   8.671   6.985   4.210  1.0641 -0.0609 -0.0264
15157SOL    HW246050   8.782   7.087   4.225 -0.3959  1.7432 -1.0535
15158SOL     OW46051   0.617   5.065   5.321 -0.8216 -0.1498  0.4765
15158SOL    HW146052   0.699   5.034   5.359 -0.7682 -1.9997 -0.9941
15158SOL    HW246053   0.608   5.154   5.353  1.6371  0.0197  0.8877
15159SOL     OW46054   7.094   5.026   1.307  0.3008  0.2823  0.5320
15159SOL    HW146055   7.053   4.962   1.366 -0.3396  0.7073  0.5611
15159SOL    HW246056   7.140   4.972   1.242 -0.5075 -0.2259  0.3552
15160SOL     OW46057   1.644   2.133   2.037  0.3340  0.0056 -0.0317
15160SOL    HW146058   1.592   2.129   1.957  0.0151  2.0136  0.0412
15160SOL    HW246059   1.582   2.117   2.108  0.9167 -3.7196 -0.1482
15161SOL     OW46060   1.276   9.641   0.454  0.0634  0.0584 -0.1828
15161SOL    HW146061   1.358   9.688   0.443  0.1367  0.7003  2.4255
15161SOL    HW246062   1.302   9.553   0.482 -0.1361 -0.6229 -2.0241
15162SOL     OW46063   2.116   6.732   4.055  0.0665  0.1819  0.0434
15162SOL    HW146064   2.035   6.682   4.071  0.1383  0.5313  1.6631
15162SOL    HW246065   2.114   6.802   4.121  0.7220  1.4008 -1.1955
15163SOL     OW46066   9.391   1.506   5.327  0.1262 -0.8521  0.3917
15163SOL    HW146067   9.381   1.588   5.279  1.1505 -0.7284  0.3783
15163SOL    HW246068   9.321   1.508   5.392 -0.4892 -0.4428 -0.2694
15164SOL     OW46069   0.676   6.436   5.936 -0.2697  0.7512 -0.3695
15164SOL    HW146070   0.690   6.376   6.009 -0.0102  0.3873 -0.7216
15164SOL    HW246071   0.740   6.506   5.950  1.0956 -0.2867 -1.2999
15165SOL     OW46072   7.013   4.580   9.452 -0.1521 -0.6207 -0.0741
15165SOL    HW146073   7.037   4.652   9.393 -1.0823  1.0427  1.4794
15165SOL    HW246074   7.085   4.577   9.516 -0.5410 -0.4903  0.3719
15166SOL     OW46075   4.404   6.230   3.217  0.3363  0.5882  0.1003
15166SOL    HW146076   4.460   6.153   3.227  0.3412  0.5884  0.0761
15166SOL    HW246077   4.322   6.195   3.183 -0.3462  0.3445  1.9212
15167SOL     OW46078   8.882   2.472   3.336  0.0612 -0.5220  0.2473
15167SOL    HW146079   8.932   2.402   3.378 -0.4165 -0.4766  0.9047
15167SOL    HW246080   8.815   2.495   3.400 -0.0910  0.2017 -0.1655
15168SOL     OW46081   6.103   5.622   9.860  0.2227 -0.1678 -0.7190
15168SOL    HW146082   6.077   5.711   9.886 -0.4358 -0.9326  1.4105
15168SOL    HW246083   6.174   5.636   9.797  0.3190  1.8694 -0.2397
15169SOL     OW46084   8.016   1.627   3.437  0.5483 -0.1696 -0.4000
15169SOL    HW146085   8.061   1.711   3.434  1.6083 -0.6949  0.2042
15169SOL    HW246086   8.050   1.584   3.516  1.4481 -1.9269 -1.6647
15170SOL     OW46087   2.446   3.482   0.890 -0.2525  0.0747  1.0244
15170SOL    HW146088   2.431   3.421   0.961  0.2870  0.6477  1.6520
15170SOL    HW246089   2.457   3.567   0.933  1.3742  0.2306  0.3877
15171SOL     OW46090   6.891   8.936   2.115 -0.1287  0.0816  0.2734
15171SOL    HW146091   6.965   8.875   2.121  1.1369  1.6337  1.5184
15171SOL    HW246092   6.814   8.880   2.106  1.1635 -1.5975 -1.0506
15172SOL     OW46093   3.592   5.770   1.366  0.0837  0.2974 -1.0539
15172SOL    HW146094   3.635   5.776   1.280 -0.9150  0.3003 -1.5677
15172SOL    HW246095   3.507   5.812   1.353  0.4925  1.6617  0.3421
15173SOL     OW46096   5.897   8.194   4.073 -0.0614  0.1343 -0.1526
15173SOL    HW146097   5.806   8.221   4.066  0.5141  2.1017 -0.7195
15173SOL    HW246098   5.910   8.132   4.001 -0.9597 -0.2600  0.0114
15174SOL     OW46099   7.627   6.700   0.748 -0.5901 -0.6679  0.4764
15174SOL    HW146100   7.556   6.650   0.708 -1.3401 -0.8402  1.9402
15174SOL    HW246101   7.605   6.791   0.732 -0.1297 -0.7521 -0.7059
15175SOL     OW46102   3.427   5.656   7.177 -0.1105 -0.7430 -0.2161
15175SOL    HW146103   3.367   5.649   7.251 -1.1435 -1.0704 -1.0514
15175SOL    HW246104   3.420   5.571   7.133  0.4139 -0.5247 -0.7318
15176SOL     OW46105   9.696   1.494   1.476  0.0862 -0.1465 -0.2875
15176SOL    HW146106   9.670   1.577   1.437  0.0613  1.3823  2.6976
15176SOL    HW246107   9.686   1.507   1.570  4.4486 -1.9295  0.6835
15177SOL     OW46108   3.439   0.123   4.584 -0.1153  0.5611 -0.7594
15177SOL    HW146109   3.344   0.111   4.590  0.1824 -1.7800  0.4922
15177SOL    HW246110   3.463   0.168   4.665  0.2685 -3.0669  1.3669
15178SOL     OW46111   2.129   1.601   3.895  0.0496  0.1528  0.1240
15178SOL    HW146112   2.197   1.539   3.921  0.9942  0.2582 -1.8779
15178SOL    HW246113   2.059   1.590   3.960  0.8454 -1.8746  0.6932
15179SOL     OW46114   1.437   5.367   5.523  0.6070  0.0955 -0.1298
15179SOL    HW146115   1.406   5.342   5.610  0.8723 -0.2279 -0.1255
15179SOL    HW246116   1.475   5.287   5.487  2.4067  0.7130  0.2875
15180SOL     OW46117   6.678   1.564   0.413 -0.4545  0.3634  0.5809
15180SOL    HW146118   6.616   1.493   0.394  0.0907 -0.3743  1.4357
15180SOL    HW246119   6.732   1.571   0.334 -0.9193  0.2486  0.2521
15181SOL     OW46120   1.706   0.117   5.980 -0.4445  0.2778  0.3882
15181SOL    HW146121   1.754   0.112   6.062  1.7227 -0.3813 -0.8359
15181SOL    HW246122   1.765   0.079   5.915 -1.7288  1.5078 -1.6214
15182SOL     OW46123   7.287   7.610   5.561  0.2141  0.3845  0.5705
15182SOL    HW146124   7.231   7.682   5.590 -1.1802  0.3244 -1.7157
15182SOL    HW246125   7.249   7.532   5.602 -0.4774  0.5355  0.2280
15183SOL     OW46126   1.381   9.451   2.776 -0.7275  0.2523 -0.4781
15183SOL    HW146127   1.445   9.383   2.799 -2.9788 -1.6745  0.5194
15183SOL    HW246128   1.410   9.528   2.824  1.0529 -0.4394 -0.3628
15184SOL     OW46129   7.006   2.393   4.784 -0.7713  0.6728  0.2852
15184SOL    HW146130   6.919   2.377   4.820 -0.1314 -0.0186  1.6251
15184SOL    HW246131   6.991   2.423   4.695 -2.3310 -1.5175 -0.2635
15185SOL     OW46132   4.401   9.250   4.489 -0.0167 -0.4758 -0.2371
15185SOL    HW146133   4.410   9.198   4.568 -0.1238  1.8074  1.3842
15185SOL    HW246134   4.491   9.274   4.465 -0.0948  1.2837  1.0168
15186SOL     OW46135   4.988  -0.007   8.665  0.3869 -0.2405  1.0653
15186SOL    HW146136   5.069   0.043   8.675 -0.0959  1.0046 -0.8458
15186SOL    HW246137   4.920   0.052   8.698  0.0163 -0.4217  0.6212
15187SOL     OW46138   1.753   9.409   1.315  0.1785 -0.3993 -0.2667
15187SOL    HW146139   1.759   9.501   1.292 -0.2208  0.0867  1.4545
15187SOL    HW246140   1.836   9.389   1.358 -0.6105 -0.1717  1.4701
15188SOL     OW46141   5.405   1.164   6.327 -0.0649  0.2886 -0.3949
15188SOL    HW146142   5.478   1.196   6.380  0.4006  0.1885 -0.9611
15188SOL    HW246143   5.386   1.236   6.266 -0.1075  0.1249 -0.5764
15189SOL     OW46144   2.548   2.646   0.561 -0.5759  0.0477  0.1161
15189SOL    HW146145   2.519   2.692   0.639 -2.0453  0.3207 -0.5480
15189SOL    HW246146   2.538   2.710   0.490  1.2181 -0.0205 -0.2587
15190SOL     OW46147   3.712   4.860   5.142  0.0961 -0.0925  0.7358
15190SOL    HW146148   3.720   4.905   5.227 -0.9875  0.3035  0.6388
15190SOL    HW246149   3.710   4.767   5.164  2.0923 -0.1279  0.9606
15191SOL     OW46150   4.149   2.379   9.949 -0.4664  0.4734  0.2969
15191SOL    HW146151   4.117   2.366  10.038  0.6364 -0.1775  0.6132
15191SOL    HW246152   4.167   2.291   9.917 -0.1801  0.7506 -0.3183
15192SOL     OW46153   7.368   6.137   0.331 -0.3462 -0.2400  0.0610
15192SOL    HW146154   7.452   6.104   0.363  0.0472  2.2337  1.9074
15192SOL    HW246155   7.359   6.098   0.244  1.5561 -2.4339  0.7284
15193SOL     OW46156   6.842   8.131   3.274 -0.4526  0.5397  0.0137
15193SOL    HW146157   6.866   8.085   3.354 -1.9687  1.4390  1.0442
15193SOL    HW246158   6.798   8.065   3.220 -0.1979  0.1344  0.3029
15194SOL     OW46159   1.252   6.100   9.940 -0.7229  0.4177 -0.8344
15194SOL    HW146160   1.294   6.040  10.002 -0.8782  1.8643  0.7592
15194SOL    HW246161   1.234   6.046   9.863  1.6141 -0.8931 -0.5590
15195SOL     OW46162   0.346   9.076   9.011  0.3970  0.0433 -0.3047
15195SOL    HW146163   0.259   9.041   8.990  0.5871 -0.1006 -0.8715
15195SOL    HW246164   0.391   9.003   9.054  0.7889 -0.4334 -1.4734
15196SOL     OW46165   6.019   7.832   6.120 -0.1556 -0.0372 -0.6303
15196SOL    HW146166   5.936   7.854   6.162  0.2335  0.9082 -0.3354
15196SOL    HW246167   6.003   7.842   6.026 -0.1965  0.7880 -0.5405
15197SOL     OW46168   4.785   0.140   6.102  0.4607 -0.2665  0.2173
15197SOL    HW146169   4.700   0.178   6.078  0.7555 -0.6309 -1.5650
15197SOL    HW246170   4.846   0.177   6.038  1.4773 -0.7084  0.9158
15198SOL     OW46171   8.077   9.090   7.959  0.3999  0.3599  0.1003
15198SOL    HW146172   8.130   9.033   8.014 -1.0934 -1.7280 -0.4673
15198SOL    HW246173   8.097   9.062   7.870 -0.2686  0.8203 -0.2014
15199SOL     OW46174   4.780   3.759   7.401  0.4435  0.2800 -0.2466
15199SOL    HW146175   4.716   3.714   7.457 -1.6654 -0.1304 -2.7823
15199SOL    HW246176   4.824   3.688   7.354  0.8523  0.6600 -0.4400
15200SOL     OW46177   4.880   6.009   9.446 -0.1595 -0.1484  0.7486
15200SOL    HW146178   4.887   5.940   9.512  2.3594 -0.7024 -0.0229
15200SOL    HW246179   4.943   5.985   9.378 -0.1626  2.2297 -0.1936
15201SOL     OW46180   3.791   4.107   5.031  0.1680  0.6537 -0.0743
15201SOL    HW146181   3.872   4.072   5.068  0.4720  1.0552 -0.3648
15201SOL    HW246182   3.724   4.045   5.060  0.5034  0.5875  0.5765
15202SOL     OW46183   2.909   9.837   6.744  0.2912 -0.0785  0.3421
15202SOL    HW146184   2.958   9.796   6.673  0.0247 -0.7506  0.5450
15202SOL    HW246185   2.829   9.786   6.751  0.1916  0.1533  0.9461
15203SOL     OW46186   8.434   2.995   3.992 -0.2807  1.1548 -0.0125
15203SOL    HW146187   8.524   2.972   3.969 -0.2841  0.5121  0.5651
15203SOL    HW246188   8.422   3.084   3.960  0.5620  1.2360 -0.1053
15204SOL     OW46189   3.729   9.747   9.782  0.2505 -0.2932  0.3107
15204SOL    HW146190   3.661   9.683   9.762 -0.8895  1.1477 -0.6476
15204SOL    HW246191   3.802   9.695   9.815 -0.5720 -2.0896 -0.5551
15205SOL     OW46192   5.239   1.616   5.701  0.0655 -0.4161 -0.0793
15205SOL    HW146193   5.178   1.545   5.684 -2.2288  1.5194 -0.5267
15205SOL    HW246194   5.223   1.641   5.792 -0.1547  0.3839 -0.3268
15206SOL     OW46195   1.320   5.002   5.009  0.3035 -0.2277 -0.3077
15206SOL    HW146196   1.353   5.086   4.976 -1.2116  1.0212  1.1950
15206SOL    HW246197   1.291   4.956   4.931  1.0086  0.6931 -1.1538
15207SOL     OW46198   2.179   1.327   9.234 -0.0517 -0.7114  0.5585
15207SOL    HW146199   2.115   1.364   9.173 -0.4309  0.3269  1.5400
15207SOL    HW246200   2.187   1.393   9.303 -0.4307 -2.2799  2.1914
15208SOL     OW46201   4.497   3.269   6.080  0.3968  0.6047  0.2938
15208SOL    HW146202   4.480   3.176   6.094 -0.3848  0.7462  0.3661
15208SOL    HW246203   4.410   3.310   6.088  0.5661  1.2024 -0.7555
15209SOL     OW46204   6.912   8.376   1.934 -0.3149  0.0179 -0.3681
15209SOL    HW146205   6.936   8.464   1.961 -0.8074  0.0024  0.1523
15209SOL    HW246206   6.943   8.319   2.004  0.2154 -0.2508 -0.8167
15210SOL     OW46207   5.017   1.054   0.059  0.5107  0.3892  0.1865
15210SOL    HW146208   4.996   1.147   0.064 -0.1464  0.3294 -1.0799
15210SOL    HW246209   4.953   1.012   0.117 -0.9554  0.5125 -1.2499
15211SOL     OW46210   6.505   6.014   1.235  0.0986 -0.4185 -0.3336
15211SOL    HW146211   6.444   5.970   1.296  1.3397  1.2772  2.3099
15211SOL    HW246212   6.459   6.012   1.151 -2.6504 -1.1174  1.0458
15212SOL     OW46213   4.249   2.430   1.028  0.0854  0.4299  0.2172
15212SOL    HW146214   4.284   2.423   1.117 -0.3778  2.0503  0.5654
15212SOL    HW246215   4.171   2.484   1.038 -0.3948 -0.0169 -1.0757
15213SOL     OW46216   7.274   4.697   0.449  0.2605 -0.6709  0.1316
15213SOL    HW146217   7.241   4.750   0.376 -0.2239  2.2701  2.3184
15213SOL    HW246218   7.364   4.676   0.424  0.6644  1.7037 -0.6701
15214SOL     OW46219   5.324   6.364   6.272 -0.0243  0.0159 -0.3693
15214SOL    HW146220   5.329   6.356   6.177  2.0196 -1.7953 -0.1790
15214SOL    HW246221   5.287   6.280   6.301  0.8498 -0.0907  0.4967
15215SOL     OW46222   3.043   6.719   8.032  0.6896 -0.3907 -0.3495
15215SOL    HW146223   2.977   6.653   8.049  1.5512 -1.4376 -0.9373
15215SOL    HW246224   3.097   6.721   8.111  1.1879 -1.0408 -0.6636
15216SOL     OW46225   0.563   9.743   8.785 -0.2894  0.7070  0.5924
15216SOL    HW146226   0.611   9.820   8.814 -0.1028  0.4503  0.9658
15216SOL    HW246227   0.628   9.673   8.781 -0.3075  0.7328 -0.4530
15217SOL     OW46228   7.874   0.404   7.513  0.2526  0.2654 -0.0236
15217SOL    HW146229   7.856   0.461   7.587  0.0685 -0.0580  0.1808
15217SOL    HW246230   7.792   0.358   7.496  0.5154 -0.2587  0.0904
15218SOL     OW46231   9.918   1.116   7.718  0.1124  0.3523 -0.3353
15218SOL    HW146232   9.990   1.091   7.659  1.4948  0.1544  1.3534
15218SOL    HW246233   9.926   1.055   7.791 -1.5458  0.6127  0.0919
15219SOL     OW46234   7.897   6.666   9.520 -0.1677  0.4043  0.1457
15219SOL    HW146235   7.836   6.632   9.586 -1.2367  0.6459 -0.6775
15219SOL    HW246236   7.844   6.671   9.440  0.3927  2.4820 -0.1522
15220SOL     OW46237   7.530   5.863   7.580  0.0217 -0.1706 -0.0539
15220SOL    HW146238   7.443   5.870   7.620 -0.2048 -0.1678 -0.5342
15220SOL    HW246239   7.515   5.808   7.503  0.4317 -0.0891 -0.1890
15221SOL     OW46240   0.425   5.325   9.545 -0.4225  0.1473  0.5567
15221SOL    HW146241   0.426   5.243   9.594 -0.4113 -0.4418 -0.3986
15221SOL    HW246242   0.517   5.344   9.527 -0.4199  0.4157  0.8367
15222SOL     OW46243   4.270   9.452   6.228  0.3538 -0.1812 -0.2426
15222SOL    HW146244   4.336   9.471   6.294 -0.7448 -1.2473  1.2242
15222SOL    HW246245   4.247   9.538   6.192  3.1285  0.1500 -1.4589
15223SOL     OW46246   4.489   2.761   0.138  0.0643 -0.0777  0.1400
15223SOL    HW146247   4.430   2.762   0.214  0.4660  0.7051  0.4479
15223SOL    HW246248   4.576   2.773   0.175  0.4788 -1.5598 -0.2845
15224SOL     OW46249   1.914   2.697   8.607 -1.0244  0.1117  0.4845
15224SOL    HW146250   1.967   2.771   8.579  0.9598 -0.4117  2.6370
15224SOL    HW246251   1.905   2.706   8.701 -0.7477 -2.3353  0.8281
15225SOL     OW46252   8.371   5.138   2.948  0.0035 -0.1173 -0.2704
15225SOL    HW146253   8.400   5.229   2.958  0.2086 -0.2246  0.1302
15225SOL    HW246254   8.371   5.103   3.037 -3.9755  0.6642  0.2446
15226SOL     OW46255   5.878   8.588   4.295  0.2719  0.5146  0.0909
15226SOL    HW146256   5.879   8.673   4.340  0.5400  0.5053  0.1021
15226SOL    HW246257   5.970   8.569   4.278  0.1186  1.4613 -2.2189
15227SOL     OW46258   3.874   0.789   5.444 -0.5734 -0.4819  0.0018
15227SOL    HW146259   3.901   0.729   5.514 -2.1556 -1.0163  0.2034
15227SOL    HW246260   3.924   0.762   5.368  0.6434 -0.3641  0.7229
15228SOL     OW46261   6.134   8.156   5.894 -0.3832  0.2767  0.0849
15228SOL    HW146262   6.038   8.162   5.887 -0.3107  1.1310 -0.2743
15228SOL    HW246263   6.151   8.153   5.988 -0.6825  1.8885  0.2201
15229SOL     OW46264   7.390   4.405   8.892 -0.8716  0.3670 -0.2909
15229SOL    HW146265   7.460   4.397   8.828 -0.1083 -2.0052  0.7456
15229SOL    HW246266   7.357   4.316   8.904 -1.5377  0.8509  1.9803
15230SOL     OW46267   6.115   8.287   7.497  0.3953  0.2012  0.6809
15230SOL    HW146268   6.207   8.268   7.482  0.9063  2.0816  1.1215
15230SOL    HW246269   6.072   8.266   7.414  1.8156  2.5734 -0.7887
15231SOL     OW46270   5.897   1.402   0.165  0.5739 -0.3277 -0.3244
15231SOL    HW146271   5.834   1.451   0.219  0.4703 -1.2416  0.4203
15231SOL    HW246272   5.976   1.456   0.166 -0.1797  0.8342 -1.2626
15232SOL     OW46273   6.772   7.540   2.987 -0.2569  0.4105 -0.0588
15232SOL    HW146274   6.682   7.524   3.018 -0.1803 -0.7096 -0.3447
15232SOL    HW246275   6.763   7.609   2.922 -0.8985  0.3918 -0.0012
15233SOL     OW46276   1.239   4.517   5.296  0.0508  0.0200  0.3160
15233SOL    HW146277   1.192   4.523   5.212 -1.4189 -0.9816  1.0298
15233SOL    HW246278   1.311   4.456   5.278  1.1712  1.5779 -0.7942
15234SOL     OW46279   4.038   0.445   3.899  0.0120 -0.5219 -0.2032
15234SOL    HW146280   3.967   0.485   3.950 -0.4304  0.7489 -1.7486
15234SOL    HW246281   4.017   0.467   3.808  2.6689  0.3553 -0.6826
15235SOL     OW46282   7.451   3.384   9.847 -0.2622 -0.1982  0.2169
15235SOL    HW146283   7.444   3.440   9.924 -1.0974  0.8931 -0.6303
15235SOL    HW246284   7.540   3.398   9.814 -0.4023  0.4778  0.1278
15236SOL     OW46285   6.134   0.471   7.173 -0.4679  0.0784  0.1094
15236SOL    HW146286   6.209   0.465   7.233  1.8971  1.4565 -2.4614
15236SOL    HW246287   6.120   0.381   7.143  1.3700  0.0079 -0.6597
15237SOL     OW46288   4.793   8.406   8.011 -0.2153 -0.1512 -0.2624
15237SOL    HW146289   4.719   8.458   8.043  0.1238  0.1520  0.0421
15237SOL    HW246290   4.800   8.430   7.918  0.0463  0.4836 -0.0854
15238SOL     OW46291   0.376   5.552   3.010 -0.6603 -0.2119 -0.7234
15238SOL    HW146292   0.325   5.493   2.954  1.2038 -2.2344 -0.4386
15238SOL    HW246293   0.448   5.581   2.954 -0.2323 -0.1633 -0.1595
15239SOL     OW46294   3.624   1.811   8.964 -0.8393  0.2494 -0.4296
15239SOL    HW146295   3.707   1.854   8.947 -0.4649 -0.0077  0.6701
15239SOL    HW246296   3.648   1.723   8.994 -1.5568 -0.3775 -1.6000
15240SOL     OW46297   1.975   6.153   0.098  0.3671  0.2445  0.4286
15240SOL    HW146298   1.916   6.209   0.047  1.5151 -0.4663 -1.8297
15240SOL    HW246299   1.992   6.202   0.178  0.8714  2.9174 -1.1969
15241SOL     OW46300   0.883   7.512   1.140  0.2625  0.1997  0.0273
15241SOL    HW146301   0.933   7.538   1.062 -1.2076 -1.5811 -1.6040
15241SOL    HW246302   0.826   7.586   1.159  0.9602  0.8252 -0.2863
15242SOL     OW46303   1.928   7.102   0.947  0.3046 -0.2311  0.8768
15242SOL    HW146304   2.017   7.114   0.978  0.4379 -0.7629  0.7091
15242SOL    HW246305   1.874   7.149   1.010  0.7667  0.8405  0.4936
15243SOL     OW46306   0.993   0.573   7.415  0.4686 -0.0684  0.0227
15243SOL    HW146307   1.003   0.648   7.356 -2.0241  0.9341  0.7511
15243SOL    HW246308   0.918   0.525   7.380  0.9649 -1.2744  0.5616
15244SOL     OW46309   7.301   9.819   1.222  0.1676  0.3834  0.1222
15244SOL    HW146310   7.279   9.896   1.275  1.8501 -0.0808  1.5908
15244SOL    HW246311   7.377   9.782   1.265  0.0496 -1.5087 -1.1967
15245SOL     OW46312   6.015   9.747   5.414 -0.1725 -0.2276  0.9477
15245SOL    HW146313   6.003   9.809   5.342  1.2153 -1.2362 -0.2382
15245SOL    HW246314   5.929   9.737   5.453 -0.8533  0.7645 -0.2487
15246SOL     OW46315   1.033   4.626   6.855 -0.6675 -0.3264  0.0620
15246SOL    HW146316   0.948   4.652   6.891  0.3092  1.2279  1.4100
15246SOL    HW246317   1.046   4.683   6.779 -0.5958 -0.1500  0.2044
15247SOL     OW46318   0.708   0.496   7.175  0.2568  0.2364  0.5098
15247SOL    HW146319   0.648   0.539   7.114 -0.0591 -0.0376  0.6248
15247SOL    HW246320   0.789   0.487   7.125 -0.0319 -0.0836  0.0879
15248SOL     OW46321   4.882   2.514   7.489  0.4671  0.0110 -0.2927
15248SOL    HW146322   4.796   2.541   7.458  0.2869 -0.8439 -0.5598
15248SOL    HW246323   4.940   2.587   7.465 -0.1031  0.4055 -0.4857
15249SOL     OW46324   6.886   9.648   4.620 -0.0946  0.5815  0.2857
15249SOL    HW146325   6.899   9.555   4.599 -0.3408  0.4099  0.8569
15249SOL    HW246326   6.929   9.659   4.705  0.8724  1.2532 -0.2710
15250SOL     OW46327   8.233   2.776   6.369  0.0632 -0.4167 -0.2612
15250SOL    HW146328   8.158   2.810   6.321 -0.6571  1.4487  2.0279
15250SOL    HW246329   8.309   2.819   6.330 -0.5285  1.2430  0.3624
15251SOL     OW46330   9.604   8.977   2.950  0.4570  0.3617 -0.8700
15251SOL    HW146331   9.512   8.957   2.938  0.4632 -0.2140 -0.0197
15251SOL    HW246332   9.607   9.031   3.029  1.0125 -1.2312  0.2484
15252SOL     OW46333   6.893   0.715   8.481 -0.5783 -0.0120 -0.2315
15252SOL    HW146334   6.811   0.685   8.442 -0.4464 -1.9249  0.8142
15252SOL    HW246335   6.934   0.635   8.514  0.5792  1.1713  1.3730
15253SOL     OW46336   4.031   7.354   5.442  0.6385  0.1008 -0.2241
15253SOL    HW146337   4.026   7.259   5.432 -0.5143  0.1167  0.0384
15253SOL    HW246338   4.029   7.388   5.353  1.9334 -0.1308 -0.3655
15254SOL     OW46339   7.949   8.905   6.628  0.1254 -0.3031 -0.0712
15254SOL    HW146340   8.012   8.930   6.695 -0.6926 -0.6400  0.8444
15254SOL    HW246341   7.892   8.981   6.618 -1.8497 -1.4080  2.1152
15255SOL     OW46342   6.624   7.527   1.877 -0.3958  0.3905  0.6348
15255SOL    HW146343   6.583   7.554   1.795 -1.4573  1.2016  1.4086
15255SOL    HW246344   6.600   7.436   1.887  0.5407  0.0014 -0.4094
15256SOL     OW46345   5.290   2.013   2.376  0.4908 -0.1171  0.3448
15256SOL    HW146346   5.335   2.097   2.380 -1.8099  1.3176 -1.2165
15256SOL    HW246347   5.314   1.976   2.291 -1.0241  0.5962 -0.4404
15257SOL     OW46348   2.828   0.442   4.861 -0.3021  0.6429  0.2209
15257SOL    HW146349   2.868   0.386   4.928  0.2819  1.4393  0.5533
15257SOL    HW246350   2.763   0.386   4.819  0.3848 -0.3296  0.4319
15258SOL     OW46351   2.570   5.358   4.591 -0.6944 -0.2095  0.3130
15258SOL    HW146352   2.534   5.342   4.504  2.4132 -1.5016 -0.8520
15258SOL    HW246353   2.514   5.307   4.650 -1.7545 -0.7690 -1.1198
15259SOL     OW46354   0.591   0.494   2.597 -0.2381 -0.4146  0.2450
15259SOL    HW146355   0.507   0.504   2.643  0.5472 -0.7107  1.8242
15259SOL    HW246356   0.574   0.525   2.509 -1.4212  1.7591  1.1635
15260SOL     OW46357   4.922   6.398   4.993  0.2479  0.0328  0.3150
15260SOL    HW146358   4.864   6.334   4.953 -0.1621 -0.2963  1.3940
15260SOL    HW246359   4.880   6.420   5.076 -0.2102  2.5962 -0.5187
15261SOL     OW46360   3.810   9.414   2.980  0.5221 -0.1439 -0.0341
15261SOL    HW146361   3.865   9.444   2.908 -0.1013  0.3571 -0.3097
15261SOL    HW246362   3.721   9.440   2.955  0.4135  0.9346  1.3816
15262SOL     OW46363   6.599   9.637   9.522  0.4297  0.4485 -0.4065
15262SOL    HW146364   6.565   9.624   9.434  0.4134  0.6096 -0.4234
15262SOL    HW246365   6.648   9.719   9.518 -1.5348  1.7183  0.3118
15263SOL     OW46366   5.228   5.672   7.855  0.5332 -0.4281  0.1830
15263SOL    HW146367   5.251   5.648   7.944  1.8869  0.5567  0.1331
15263SOL    HW246368   5.191   5.760   7.863  0.5970 -0.3623 -0.2110
15264SOL     OW46369   1.955   2.383   5.860 -0.2356  0.5158  0.1886
15264SOL    HW146370   1.896   2.446   5.901 -1.3233  0.0990 -0.6864
15264SOL    HW246371   1.913   2.361   5.777  1.5104  0.7462 -0.8142
15265SOL     OW46372   5.859   9.095   0.486  0.3462  0.1653 -0.0094
15265SOL    HW146373   5.860   9.177   0.437  1.9374 -0.5533 -1.2839
15265SOL    HW246374   5.902   9.115   0.569  3.9569 -0.0376 -1.6617
15266SOL     OW46375   8.125   0.897   2.209  0.2786  0.0704 -0.2378
15266SOL    HW146376   8.175   0.973   2.242 -0.7242  0.5613  0.1932
15266SOL    HW246377   8.152   0.889   2.118 -0.4128  1.6684 -0.6257
15267SOL     OW46378   3.760   6.250   2.646 -0.7376 -0.2708  0.7428
15267SOL    HW146379   3.802   6.279   2.565 -4.0640 -0.0228 -1.0924
15267SOL    HW246380   3.797   6.307   2.714 -0.6059  2.2621 -1.2754
15268SOL     OW46381   5.431   8.228   9.673 -0.3401 -0.2883  0.2691
15268SOL    HW146382   5.415   8.298   9.609  0.2641  2.1452  2.5780
15268SOL    HW246383   5.355   8.231   9.731 -0.3599 -1.6708  0.3358
15269SOL     OW46384   4.357   5.872   5.781  0.8107  0.4078  0.0490
15269SOL    HW146385   4.349   5.777   5.771 -0.8360  0.7144 -2.6349
15269SOL    HW246386   4.342   5.888   5.874 -2.0243 -1.7872  0.1144
15270SOL     OW46387   3.887   9.905   9.182  0.2370  0.1566 -0.4807
15270SOL    HW146388   3.809   9.853   9.159  0.2658 -0.7203  1.2690
15270SOL    HW246389   3.870   9.936   9.271  1.0699  1.6023 -0.7902
15271SOL     OW46390   7.258   6.686   6.380 -0.3777  0.3934  0.3476
15271SOL    HW146391   7.181   6.737   6.354  0.0548  0.1761 -1.4802
15271SOL    HW246392   7.298   6.659   6.297  0.7878 -0.8325  1.2695
15272SOL     OW46393   0.443   2.927   0.206 -0.1308 -0.3667  0.7027
15272SOL    HW146394   0.398   2.844   0.224  0.5226 -1.0037 -0.4788
15272SOL    HW246395   0.478   2.953   0.291 -0.7757 -1.0340  1.1913
15273SOL     OW46396   3.779   3.139   0.981 -0.1372  0.5208 -0.1412
15273SOL    HW146397   3.781   3.092   0.897  0.0513 -0.4266  0.3783
15273SOL    HW246398   3.870   3.146   1.007 -0.2170  0.4843  0.1569
15274SOL     OW46399   0.677   2.744   1.070  0.3297  0.3106 -0.3907
15274SOL    HW146400   0.727   2.687   1.128  0.5271  1.4293  0.5917
15274SOL    HW246401   0.590   2.705   1.067  0.9909 -1.1552 -1.3943
15275SOL     OW46402   8.889   4.384   8.747 -0.1027 -0.0291 -0.1579
15275SOL    HW146403   8.899   4.427   8.832  1.2339 -1.1840  0.2949
15275SOL    HW246404   8.921   4.449   8.684 -2.2742  1.3286  0.0445
15276SOL     OW46405   8.211   7.948   6.992 -0.1019  0.4168 -0.6655
15276SOL    HW146406   8.292   7.898   6.997 -0.4623 -0.0832  0.3755
15276SOL    HW246407   8.180   7.934   6.902  0.1184 -0.7151 -0.5776
15277SOL     OW46408   3.339   5.793   6.433  0.1625  0.0466  0.1405
15277SOL    HW146409   3.244   5.783   6.434  0.2316 -0.6177  0.1582
15277SOL    HW246410   3.372   5.709   6.464  0.7106  1.0317  2.3879
15278SOL     OW46411   1.628   3.155   5.798 -0.4661  0.6633 -0.3675
15278SOL    HW146412   1.596   3.095   5.731 -1.6524  0.8550  0.0047
15278SOL    HW246413   1.711   3.187   5.763 -1.0494  0.7665 -1.7581
15279SOL     OW46414   3.071   6.172   4.231  0.4843 -0.2165 -0.5048
15279SOL    HW146415   3.083   6.136   4.143 -0.1108 -1.3780 -0.1279
15279SOL    HW246416   3.125   6.116   4.288  0.7050  0.3981 -0.0916
15280SOL     OW46417   4.781   3.378   0.876 -0.1005 -0.2977 -0.6313
15280SOL    HW146418   4.702   3.327   0.891 -0.2425 -0.0822 -0.6455
15280SOL    HW246419   4.762   3.463   0.914  0.5838 -0.6303  0.4918
15281SOL     OW46420   7.496   4.872   1.185 -0.3248  0.4330  0.7502
15281SOL    HW146421   7.497   4.890   1.091 -3.0619 -2.0518  0.0763
15281SOL    HW246422   7.582   4.835   1.204 -1.2487 -3.9054 -2.0841
15282SOL     OW46423   8.856   0.939   4.764 -0.3905  0.1145 -0.4167
15282SOL    HW146424   8.774   0.955   4.811 -0.1520 -2.2602  0.9735
15282SOL    HW246425   8.923   0.940   4.832  0.2691 -1.1744 -1.0108
15283SOL     OW46426   1.044   2.376   9.388  0.1604 -0.3869  0.5192
15283SOL    HW146427   0.988   2.416   9.322 -0.6056 -0.4086  1.1363
15283SOL    HW246428   1.078   2.297   9.346  0.8080  0.3238 -0.3216
15284SOL     OW46429   8.295   0.445   1.397 -0.3513  0.0218 -0.0790
15284SOL    HW146430   8.266   0.390   1.324 -0.2640 -1.3991  0.9195
15284SOL    HW246431   8.229   0.431   1.465  0.5254 -0.0770  0.7631
15285SOL     OW46432   1.895   5.263   3.871  0.0795  0.4326  0.1614
15285SOL    HW146433   1.826   5.267   3.937  0.8480 -0.3439  1.0330
15285SOL    HW246434   1.910   5.170   3.857  1.4294  0.5768  0.5127
15286SOL     OW46435   9.631   2.737   8.568  0.0743 -0.1010  0.3881
15286SOL    HW146436   9.688   2.691   8.506 -0.4466 -0.5624  0.2462
15286SOL    HW246437   9.623   2.676   8.642  1.1435  0.6715  1.1767
15287SOL     OW46438   8.118   2.596   2.337  0.0128 -0.0254 -0.1058
15287SOL    HW146439   8.158   2.676   2.302 -2.7837  1.4463 -0.2369
15287SOL    HW246440   8.100   2.542   2.260 -0.6534  0.5083 -0.3333
15288SOL     OW46441   0.443   2.648   3.670  1.2389 -0.0897 -0.0255
15288SOL    HW146442   0.400   2.729   3.699 -0.7546 -0.7204 -1.0279
15288SOL    HW246443   0.397   2.578   3.716  2.8356 -0.7093  0.7042
15289SOL     OW46444   8.337   7.977   2.492  0.7852  0.3743  0.7885
15289SOL    HW146445   8.276   7.909   2.520 -0.1851  0.6106 -0.6474
15289SOL    HW246446   8.414   7.928   2.463  1.4499  0.0914  2.8675
15290SOL     OW46447   5.411   4.080   7.455  0.3922  1.0390 -0.7059
15290SOL    HW146448   5.442   4.114   7.371  0.5383  0.0984 -1.0524
15290SOL    HW246449   5.323   4.116   7.465  1.0832  2.7080 -0.3248
15291SOL     OW46450   9.352   5.897   5.994  0.2251  0.5386 -0.1356
15291SOL    HW146451   9.296   5.846   5.937 -0.7987  1.9393 -0.4262
15291SOL    HW246452   9.398   5.832   6.048 -1.4034 -0.6532 -0.1326
15292SOL     OW46453   4.768   6.826   3.666  0.1857 -0.2695 -0.0606
15292SOL    HW146454   4.725   6.908   3.640  1.2663  0.3784  0.1391
15292SOL    HW246455   4.861   6.841   3.648  0.5427 -1.0200  1.0778
15293SOL     OW46456   8.089   1.948   9.367  0.1986  0.0852 -0.1163
15293SOL    HW146457   8.005   1.979   9.401  0.9289  0.2663  1.6468
15293SOL    HW246458   8.138   2.028   9.345  0.0966 -0.0060 -0.6974
15294SOL     OW46459   1.555   0.845   4.217 -0.3031 -0.6767  0.3998
15294SOL    HW146460   1.532   0.891   4.298 -0.1849 -1.3110  0.8055
15294SOL    HW246461   1.651   0.848   4.215 -0.3382  0.2410 -0.2599
15295SOL     OW46462   7.544   7.491   4.207 -0.0136 -0.3474  0.1033
15295SOL    HW146463   7.592   7.558   4.159  1.8575 -1.1527  0.7647
15295SOL    HW246464   7.564   7.508   4.299 -1.6539 -0.2542  0.4794
15296SOL     OW46465   5.936   6.683   1.255  0.6449 -0.4445  0.4202
15296SOL    HW146466   5.841   6.677   1.261  0.6659 -0.2625  1.0429
15296SOL    HW246467   5.968   6.641   1.335  1.0193  0.9487  1.0426
15297SOL     OW46468   0.597   6.202   2.963 -0.4578 -0.2919  0.0891
15297SOL    HW146469   0.552   6.155   3.033  1.5369 -1.3401  0.7714
15297SOL    HW246470   0.569   6.158   2.883  0.2041 -1.6967  0.5967
15298SOL     OW46471   0.921   2.697   6.689  0.1877  0.2857  0.1300
15298SOL    HW146472   0.948   2.608   6.713  0.1699  0.9243  2.8471
15298SOL    HW246473   1.003   2.746   6.685  0.1325  0.3269 -0.5870
15299SOL     OW46474   8.113   1.227   1.466  0.2284 -0.0542 -0.9494
15299SOL    HW146475   8.201   1.264   1.460  0.1989  0.0730 -0.5970
15299SOL    HW246476   8.126   1.142   1.507 -0.0286  0.8485  1.1676
15300SOL     OW46477   2.105   2.650   8.983  0.1398 -0.2579  0.1301
15300SOL    HW146478   2.080   2.741   8.999 -0.8664 -0.6597  0.9015
15300SOL    HW246479   2.167   2.629   9.053 -2.0708 -1.1199  1.9626
15301SOL     OW46480   5.014   2.294   4.829 -0.8741  0.4496  0.9277
15301SOL    HW146481   5.042   2.356   4.897  1.6618  0.2063  0.1913
15301SOL    HW246482   4.991   2.349   4.754 -2.4438  0.6467  1.5149
15302SOL     OW46483   8.053   4.791   4.604  0.0532 -0.8696 -0.3762
15302SOL    HW146484   8.023   4.780   4.514 -0.2234 -1.6806 -0.1946
15302SOL    HW246485   7.972   4.803   4.655  0.1369 -1.4769 -0.0961
15303SOL     OW46486   8.290   0.187   1.683  0.1834  0.4349 -0.1193
15303SOL    HW146487   8.300   0.145   1.769  1.1246 -0.1937 -0.5236
15303SOL    HW246488   8.253   0.273   1.703  0.0557  0.1561  0.8892
15304SOL     OW46489   9.883   3.498   3.674 -0.0184  0.0823 -0.1359
15304SOL    HW146490   9.958   3.471   3.727  0.3909 -1.2357 -1.3332
15304SOL    HW246491   9.892   3.449   3.593 -3.0218 -1.3532  0.2703
15305SOL     OW46492   5.608  -0.006   5.268  0.3856 -0.0278 -0.3473
15305SOL    HW146493   5.543  -0.002   5.198 -0.6873  0.6695  0.6575
15305SOL    HW246494   5.640   0.084   5.276  0.3600 -0.0636  0.1824
15306SOL     OW46495   4.071   5.040   0.725  0.1764 -0.3476 -0.5568
15306SOL    HW146496   4.108   5.114   0.773  0.0399 -0.3524 -0.4414
15306SOL    HW246497   4.073   5.068   0.633 -2.3493  0.9612 -0.3217
15307SOL     OW46498   4.854   7.736   0.169 -0.8975  0.5621 -0.1174
15307SOL    HW146499   4.822   7.690   0.092  2.1294  0.5675 -1.5491
15307SOL    HW246500   4.859   7.828   0.143  1.9286  0.3364 -0.7615
15308SOL     OW46501   2.536   1.572   6.548  0.6068  0.2036 -0.1746
15308SOL    HW146502   2.446   1.573   6.580 -0.0389  0.3555 -1.8823
15308SOL    HW246503   2.589   1.605   6.622 -0.9958  2.4028  0.0904
15309SOL     OW46504   6.472   5.430   2.015 -0.6389 -0.4490  0.2045
15309SOL    HW146505   6.405   5.464   2.075 -0.8223 -0.7192  0.1580
15309SOL    HW246506   6.481   5.338   2.040 -0.5207 -0.4947 -0.0064
15310SOL     OW46507   8.104   1.686   3.136 -0.0300  0.1601  0.1471
15310SOL    HW146508   8.151   1.652   3.212  0.0284 -1.0789 -0.4083
15310SOL    HW246509   8.012   1.686   3.163 -0.2018 -1.8200 -0.2796
15311SOL     OW46510   5.366   6.392   0.592  0.0302  0.2958 -0.1196
15311SOL    HW146511   5.271   6.383   0.593 -0.0570  0.7619  2.4825
15311SOL    HW246512   5.399   6.303   0.604 -0.0720  0.1821 -0.6571
15312SOL     OW46513   8.896   5.971   8.413  0.2782 -0.1103  0.2777
15312SOL    HW146514   8.988   5.994   8.432 -0.0446  2.2503 -0.5881
15312SOL    HW246515   8.846   6.043   8.453 -0.9420  0.3895 -2.0019
15313SOL     OW46516   2.066   9.423   2.181  0.3774  0.3597 -0.1976
15313SOL    HW146517   2.104   9.491   2.236 -1.4645  0.3150  1.2453
15313SOL    HW246518   2.022   9.471   2.110  1.7188  0.4715 -0.9916
15314SOL     OW46519   4.254   1.425   7.329  0.0711  0.4153  0.6384
15314SOL    HW146520   4.260   1.518   7.306  0.6757 -0.0861 -1.4739
15314SOL    HW246521   4.338   1.406   7.372  0.7870  0.4390 -0.6982
15315SOL     OW46522   8.137   1.291   4.241 -0.1589 -0.6743  0.0842
15315SOL    HW146523   8.049   1.272   4.207 -0.6837  0.5046  0.7557
15315SOL    HW246524   8.125   1.366   4.298  1.5855  0.6292 -1.1820
15316SOL     OW46525   2.261   0.133   0.626  0.9393 -0.1427  0.0157
15316SOL    HW146526   2.351   0.121   0.595  1.2672  2.1322 -0.1273
15316SOL    HW246527   2.265   0.112   0.720  1.0880 -2.1393 -0.3958
15317SOL     OW46528   4.260   7.250   9.424 -0.0271 -0.5676 -0.2075
15317SOL    HW146529   4.293   7.176   9.374 -1.1434 -2.1768  1.3018
15317SOL    HW246530   4.310   7.249   9.505 -1.5301 -1.0901  0.7654
15318SOL     OW46531   6.404   5.033   3.118 -0.0356  0.0876  0.2961
15318SOL    HW146532   6.447   4.968   3.174 -1.2033  0.0219  1.1405
15318SOL    HW246533   6.380   4.984   3.040  2.9535  0.5015 -1.0463
15319SOL     OW46534   4.478   1.923   3.254  0.0554  0.1726 -0.3619
15319SOL    HW146535   4.524   1.952   3.175 -0.1341 -1.1748 -0.9972
15319SOL    HW246536   4.537   1.946   3.326  0.8159  0.2567 -1.0014
15320SOL     OW46537   8.117   3.145   8.255 -0.3326 -0.0739  0.1817
15320SOL    HW146538   8.056   3.092   8.306  0.0193  0.8904  1.6482
15320SOL    HW246539   8.065   3.220   8.227 -0.1121  0.1989  0.4973
15321SOL     OW46540   4.458   0.320   4.737  0.2846  0.2763 -0.4376
15321SOL    HW146541   4.478   0.253   4.671 -0.1664 -0.2487 -0.0514
15321SOL    HW246542   4.442   0.270   4.817 -0.2312  0.8375 -0.1884
15322SOL     OW46543   0.742   2.776   4.753  0.5356  0.6025 -0.2267
15322SOL    HW146544   0.761   2.869   4.747 -2.3498  1.2692 -0.6521
15322SOL    HW246545   0.742   2.758   4.847  0.2288  1.2750 -0.0910
15323SOL     OW46546   0.066   1.870   1.009 -0.1998 -0.0396 -0.0535
15323SOL    HW146547   0.054   1.853   1.102  0.2331  1.8526  0.3950
15323SOL    HW246548   0.141   1.817   0.984  0.2178  0.0919  0.8907
15324SOL     OW46549   1.764   7.126   8.964 -0.4237  0.4801 -0.2978
15324SOL    HW146550   1.795   7.187   9.031  1.0535  0.2496 -0.7195
15324SOL    HW246551   1.811   7.152   8.884 -0.4152 -0.6469 -0.6845
15325SOL     OW46552   8.910   1.247   4.894  0.0987  0.0958 -0.1940
15325SOL    HW146553   8.900   1.152   4.894  0.1893  0.0855 -0.3033
15325SOL    HW246554   8.997   1.262   4.856 -0.1363  0.2431 -0.6904
15326SOL     OW46555   4.280   8.100   9.498 -0.4951  0.5103  0.2403
15326SOL    HW146556   4.301   8.113   9.590 -0.5163  0.3707  0.2645
15326SOL    HW246557   4.340   8.032   9.469 -0.2953  0.7515  0.0786
15327SOL     OW46558   4.729   1.140   7.027 -0.0895 -0.3929  0.1622
15327SOL    HW146559   4.654   1.171   7.079 -0.1040 -0.5709  0.2487
15327SOL    HW246560   4.788   1.101   7.091  0.7869  1.0957  0.2956
15328SOL     OW46561   5.866   3.265   1.475  0.8019  0.1642  0.1920
15328SOL    HW146562   5.818   3.225   1.402 -0.8810  0.9120  0.8324
15328SOL    HW246563   5.870   3.197   1.542 -0.0822  0.3386  0.4322
15329SOL     OW46564   9.176   7.648   2.843 -0.2323 -0.2064  0.6485
15329SOL    HW146565   9.209   7.572   2.891  0.6812  0.9757  1.9988
15329SOL    HW246566   9.254   7.684   2.800 -0.7247 -0.2406 -0.2785
15330SOL     OW46567   9.220   1.206   5.602 -0.9331 -0.2628 -0.7487
15330SOL    HW146568   9.285   1.245   5.545 -0.4461 -0.0288 -0.0493
15330SOL    HW246569   9.254   1.119   5.623 -1.5746 -0.7258 -1.5729
15331SOL     OW46570   6.185   3.985   0.841  0.7357 -0.3879 -0.6867
15331SOL    HW146571   6.135   3.936   0.775 -0.4460 -2.5244  1.6534
15331SOL    HW246572   6.254   3.925   0.868  1.9503  0.9194 -0.7625
15332SOL     OW46573   8.249   6.927   0.551 -0.0279 -0.3062  0.0123
15332SOL    HW146574   8.273   6.894   0.464  1.6094 -2.4641  1.1996
15332SOL    HW246575   8.329   6.920   0.602 -1.0296  0.6911  1.7928
15333SOL     OW46576   0.885   0.383   0.290 -0.2740  0.1327 -0.7922
15333SOL    HW146577   0.921   0.398   0.377 -0.4960 -0.3900 -0.6080
15333SOL    HW246578   0.820   0.452   0.279 -0.4451  0.0294 -0.4314
15334SOL     OW46579   5.021   6.450   4.204  0.6252  0.1142  0.3577
15334SOL    HW146580   4.998   6.377   4.262  0.4280  0.6843  1.0218
15334SOL    HW246581   5.115   6.461   4.216  1.0680 -1.3795 -1.3664
15335SOL     OW46582   0.777   6.549   7.676 -0.2959  0.2740 -0.3230
15335SOL    HW146583   0.814   6.582   7.757  0.2115 -0.2648 -0.3268
15335SOL    HW246584   0.824   6.467   7.659 -0.9992 -0.0709 -0.6983
15336SOL     OW46585   3.567   2.047   2.325 -0.0674  0.0676 -0.1310
15336SOL    HW146586   3.564   2.140   2.304 -0.0874  0.0604 -0.1612
15336SOL    HW246587   3.656   2.020   2.302 -0.3762 -0.1535 -1.1303
15337SOL     OW46588   2.170   6.832   2.498 -0.4993 -0.0733  0.1445
15337SOL    HW146589   2.170   6.780   2.418 -0.4548 -0.1069  0.1662
15337SOL    HW246590   2.153   6.922   2.469  0.1510  0.0164  0.0277
15338SOL     OW46591   1.396   1.687   4.695 -0.2524 -0.7274 -0.2143
15338SOL    HW146592   1.366   1.769   4.657  1.6828  0.2522  0.2741
15338SOL    HW246593   1.330   1.665   4.761 -1.1480  0.0416 -0.8336
15339SOL     OW46594   7.074   6.892   9.240 -0.1291 -0.1949  0.5316
15339SOL    HW146595   7.132   6.845   9.180 -1.8863  0.6775 -2.0766
15339SOL    HW246596   7.022   6.824   9.282 -0.1682 -0.7800 -0.4394
15340SOL     OW46597   4.131   9.230   3.375  0.2849  0.3782 -0.0625
15340SOL    HW146598   4.194   9.160   3.394  0.6367  0.6295 -0.2859
15340SOL    HW246599   4.184   9.309   3.374 -0.3136  0.8258  1.5095
15341SOL     OW46600   5.980   8.662   3.827 -0.6317  0.3103  0.0318
15341SOL    HW146601   5.989   8.593   3.762 -0.5631 -0.1327  0.5067
15341SOL    HW246602   6.006   8.742   3.781  1.9260 -0.3309  0.2294
15342SOL     OW46603   3.165   4.202   1.280 -0.4396  0.4053  0.3958
15342SOL    HW146604   3.186   4.257   1.356  0.2093 -1.2233  1.4540
15342SOL    HW246605   3.182   4.113   1.310  1.1353 -0.2177 -2.0814
15343SOL     OW46606   0.436   4.096   5.327  0.1223 -0.2612  0.2508
15343SOL    HW146607   0.345   4.069   5.338  0.1816 -1.0672 -0.9841
15343SOL    HW246608   0.483   4.055   5.399  0.0679 -2.8891 -1.1035
15344SOL     OW46609   5.736   3.299   9.077  0.4694 -0.4058 -0.2267
15344SOL    HW146610   5.777   3.385   9.062  1.4534 -1.0496 -1.4167
15344SOL    HW246611   5.708   3.301   9.169 -1.7567  2.1016 -0.8049
15345SOL     OW46612   1.002   4.804   2.462 -0.3125 -0.1703 -0.6432
15345SOL    HW146613   1.086   4.785   2.504 -0.3342  1.4831  0.2141
15345SOL    HW246614   1.017   4.886   2.415 -1.2206 -0.3119 -1.2053
15346SOL     OW46615   9.152   3.055   9.351  0.0515 -0.6624 -0.3479
15346SOL    HW146616   9.082   3.110   9.384  0.1338 -1.9406  2.2224
15346SOL    HW246617   9.108   2.985   9.303 -0.6477 -1.9539  1.9880
15347SOL     OW46618   5.899   5.207   9.024 -0.3883  0.2788 -0.6734
15347SOL    HW146619   5.890   5.301   9.039 -1.4556  0.1009 -0.0971
15347SOL    HW246620   5.861   5.167   9.102  2.7083 -0.6568  0.4877
15348SOL     OW46621   4.974   7.126   4.399  0.0603  0.5368  0.0966
15348SOL    HW146622   4.886   7.162   4.408 -0.2076 -0.0407 -0.1348
15348SOL    HW246623   4.966   7.061   4.329  0.6149  0.3023  0.2443
15349SOL     OW46624   6.254   0.707   4.180 -0.3500  0.1931  0.0422
15349SOL    HW146625   6.213   0.628   4.144  1.0764 -1.2594  1.4549
15349SOL    HW246626   6.217   0.779   4.128 -1.9253 -1.3536 -1.0860
15350SOL     OW46627   8.340   2.019   1.004  0.2615  0.1375 -0.3035
15350SOL    HW146628   8.391   2.098   1.020 -0.6437  0.5139  0.7931
15350SOL    HW246629   8.379   1.954   1.063  2.0092 -0.7222 -2.2865
15351SOL     OW46630   6.609   1.446   0.065  0.4121  0.2009  0.4767
15351SOL    HW146631   6.589   1.361   0.103 -1.6696  0.9231  1.0861
15351SOL    HW246632   6.537   1.502   0.091  1.2554  1.9264 -0.7184
15352SOL     OW46633   1.075   9.495   7.011 -0.3139  0.0075 -0.1230
15352SOL    HW146634   1.039   9.444   7.084 -0.2949  3.1901  2.3245
15352SOL    HW246635   1.016   9.477   6.938 -1.5296 -1.8091  1.2283
15353SOL     OW46636   0.094   6.115   7.737 -0.2400  0.0368 -0.4690
15353SOL    HW146637   0.057   6.050   7.796  1.9643 -0.0575  0.9091
15353SOL    HW246638   0.018   6.161   7.701 -1.7347 -1.5243  0.5620
15354SOL     OW46639   8.441   9.783   2.597 -0.0533  0.6028  0.3995
15354SOL    HW146640   8.407   9.829   2.520  0.1317  0.4712  0.2360
15354SOL    HW246641   8.500   9.717   2.560 -0.8385 -0.2191  0.5882
15355SOL     OW46642   8.225   7.928   0.230  0.0272  0.7036  0.0700
15355SOL    HW146643   8.165   7.880   0.287 -1.2724  2.9025  0.6820
15355SOL    HW246644   8.170   7.993   0.187  1.0151 -0.5415 -3.4584
15356SOL     OW46645   9.346   8.055   7.000  0.5423  0.4249 -0.2160
15356SOL    HW146646   9.406   7.996   6.953  0.5336  0.7917 -0.6896
15356SOL    HW246647   9.393   8.138   7.004  0.0294  0.7371 -0.6637
15357SOL     OW46648   6.563   4.515   1.227 -0.2861  0.4205  0.2314
15357SOL    HW146649   6.631   4.455   1.195 -0.0554  0.7451  0.1098
15357SOL    HW246650   6.505   4.528   1.151 -0.7091 -0.1641  0.4463
15358SOL     OW46651   4.113   0.531   6.170 -0.2544 -0.1520 -0.2541
15358SOL    HW146652   4.139   0.611   6.123 -0.6951  0.7716  1.0115
15358SOL    HW246653   4.141   0.546   6.260  0.5692 -1.8872 -0.1811
15359SOL     OW46654   4.386   4.181   8.579  0.4730 -0.7658 -0.2159
15359SOL    HW146655   4.349   4.262   8.543 -1.7931 -1.5067  0.2742
15359SOL    HW246656   4.475   4.178   8.546  0.3197  1.4812 -0.9730
15360SOL     OW46657   4.357   5.153   2.626 -0.2536 -0.6588 -0.1585
15360SOL    HW146658   4.277   5.103   2.608 -0.0717 -0.8933 -0.3359
15360SOL    HW246659   4.343   5.191   2.713  0.2281 -2.3158  0.6900
15361SOL     OW46660   8.569   9.895   0.591 -0.3152 -0.2909  0.4928
15361SOL    HW146661   8.655   9.866   0.624 -0.1877 -0.0470  0.3747
15361SOL    HW246662   8.511   9.820   0.606  0.0564 -0.6774  0.0190
15362SOL     OW46663   8.091   3.514   7.367  0.7927  0.3694 -0.1387
15362SOL    HW146664   8.003   3.547   7.383  0.8042  0.5508 -0.4475
15362SOL    HW246665   8.132   3.511   7.453  0.3771 -0.0188  0.0498
15363SOL     OW46666   5.493   0.887   9.462  0.6378 -0.0083 -0.3663
15363SOL    HW146667   5.579   0.928   9.449  1.0935 -1.3055 -1.6943
15363SOL    HW246668   5.496   0.853   9.552  2.5099 -2.1373 -1.1323
15364SOL     OW46669   7.608   4.871   3.039  0.0403 -0.4482 -0.0284
15364SOL    HW146670   7.668   4.802   3.067  0.7283  0.4135  0.6738
15364SOL    HW246671   7.574   4.908   3.120  0.1577  0.4505 -0.3718
15365SOL     OW46672   5.964   6.276   5.412 -0.0308  0.7211 -0.2045
15365SOL    HW146673   5.880   6.277   5.367  0.2298 -0.2298 -0.7451
15365SOL    HW246674   6.029   6.281   5.342  0.3763 -0.6049  0.0555
15366SOL     OW46675   6.332   6.376   4.880  0.7004  0.3666  0.0337
15366SOL    HW146676   6.413   6.334   4.851  2.4837  2.8814  0.9068
15366SOL    HW246677   6.352   6.404   4.970 -1.2461  0.8774  0.3415
15367SOL     OW46678   7.686   6.793   6.088  0.3158  0.1405  0.3123
15367SOL    HW146679   7.775   6.803   6.055 -0.5201  4.8113 -1.2173
15367SOL    HW246680   7.651   6.718   6.040  2.7845 -0.6410 -0.4236
15368SOL     OW46681   9.866   3.190   3.148  0.0918 -0.2830  0.3399
15368SOL    HW146682   9.925   3.121   3.177  1.9433  0.5621 -1.2338
15368SOL    HW246683   9.788   3.180   3.203  2.2363 -0.5165  3.5606
15369SOL     OW46684   1.498   4.941   5.187 -0.7651 -0.2826 -0.4601
15369SOL    HW146685   1.588   4.940   5.156 -0.7982 -0.3282 -0.5561
15369SOL    HW246686   1.447   4.975   5.113 -0.6937  0.7733 -0.0336
15370SOL     OW46687   3.970   3.539   5.931 -0.1927  0.0815  0.3148
15370SOL    HW146688   3.995   3.478   6.000  0.8891  1.6846  1.4166
15370SOL    HW246689   3.974   3.488   5.850  1.1402 -1.1719  1.1442
15371SOL     OW46690   7.073   7.073   7.650 -0.3921  0.3918  0.2141
15371SOL    HW146691   7.072   6.995   7.705  0.4869  0.0832 -0.1793
15371SOL    HW246692   7.166   7.097   7.646 -0.4967  0.6436 -0.7927
15372SOL     OW46693   3.443   9.827   8.541 -0.1410 -0.0145  0.0697
15372SOL    HW146694   3.465   9.743   8.499 -1.1026 -1.1538  1.7276
15372SOL    HW246695   3.422   9.804   8.632  0.1439  2.1209  0.7287
15373SOL     OW46696   2.678   2.302   9.546  0.0670 -0.4158  0.1951
15373SOL    HW146697   2.736   2.226   9.552  1.5632  0.5262 -1.3923
15373SOL    HW246698   2.722   2.361   9.485 -2.2107  0.7034 -0.4759
15374SOL     OW46699   9.596   3.442   4.373 -0.0026 -0.6920  0.3128
15374SOL    HW146700   9.660   3.462   4.305 -1.2206 -1.8875 -1.2622
15374SOL    HW246701   9.593   3.521   4.427  2.2636 -0.3517  0.0489
15375SOL     OW46702   1.694   4.893   4.849 -0.3025  0.2864 -0.0859
15375SOL    HW146703   1.785   4.877   4.824 -0.8730 -0.5736 -1.7747
15375SOL    HW246704   1.667   4.968   4.796 -0.7298  0.1899 -0.0112
15376SOL     OW46705   8.040   8.108   2.601  0.0983  0.1948 -0.2614
15376SOL    HW146706   8.099   8.102   2.676  1.6206  0.0640 -1.4160
15376SOL    HW246707   8.083   8.170   2.542 -0.8201 -0.0636 -1.2290
15377SOL     OW46708   5.859   4.040   6.761 -0.1323 -0.4582  0.3220
15377SOL    HW146709   5.923   4.094   6.806 -1.4181  0.7944  0.7045
15377SOL    HW246710   5.775   4.086   6.772 -1.1622 -2.1576  0.0622
15378SOL     OW46711   2.045   0.335   0.560  0.4725 -0.3902 -0.4171
15378SOL    HW146712   2.055   0.244   0.530 -0.1938 -0.5032 -0.3360
15378SOL    HW246713   2.134   0.368   0.568  0.7146 -0.9284 -0.7869
15379SOL     OW46714   1.020   6.559   2.359 -0.0592 -0.0455 -0.3155
15379SOL    HW146715   1.024   6.469   2.326  0.7756 -0.6139  1.2240
15379SOL    HW246716   1.079   6.609   2.303 -1.3573 -0.1810 -1.8796
15380SOL     OW46717   7.920   8.504   3.918  0.1321  0.1095 -0.3425
15380SOL    HW146718   7.953   8.593   3.928 -1.9505  0.6811  3.7529
15380SOL    HW246719   7.825   8.512   3.929  0.0438 -2.7139  3.1527
15381SOL     OW46720   5.172   6.733   1.782 -0.0264 -0.1601 -0.1741
15381SOL    HW146721   5.150   6.806   1.725  1.7187  0.1404 -0.4978
15381SOL    HW246722   5.112   6.663   1.756 -2.0508  1.2394  0.4546
15382SOL     OW46723   8.079   1.711   6.495  0.1869  0.4831 -1.0453
15382SOL    HW146724   8.021   1.784   6.516  1.3338  1.0498  0.4265
15382SOL    HW246725   8.102   1.674   6.581 -0.8349 -2.0352 -1.7640
15383SOL     OW46726   4.221   8.668   3.657 -0.2911  0.1812  0.3546
15383SOL    HW146727   4.256   8.617   3.584 -1.6293 -1.5179  0.8220
15383SOL    HW246728   4.224   8.608   3.732 -1.6469  0.8585  1.0029
15384SOL     OW46729   4.718   6.852   5.134  0.1091 -0.5109 -0.7873
15384SOL    HW146730   4.788   6.910   5.104 -0.7010 -0.1269 -2.0354
15384SOL    HW246731   4.763   6.780   5.177  1.1563  1.3846  1.5722
15385SOL     OW46732   1.481   8.962   0.371 -0.4250  0.5120  0.1005
15385SOL    HW146733   1.457   8.910   0.448  0.1491  1.3820  0.8939
15385SOL    HW246734   1.422   9.037   0.374 -1.1450  0.0143 -0.9503
15386SOL     OW46735   3.379   5.773   2.345 -0.3107  0.0695 -0.0369
15386SOL    HW146736   3.455   5.734   2.388  0.0961 -0.7370 -1.4203
15386SOL    HW246737   3.410   5.856   2.311 -0.3619  0.2501  0.3504
15387SOL     OW46738   2.228   0.016   9.881  0.1881  0.9850  0.0076
15387SOL    HW146739   2.144   0.061   9.883 -0.7977 -0.7640  0.0999
15387SOL    HW246740   2.206  -0.077   9.889  2.1516  0.4940  0.3440
15388SOL     OW46741   7.090   7.106   4.233  0.4751 -0.0421 -0.0736
15388SOL    HW146742   7.097   7.201   4.242  1.1433 -0.1946  1.2624
15388SOL    HW246743   7.143   7.071   4.305  0.2214 -1.4313 -0.5305
15389SOL     OW46744   6.791   1.078   6.341  0.4517 -0.6267  0.2216
15389SOL    HW146745   6.863   1.131   6.305  0.2694  0.5766  1.5196
15389SOL    HW246746   6.819   1.058   6.430 -0.6262 -0.5164  0.5963
15390SOL     OW46747   2.277   4.039   2.451  0.2988  0.3885  0.2916
15390SOL    HW146748   2.327   4.111   2.413  1.9349 -0.4183  0.8304
15390SOL    HW246749   2.342   3.971   2.468 -1.0955 -0.9708  0.4182
15391SOL     OW46750   4.089   8.057   8.172  0.2631  0.3797  0.3966
15391SOL    HW146751   4.101   8.150   8.194 -0.2659  0.9713 -1.5951
15391SOL    HW246752   3.996   8.041   8.189  0.8668 -0.6220  3.3812
15392SOL     OW46753   1.366   0.572   3.384  0.4892 -0.2555 -0.1384
15392SOL    HW146754   1.351   0.564   3.479  0.0036 -0.4636 -0.2279
15392SOL    HW246755   1.456   0.543   3.371  0.6769  0.1063  0.3039
15393SOL     OW46756   1.051   3.983   6.620 -0.6695  0.8487 -0.1447
15393SOL    HW146757   0.962   3.978   6.654 -0.4547 -0.6846  0.2482
15393SOL    HW246758   1.105   4.004   6.697 -0.5126  0.1935 -0.0728
15394SOL     OW46759   5.764   5.786   2.066 -0.6913  0.3582 -0.0831
15394SOL    HW146760   5.827   5.857   2.050  0.8828 -1.2998 -1.8416
15394SOL    HW246761   5.818   5.708   2.073 -2.4684 -0.8977  0.2051
15395SOL     OW46762   0.668   3.399   6.903  0.0311  0.0240  0.1398
15395SOL    HW146763   0.759   3.398   6.873  0.0384 -0.2568  0.1676
15395SOL    HW246764   0.665   3.333   6.972 -0.2110 -0.0163  0.0927
15396SOL     OW46765   2.574   8.959   7.236  0.5504 -0.4207 -0.3189
15396SOL    HW146766   2.645   8.897   7.254  2.7020  1.2884 -2.2092
15396SOL    HW246767   2.532   8.925   7.157 -0.3407 -1.0393  0.3905
15397SOL     OW46768   2.697   6.021   3.233  0.4131  0.2340 -0.3238
15397SOL    HW146769   2.759   6.059   3.295  0.6765  0.1866 -0.5557
15397SOL    HW246770   2.648   6.096   3.199 -2.1392  0.0147  2.4559
15398SOL     OW46771   3.682   6.248   5.256  0.3150 -0.3775  0.0020
15398SOL    HW146772   3.765   6.293   5.268 -0.2694  0.1872  2.3639
15398SOL    HW246773   3.667   6.202   5.339 -1.2308 -1.3148 -0.7482
15399SOL     OW46774   6.813   1.283   1.960 -0.5923 -0.3228 -0.0146
15399SOL    HW146775   6.772   1.222   1.898  0.5872 -1.5985  0.4178
15399SOL    HW246776   6.775   1.260   2.045  0.9226 -1.4911  0.3853
15400SOL     OW46777   8.272   8.625   1.466  0.0855  0.2132 -0.3564
15400SOL    HW146778   8.177   8.627   1.454 -0.3903 -0.4437  2.6239
15400SOL    HW246779   8.286   8.662   1.553  2.5286 -0.3027 -0.4700
15401SOL     OW46780   3.371   5.225   0.505  0.4548 -0.2017 -0.7745
15401SOL    HW146781   3.321   5.148   0.532  1.2914 -1.4273 -2.4924
15401SOL    HW246782   3.428   5.245   0.578  1.0852 -2.0001 -0.7359
15402SOL     OW46783   4.294   3.514   9.667 -0.1190 -0.4160 -0.4814
15402SOL    HW146784   4.284   3.586   9.605  0.0461  0.2234  0.2252
15402SOL    HW246785   4.206   3.497   9.700  0.3434  3.0823  3.3449
15403SOL     OW46786   8.229   5.395   0.854 -0.0063  0.8600 -0.2211
15403SOL    HW146787   8.177   5.315   0.850 -0.5887  1.2330 -0.2603
15403SOL    HW246788   8.166   5.463   0.880  0.8126  1.0073  1.4904
15404SOL     OW46789   6.043   4.456   0.886 -0.2550  0.5647 -0.3396
15404SOL    HW146790   5.997   4.387   0.935  1.8254  1.1287  2.6608
15404SOL    HW246791   6.105   4.408   0.831 -1.1513 -0.0168 -0.8827
15405SOL     OW46792   0.497   6.127   1.314  0.1963  0.0378  0.5874
15405SOL    HW146793   0.506   6.109   1.221  0.0371  0.5813  0.4624
15405SOL    HW246794   0.486   6.222   1.319 -1.5410 -0.1493  1.0138
15406SOL     OW46795   6.399   5.746   0.594 -0.0763  0.0660  0.4937
15406SOL    HW146796   6.451   5.702   0.662 -0.4478 -0.6652  0.3176
15406SOL    HW246797   6.396   5.838   0.622  0.0189 -0.1683  1.3122
15407SOL     OW46798   6.162   6.992   1.684  0.3351  0.8875 -0.0582
15407SOL    HW146799   6.068   7.001   1.665  0.2138 -0.5112 -0.2389
15407SOL    HW246800   6.178   6.897   1.680  1.6702  1.0771  0.3968
15408SOL     OW46801   2.227   8.811   4.420 -0.1451  0.0006  0.6125
15408SOL    HW146802   2.198   8.720   4.415 -0.6601  0.2496 -2.2309
15408SOL    HW246803   2.155   8.862   4.382  1.2499  1.2885 -0.4281
15409SOL     OW46804   5.412   6.534   7.136 -0.0134 -0.1209 -0.1990
15409SOL    HW146805   5.442   6.572   7.053  1.4407  0.2357  0.4583
15409SOL    HW246806   5.453   6.448   7.139 -0.5984 -0.4033 -0.1344
15410SOL     OW46807   6.092   0.339   0.772  0.2927  0.3086  0.1691
15410SOL    HW146808   6.084   0.278   0.845  1.1771  0.3119  0.2814
15410SOL    HW246809   6.116   0.422   0.813 -0.9737  0.7620  0.0228
15411SOL     OW46810   7.974   0.530   4.895 -0.1559 -0.0937 -0.0083
15411SOL    HW146811   8.017   0.488   4.821  1.8623  1.9594 -0.0943
15411SOL    HW246812   8.044   0.545   4.958 -1.5995 -0.6706  1.8302
15412SOL     OW46813   9.693   5.833   9.091  0.6004 -0.5640 -0.0027
15412SOL    HW146814   9.670   5.901   9.154  2.6061 -1.5334  1.9410
15412SOL    HW246815   9.698   5.878   9.007 -2.3189  0.7573  0.4079
15413SOL     OW46816   4.870   6.738   8.113  0.1703  0.3376 -0.1964
15413SOL    HW146817   4.810   6.669   8.143 -0.2593  0.2431 -1.2210
15413SOL    HW246818   4.831   6.819   8.144  0.1007  0.1905  0.0994
15414SOL     OW46819   3.303   9.482   9.795  0.4900  0.1047  0.0783
15414SOL    HW146820   3.222   9.499   9.844 -0.8728 -0.4187 -1.8522
15414SOL    HW246821   3.361   9.440   9.859 -1.1730 -0.5355  1.2564
15415SOL     OW46822   6.608   2.482   9.632 -0.0857  0.1108 -0.0323
15415SOL    HW146823   6.548   2.441   9.695  1.5020  0.4047  1.7617
15415SOL    HW246824   6.690   2.435   9.642  0.6544  1.1787 -0.7931
15416SOL     OW46825   6.571   9.693   3.769 -0.3144  0.3067  0.2345
15416SOL    HW146826   6.485   9.662   3.738  0.5884 -1.1817 -0.9192
15416SOL    HW246827   6.554   9.782   3.799 -2.2053  0.1765 -0.2737
15417SOL     OW46828   4.198   8.149   5.687 -0.2359  0.2304 -0.1524
15417SOL    HW146829   4.178   8.154   5.594 -2.3319  0.5266  0.2485
15417SOL    HW246830   4.188   8.239   5.718 -1.4105 -0.1642  0.6664
15418SOL     OW46831   9.250   4.498   3.313 -0.3955 -0.0869  0.3286
15418SOL    HW146832   9.164   4.472   3.347  0.6903 -1.8056  1.9380
15418SOL    HW246833   9.312   4.445   3.362  1.6742  1.7263 -0.1746
15419SOL     OW46834   1.609   4.250   4.044  0.6604  0.4577 -0.3079
15419SOL    HW146835   1.547   4.295   3.986  1.1913  0.0201 -1.2482
15419SOL    HW246836   1.641   4.176   3.992  2.0111  0.7034  0.1261
15420SOL     OW46837   0.885   6.182   7.351  0.1756 -0.0131  0.7151
15420SOL    HW146838   0.956   6.155   7.293 -1.4415 -1.2645 -0.8196
15420SOL    HW246839   0.900   6.276   7.366  1.9027 -0.1608  0.1476
15421SOL     OW46840   1.568   6.573   2.807  0.0261 -0.0201  0.2582
15421SOL    HW146841   1.560   6.657   2.762  0.1183  0.3601  0.9437
15421SOL    HW246842   1.483   6.531   2.797 -0.2529  0.4757  0.5478
15422SOL     OW46843   1.454   2.469   7.226 -0.0985 -0.2501 -0.3198
15422SOL    HW146844   1.533   2.467   7.279 -0.0762 -1.1597 -0.3679
15422SOL    HW246845   1.485   2.493   7.138 -0.4374  3.9804  0.4865
15423SOL     OW46846   8.696   8.654   4.476  0.3864  0.5790  0.3507
15423SOL    HW146847   8.679   8.621   4.564  1.4518 -0.7345  0.1033
15423SOL    HW246848   8.770   8.601   4.444 -0.0816  0.8949 -1.3977
15424SOL     OW46849   7.663   3.567   9.787 -0.2604 -0.1015 -0.2281
15424SOL    HW146850   7.748   3.583   9.745 -1.5884  0.4768 -2.8975
15424SOL    HW246851   7.652   3.642   9.847 -0.2239  1.5546 -2.1897
15425SOL     OW46852   8.052   0.631   8.325 -0.0494 -0.3247  0.1487
15425SOL    HW146853   8.058   0.536   8.335  0.1625 -0.2980  0.2911
15425SOL    HW246854   8.141   0.658   8.302  0.3532  0.0562  2.0233
15426SOL     OW46855   6.371   9.543   1.790  0.2289  0.2879 -0.6766
15426SOL    HW146856   6.301   9.477   1.790  0.6265 -0.1493  0.1533
15426SOL    HW246857   6.349   9.601   1.863  1.1866 -0.3641  0.1606
15427SOL     OW46858   7.600   9.930   6.791 -0.5559  0.3545  0.2870
15427SOL    HW146859   7.632   9.921   6.701  0.9455  3.2338  0.3915
15427SOL    HW246860   7.639   9.856   6.838  0.3698 -0.0398 -1.0248
15428SOL     OW46861   9.668   0.041   4.252 -0.0624 -0.5351  0.1743
15428SOL    HW146862   9.728   0.086   4.194 -0.3050 -0.3461  0.0702
15428SOL    HW246863   9.608  -0.007   4.194  0.6259 -1.5667  0.2896
15429SOL     OW46864   8.548   1.801   6.644 -0.1109 -0.1552 -0.3723
15429SOL    HW146865   8.481   1.741   6.612 -1.1730  1.0313 -0.4407
15429SOL    HW246866   8.604   1.818   6.569  0.0785 -0.8877 -0.4030
15430SOL     OW46867   3.288   4.568   2.304 -0.1470  0.1962  0.0695
15430SOL    HW146868   3.240   4.576   2.222  0.3658  0.8315 -0.1709
15430SOL    HW246869   3.341   4.647   2.310  0.6483 -0.3506  0.4788
15431SOL     OW46870   6.141   9.407   0.170  0.1245  0.2228 -0.9049
15431SOL    HW146871   6.146   9.331   0.229  1.7877  2.0116  1.4748
15431SOL    HW246872   6.048   9.429   0.167 -0.6079 -2.6420 -2.7882
15432SOL     OW46873   2.639   0.951   7.648 -0.2704 -0.1631  0.3371
15432SOL    HW146874   2.735   0.954   7.649 -0.2840  1.6727 -0.3474
15432SOL    HW246875   2.617   0.911   7.565 -0.1076 -0.8361  0.6123
15433SOL     OW46876   8.006   1.694   8.767  0.5409  0.1213 -0.4475
15433SOL    HW146877   8.061   1.685   8.690  2.5999  0.6569  0.8833
15433SOL    HW246878   8.025   1.616   8.820 -0.1293  0.2271 -0.0341
15434SOL     OW46879   4.843   0.936   0.254 -0.3811 -0.2702 -0.3244
15434SOL    HW146880   4.888   0.854   0.273  0.8485  0.1172 -1.4398
15434SOL    HW246881   4.753   0.910   0.233 -0.2627 -1.2222  0.2860
15435SOL     OW46882   1.029   3.570   3.747 -0.1461 -0.2782  0.3610
15435SOL    HW146883   1.006   3.600   3.659  2.5025  1.7923  0.2240
15435SOL    HW246884   0.978   3.490   3.760 -0.5720 -0.7160 -3.0828
15436SOL     OW46885   7.192   5.965   2.331 -0.3190 -0.2572  0.0492
15436SOL    HW146886   7.248   5.904   2.282 -0.0021 -0.5623  0.7734
15436SOL    HW246887   7.215   5.950   2.423  0.9596  2.1317  0.1773
15437SOL     OW46888   7.555   5.830   1.915  0.3978  0.5217  0.6143
15437SOL    HW146889   7.614   5.826   1.990  0.4494 -0.0139  0.5504
15437SOL    HW246890   7.468   5.820   1.952  0.5137 -1.5272  0.4715
15438SOL     OW46891   4.451   4.551   7.282  0.1240 -0.6174 -0.3704
15438SOL    HW146892   4.543   4.572   7.268 -0.3054  2.5103  0.7585
15438SOL    HW246893   4.452   4.486   7.352  1.4651  1.0839  1.2799
15439SOL     OW46894   3.303   1.526   2.448  0.7302 -0.2588 -0.3713
15439SOL    HW146895   3.259   1.610   2.438  0.2262 -0.4370  0.2507
15439SOL    HW246896   3.391   1.549   2.477  0.2415  0.0432  0.9714
15440SOL     OW46897   3.125   2.198   5.804  0.0098 -1.0790 -0.2546
15440SOL    HW146898   3.097   2.289   5.811 -0.3619 -1.1298 -0.9700
15440SOL    HW246899   3.050   2.153   5.764  1.4742 -0.9699 -3.4977
15441SOL     OW46900   6.470   7.178   2.189  0.5329 -0.0848 -0.3596
15441SOL    HW146901   6.381   7.200   2.216  0.2646 -1.3120 -0.1816
15441SOL    HW246902   6.521   7.257   2.207 -0.0236 -0.1651  1.8890
15442SOL     OW46903   4.469   6.961   5.095 -0.5694 -0.0365  0.8571
15442SOL    HW146904   4.403   6.898   5.126  0.1179 -1.4220 -0.3992
15442SOL    HW246905   4.551   6.913   5.099 -0.1217  0.5555 -0.7612
15443SOL     OW46906   2.749   6.368   8.692  0.0332 -0.1626  0.3824
15443SOL    HW146907   2.836   6.388   8.660  0.3713 -1.0896  0.6740
15443SOL    HW246908   2.700   6.449   8.683  0.5996  0.0603 -0.8683
15444SOL     OW46909   0.215   8.898   0.345  0.2373  0.4011  0.2155
15444SOL    HW146910   0.235   8.937   0.430 -1.4811  0.9162  0.4243
15444SOL    HW246911   0.120   8.907   0.336 -0.0586 -2.4237 -0.4030
15445SOL     OW46912   9.610   5.928   8.509 -0.6501 -0.0425  0.5718
15445SOL    HW146913   9.684   5.919   8.570 -0.7501 -1.3045  0.5196
15445SOL    HW246914   9.651   5.951   8.426 -0.4967  1.4694  1.0320
15446SOL     OW46915   0.045   9.928   4.655 -0.3728 -0.0494  0.5090
15446SOL    HW146916   0.003  10.003   4.698  0.5023  0.6052  0.2592
15446SOL    HW246917   0.135   9.930   4.688  0.1919  0.1928 -0.9914
15447SOL     OW46918   3.047   4.369   4.079  0.2125  0.5631  0.4192
15447SOL    HW146919   3.021   4.458   4.103 -0.8351 -0.2905  2.7342
15447SOL    HW246920   3.097   4.338   4.155  0.0977 -1.0258 -0.1231
15448SOL     OW46921   4.170   2.576   2.613 -0.3009  0.6685 -0.6788
15448SOL    HW146922   4.199   2.506   2.555 -1.1178  0.6143 -1.0401
15448SOL    HW246923   4.236   2.580   2.682 -0.3676 -0.6181 -0.5223
15449SOL     OW46924   6.330   7.757   8.599  0.0232  0.4822 -0.5272
15449SOL    HW146925   6.250   7.762   8.547 -0.6956  0.7544  0.5850
15449SOL    HW246926   6.361   7.668   8.587 -0.7439  0.2128 -0.5434
15450SOL     OW46927   3.211   6.847   1.650 -0.1408  0.2438  0.2549
15450SOL    HW146928   3.200   6.759   1.614 -0.0063  0.4197 -0.2373
15450SOL    HW246929   3.174   6.905   1.583 -1.6392  0.4818  1.2452
15451SOL     OW46930   9.378   2.979   3.187  0.1580  0.4198 -0.5372
15451SOL    HW146931   9.403   2.980   3.095 -0.4248 -1.9861 -0.7958
15451SOL    HW246932   9.282   2.976   3.186  0.1567 -0.1235  0.1346
15452SOL     OW46933   9.938   9.664   1.978  0.1963  0.5114 -0.2486
15452SOL    HW146934   9.908   9.632   1.893  2.1037 -1.3411 -0.3049
15452SOL    HW246935   9.868   9.640   2.038 -0.5145  0.5004 -1.0567
15453SOL     OW46936   2.657   3.681   3.155  0.3406  0.6501  0.0486
15453SOL    HW146937   2.689   3.771   3.169  1.5422 -0.0024  2.0555
15453SOL    HW246938   2.651   3.644   3.244 -1.6122 -0.7882 -0.6189
15454SOL     OW46939   8.169   0.255   1.227  0.4460 -0.1090  0.2076
15454SOL    HW146940   8.171   0.165   1.195 -0.9275  0.4098 -1.5672
15454SOL    HW246941   8.099   0.255   1.292  0.5782 -0.3556  0.3535
15455SOL     OW46942   0.191   5.218   0.435  0.3774  0.4035 -0.0229
15455SOL    HW146943   0.213   5.160   0.362  0.2777 -0.0153  0.2763
15455SOL    HW246944   0.098   5.239   0.422  0.1725 -0.2344  0.3649
15456SOL     OW46945   2.075   9.398   1.183 -0.0740  0.7813 -0.3132
15456SOL    HW146946   2.000   9.411   1.125 -1.4803 -0.3868  1.1393
15456SOL    HW246947   2.096   9.305   1.174  0.2205  0.7702  0.4248
15457SOL     OW46948   9.043   4.308   6.499  0.0306 -0.6286 -0.0155
15457SOL    HW146949   9.067   4.282   6.410 -3.3927 -2.4372 -0.5826
15457SOL    HW246950   8.998   4.391   6.489 -0.3449 -0.8263  0.0138
15458SOL     OW46951   4.099   3.643   3.850 -0.6541 -0.1607 -0.1445
15458SOL    HW146952   4.113   3.564   3.902  2.5471 -1.2243 -2.2982
15458SOL    HW246953   4.013   3.631   3.810 -0.1542 -2.7724 -0.5941
15459SOL     OW46954   1.136   8.833   7.706 -0.5272  0.2049  0.2785
15459SOL    HW146955   1.082   8.909   7.684  0.9671  1.8102  1.8405
15459SOL    HW246956   1.209   8.837   7.644  0.3662  1.0172  1.3371
15460SOL     OW46957   5.188   7.311   9.130  0.5988  0.0387  0.0962
15460SOL    HW146958   5.130   7.236   9.142  1.2350 -0.6568 -1.0467
15460SOL    HW246959   5.275   7.273   9.120  1.1154  1.0104  0.6960
15461SOL     OW46960   7.426   0.514   8.347 -0.4040 -0.0979 -0.2669
15461SOL    HW146961   7.356   0.467   8.301 -0.2874 -0.3173 -0.2223
15461SOL    HW246962   7.386   0.540   8.430 -0.7651  0.7222 -0.6887
15462SOL     OW46963   2.657   6.703   3.298  0.2270 -0.4331 -0.4545
15462SOL    HW146964   2.697   6.616   3.296 -1.8541 -1.4172 -1.1506
15462SOL    HW246965   2.624   6.711   3.388  0.1428 -0.4933 -0.4799
15463SOL     OW46966   1.194   0.471   4.665  0.1299 -1.0138 -0.2217
15463SOL    HW146967   1.157   0.555   4.640  0.0219 -0.0886  2.6843
15463SOL    HW246968   1.226   0.433   4.583  1.9270  2.6913 -1.4576
15464SOL     OW46969   3.038   5.123   6.947 -0.1898 -0.8003 -0.0474
15464SOL    HW146970   3.000   5.083   6.868 -0.0462  0.6987 -0.9109
15464SOL    HW246971   3.132   5.125   6.930 -0.2042 -0.0270 -0.0650
15465SOL     OW46972   3.135   4.490   2.945 -0.1969  0.4596 -0.0536
15465SOL    HW146973   3.045   4.519   2.929 -0.1262  1.5238  1.2636
15465SOL    HW246974   3.168   4.464   2.859 -0.6767  3.3225 -1.2322
15466SOL     OW46975   7.208   6.715   5.329  0.2617 -0.4376  0.5590
15466SOL    HW146976   7.217   6.622   5.351 -1.8825 -1.1558 -1.1428
15466SOL    HW246977   7.271   6.729   5.258  0.3354 -0.7004  0.5717
15467SOL     OW46978   6.103   3.084   5.115 -0.4303 -0.0995 -0.2327
15467SOL    HW146979   6.053   3.011   5.152 -2.0102  1.0815  0.0425
15467SOL    HW246980   6.159   3.114   5.187  0.1394 -0.9189 -0.3113
15468SOL     OW46981   9.885   1.002   6.847  0.2595 -0.1229  0.3712
15468SOL    HW146982   9.802   0.956   6.834 -1.3935  2.1186  2.1298
15468SOL    HW246983   9.900   1.048   6.764 -0.5605 -0.1203  0.2175
15469SOL     OW46984   2.528   0.482   7.264  0.0848 -0.1232 -0.0202
15469SOL    HW146985   2.617   0.512   7.286  0.4023 -0.5555 -0.6926
15469SOL    HW246986   2.513   0.517   7.177 -0.6136  0.3735  0.2913
15470SOL     OW46987   4.813   3.029   5.277 -0.4332 -0.3553  0.1434
15470SOL    HW146988   4.790   3.074   5.359 -1.5871 -1.6652  0.5862
15470SOL    HW246989   4.908   3.018   5.281 -0.4776 -0.4307  1.3352
15471SOL     OW46990   8.555   1.210   5.493 -0.0002  0.5167  0.4237
15471SOL    HW146991   8.503   1.290   5.487  0.9415  1.2252  1.3729
15471SOL    HW246992   8.524   1.166   5.572 -0.3357  0.0655  0.0468
15472SOL     OW46993   9.855   3.102   9.722 -0.1207  0.7242  0.2195
15472SOL    HW146994   9.808   3.160   9.782 -0.1529  0.8079  0.1139
15472SOL    HW246995   9.788   3.071   9.661 -0.6624 -1.4705  1.8045
15473SOL     OW46996   3.092   2.244   2.055  0.2111 -0.2226 -0.0539
15473SOL    HW146997   3.103   2.222   1.962  2.8517 -1.3286  0.4387
15473SOL    HW246998   3.116   2.337   2.060  1.1572 -0.4423 -0.3321
15474SOL     OW46999   2.749   8.742   2.870 -0.0286 -0.4648 -0.3479
15474SOL    HW147000   2.768   8.835   2.856 -1.4964 -0.1316 -0.2252
15474SOL    HW247001   2.709   8.739   2.957  1.4799 -1.4444  0.3522
15475SOL     OW47002   5.043   7.849   6.109 -0.5391 -0.3269  0.6628
15475SOL    HW147003   5.025   7.755   6.121 -0.4960 -0.1092  2.6743
15475SOL    HW247004   5.003   7.891   6.184 -0.2781  1.2686 -0.0495
15476SOL     OW47005   9.585   5.038   6.878 -0.1500  0.3576  0.4351
15476SOL    HW147006   9.640   5.116   6.886 -0.7114  0.7726  0.2972
15476SOL    HW247007   9.645   4.970   6.848 -0.2824  1.5930 -3.2488
15477SOL     OW47008   1.001   1.109   2.485 -0.3257 -0.0894  0.2897
15477SOL    HW147009   1.062   1.124   2.556  0.1357  1.6028 -0.4273
15477SOL    HW247010   0.923   1.072   2.527  1.3531 -3.0070  1.1319
15478SOL     OW47011   5.753   7.362   6.056  0.3018 -0.0232 -0.0668
15478SOL    HW147012   5.782   7.391   5.969 -0.7155  1.9875  0.2081
15478SOL    HW247013   5.668   7.321   6.040  0.8050 -1.0667 -0.1808
15479SOL     OW47014   1.399   9.585   5.436 -0.1692  0.1686  0.5134
15479SOL    HW147015   1.348   9.666   5.426  0.4348  0.5041  0.0960
15479SOL    HW247016   1.451   9.579   5.356 -0.5150 -0.8635  0.3507
15480SOL     OW47017   1.492   5.808   4.900 -0.1826  0.0778 -0.0541
15480SOL    HW147018   1.468   5.731   4.951  0.8738  0.7531  1.5614
15480SOL    HW247019   1.492   5.778   4.809 -1.1339 -1.4429  0.4177
15481SOL     OW47020   1.301   6.816   8.815  0.1777  0.1700 -0.4422
15481SOL    HW147021   1.299   6.844   8.723  0.9291 -0.3845 -0.6442
15481SOL    HW247022   1.325   6.895   8.864 -1.4886  0.7884 -0.5609
15482SOL     OW47023   1.597   1.267   1.233 -0.0753 -0.1792  0.0808
15482SOL    HW147024   1.504   1.286   1.221  0.1259  1.4289  0.8836
15482SOL    HW247025   1.598   1.177   1.267 -1.3135 -0.3215 -0.1965
15483SOL     OW47026   1.682   9.610   3.244  0.1151  0.2962 -0.0965
15483SOL    HW147027   1.587   9.606   3.249 -0.1298 -0.5681 -3.1898
15483SOL    HW247028   1.712   9.556   3.318 -1.6053  2.4260  2.3418
15484SOL     OW47029   0.044   9.731   0.498  0.2783  0.2384  0.0120
15484SOL    HW147030  -0.015   9.704   0.428 -0.0753  1.0092 -0.0001
15484SOL    HW247031  -0.009   9.789   0.552  1.0881  1.1382 -0.1361
15485SOL     OW47032   5.087   9.189   9.395  0.3809  0.2511 -0.2466
15485SOL    HW147033   5.042   9.206   9.477  0.2388 -1.3496  0.0351
15485SOL    HW247034   5.180   9.194   9.417  0.3612  1.2038 -0.3168
15486SOL     OW47035   8.196   7.513   2.077  0.2239  0.2442  0.3780
15486SOL    HW147036   8.141   7.488   2.003 -0.5428 -0.9575  1.3055
15486SOL    HW247037   8.134   7.534   2.147  0.9332  1.0052  0.8020
15487SOL     OW47038   3.388   1.527   0.149 -0.1368 -0.3364 -0.0822
15487SOL    HW147039   3.312   1.470   0.156 -0.6409  0.4960  2.0047
15487SOL    HW247040   3.433   1.516   0.233 -0.3766  2.4694  0.4944
15488SOL     OW47041   6.662   5.944   0.870  0.4124 -0.2149  0.0202
15488SOL    HW147042   6.573   5.963   0.841  0.4907  0.9320  0.4561
15488SOL    HW247043   6.706   5.907   0.794  0.1718  1.2581 -0.8697
15489SOL     OW47044   8.505   0.096   7.059 -0.1160 -0.1247 -0.4426
15489SOL    HW147045   8.585   0.078   7.110 -1.3551 -0.4444  1.4757
15489SOL    HW247046   8.473   0.010   7.035 -0.2791 -0.0254 -0.5743
15490SOL     OW47047   4.708   8.271   5.249 -0.1446 -0.5198  0.4932
15490SOL    HW147048   4.731   8.305   5.163 -1.0116  0.6720  0.7111
15490SOL    HW247049   4.758   8.325   5.310 -2.2199  1.0765  0.8921
15491SOL     OW47050   1.546   4.860   0.948  0.4442  0.9386  0.1247
15491SOL    HW147051   1.518   4.945   0.981  1.2438  1.4263 -0.4260
15491SOL    HW247052   1.492   4.845   0.870 -0.3159  0.5224  0.7167
15492SOL     OW47053   0.967   9.996   1.677 -0.1984 -0.5333 -0.2208
15492SOL    HW147054   0.967   9.940   1.599 -1.0472  0.1344 -0.7273
15492SOL    HW247055   0.874  10.004   1.700  0.0955 -1.4703  1.4224
15493SOL     OW47056   3.279   5.134   2.118 -0.3650 -0.2387  0.3759
15493SOL    HW147057   3.360   5.083   2.119  0.1264  0.5088 -0.2764
15493SOL    HW247058   3.239   5.117   2.204  0.8547 -0.0432  1.0049
15494SOL     OW47059   1.730   8.662   8.129  0.0180  0.6623 -0.5609
15494SOL    HW147060   1.747   8.640   8.220  0.7307 -1.0932 -1.0827
15494SOL    HW247061   1.646   8.708   8.131 -0.0875  0.4412  0.9450
15495SOL     OW47062   4.210   2.434   4.378 -0.0562 -0.6008  0.2015
15495SOL    HW147063   4.256   2.375   4.437  0.4488 -0.4155  0.0012
15495SOL    HW247064   4.167   2.498   4.435 -0.1888 -0.8636  0.3963
15496SOL     OW47065   7.286   1.608   4.630 -0.3319 -0.4328 -0.0323
15496SOL    HW147066   7.351   1.605   4.700 -1.0545 -0.5193  0.6499
15496SOL    HW247067   7.325   1.559   4.558 -0.3069 -1.8740  0.9364
15497SOL     OW47068   6.052   9.350   2.992  0.3120  0.2426  0.4398
15497SOL    HW147069   6.023   9.441   2.981 -1.9848 -0.3374  1.1031
15497SOL    HW247070   6.075   9.321   2.903 -0.4866  0.9944 -0.0253
15498SOL     OW47071   0.917   6.421   7.004  0.2014  0.1745  0.2485
15498SOL    HW147072   0.871   6.340   7.027  0.0096  0.2510  0.1362
15498SOL    HW247073   0.896   6.482   7.075 -0.1199  0.3057  0.0396
15499SOL     OW47074   0.338   0.902   0.093 -0.3887  0.8225  0.0022
15499SOL    HW147075   0.342   0.959   0.016 -1.8128  1.0142  0.0418
15499SOL    HW247076   0.384   0.822   0.067 -1.7144  0.4767 -1.4150
15500SOL     OW47077   4.124   8.635   9.962  0.1277 -0.2489  0.2393
15500SOL    HW147078   4.056   8.676   9.908 -0.0896  0.4058  0.9873
15500SOL    HW247079   4.075   8.582  10.025  0.3105  0.0265  0.6209
15501SOL     OW47080   2.272   5.826   6.327  0.0209 -0.5802 -0.1138
15501SOL    HW147081   2.219   5.758   6.370  0.7949 -1.4912 -0.5623
15501SOL    HW247082   2.257   5.905   6.380 -0.7095 -1.1493  0.5630
15502SOL     OW47083   0.084   0.483   2.637  0.3489 -0.2528 -0.4291
15502SOL    HW147084   0.075   0.575   2.661 -2.6807 -0.5747  0.1720
15502SOL    HW247085   0.090   0.437   2.722  1.3083 -0.6612 -0.7058
15503SOL     OW47086   5.215   6.053   8.535 -0.3282 -0.5784  0.0647
15503SOL    HW147087   5.189   5.961   8.534 -2.8743  0.0472  0.3281
15503SOL    HW247088   5.262   6.066   8.453  1.0312 -2.3202  0.5136
15504SOL     OW47089   0.671   2.744   9.453 -0.0387 -0.0622  0.3693
15504SOL    HW147090   0.716   2.828   9.448 -0.9627  0.4751  0.8681
15504SOL    HW247091   0.610   2.744   9.380 -0.9279  0.2465  1.0944
15505SOL     OW47092   8.650   7.381   5.847  0.2810 -0.0005 -0.5526
15505SOL    HW147093   8.688   7.452   5.794 -0.7903  0.7459 -0.3514
15505SOL    HW247094   8.669   7.406   5.937 -0.2800  0.1474 -0.4718
15506SOL     OW47095   7.078   2.550   5.327 -0.0057  0.0681 -0.2372
15506SOL    HW147096   7.122   2.604   5.393 -0.9141  0.3814  0.1218
15506SOL    HW247097   7.140   2.548   5.254  0.4056  0.9030  0.0720
15507SOL     OW47098   8.517   5.123   0.530 -0.4509  0.2646 -0.9380
15507SOL    HW147099   8.472   5.063   0.470 -0.3095  0.1294 -0.9075
15507SOL    HW247100   8.455   5.136   0.602  0.1855 -1.1900 -0.0920
15508SOL     OW47101   3.548   3.594   1.407  0.4045 -0.0137  0.4975
15508SOL    HW147102   3.573   3.508   1.373 -0.0522  0.6944 -1.7773
15508SOL    HW247103   3.630   3.633   1.435  0.4792 -1.6388  2.8672
15509SOL     OW47104   1.805   6.719   3.731  0.1042  0.1423  0.0168
15509SOL    HW147105   1.876   6.701   3.670 -1.5347  0.6409 -2.1454
15509SOL    HW247106   1.743   6.648   3.717  0.4013 -0.7070  2.4145
15510SOL     OW47107   7.120   9.082   0.089 -0.1210  0.3018 -0.4477
15510SOL    HW147108   7.141   9.158   0.035  0.0028  0.0698 -0.7290
15510SOL    HW247109   7.176   9.092   0.166 -0.0329  0.4455 -0.5285
15511SOL     OW47110   8.483   6.167   3.386 -0.3881 -0.4514  0.0459
15511SOL    HW147111   8.497   6.100   3.453 -2.3940 -0.5656  0.3889
15511SOL    HW247112   8.391   6.160   3.364 -0.6832  2.2546  0.1264
15512SOL     OW47113   4.898   2.224   2.099 -0.4482  0.3314 -0.5699
15512SOL    HW147114   4.926   2.292   2.037 -0.7062  1.8004  0.8580
15512SOL    HW247115   4.974   2.212   2.157 -0.3828 -0.6688 -0.8418
15513SOL     OW47116   5.929   6.021   8.936  0.2772  1.0186 -0.3582
15513SOL    HW147117   6.000   6.012   9.000  0.1324  0.8070 -0.2273
15513SOL    HW247118   5.958   6.092   8.878  0.4181  1.1969 -0.0710
15514SOL     OW47119   9.619   3.868   5.937  0.6439  0.6386  0.7233
15514SOL    HW147120   9.586   3.778   5.942  0.8991  0.5528  0.8808
15514SOL    HW247121   9.596   3.897   5.848  1.6012  0.0048  0.2499
15515SOL     OW47122   3.588   9.632   0.714 -0.7687  0.9328 -0.8990
15515SOL    HW147123   3.576   9.710   0.768 -0.4097  0.6695 -0.4218
15515SOL    HW247124   3.551   9.561   0.766  0.8021  0.4604 -0.3733
15516SOL     OW47125   2.315   3.910   6.787 -0.0573 -0.3506  0.2982
15516SOL    HW147126   2.378   3.981   6.786 -0.0491 -0.3597 -0.6772
15516SOL    HW247127   2.351   3.846   6.849  0.4399  0.0319  0.4031
15517SOL     OW47128   6.412   7.840   4.640  0.6460  0.0342 -0.3520
15517SOL    HW147129   6.334   7.894   4.626  0.5427  0.5694  1.8533
15517SOL    HW247130   6.455   7.838   4.555 -1.1032  0.7885 -1.3192
15518SOL     OW47131   0.294   9.707   5.307 -0.5809 -0.3052 -0.0576
15518SOL    HW147132   0.353   9.636   5.280 -1.5740 -1.0320 -0.3839
15518SOL    HW247133   0.228   9.709   5.238 -2.6498 -1.5553  1.7596
15519SOL     OW47134   8.455   2.015   5.267 -0.2044  0.3801 -0.5760
15519SOL    HW147135   8.422   1.977   5.185 -0.3339 -0.9045  0.0424
15519SOL    HW247136   8.381   2.012   5.327  0.7775 -1.9994  0.6520
15520SOL     OW47137   9.543   6.846   6.930 -0.0947  0.4363 -0.0631
15520SOL    HW147138   9.530   6.772   6.989  0.3870  0.2301 -0.2125
15520SOL    HW247139   9.462   6.896   6.936  1.4071  2.8944  4.2423
15521SOL     OW47140   3.427   8.756   1.953 -0.4501 -0.3244  0.4998
15521SOL    HW147141   3.389   8.802   2.028  1.5108 -1.0966  2.0350
15521SOL    HW247142   3.374   8.676   1.945  0.5174 -1.2019  2.3598
15522SOL     OW47143   9.092   5.941   4.319 -0.5212 -0.4692 -0.0661
15522SOL    HW147144   9.038   6.001   4.369 -0.7227 -0.6824 -0.0261
15522SOL    HW247145   9.180   5.952   4.354 -0.8533 -1.4539  1.1371
15523SOL     OW47146   9.268   5.484   0.866 -0.0330 -0.4169 -0.0045
15523SOL    HW147147   9.214   5.451   0.794 -0.9248  1.9177 -0.4876
15523SOL    HW247148   9.349   5.433   0.861 -0.5374 -1.1179 -1.8934
15524SOL     OW47149   7.818   0.569   5.752  0.6149  0.2688 -0.5030
15524SOL    HW147150   7.815   0.495   5.691  0.4309  0.8243 -1.1844
15524SOL    HW247151   7.738   0.561   5.803  1.6684 -1.3004  1.0163
15525SOL     OW47152   2.426   5.046   4.444 -0.6231  0.2016 -0.2300
15525SOL    HW147153   2.369   5.120   4.422 -1.4610 -0.7547 -1.4485
15525SOL    HW247154   2.502   5.057   4.387 -0.4940  0.4220 -0.0150
15526SOL     OW47155   2.073   2.580   3.994 -0.0196 -0.6576  0.1351
15526SOL    HW147156   2.083   2.660   3.943 -0.5997 -1.1392 -0.7666
15526SOL    HW247157   2.149   2.527   3.972 -0.4992 -1.0564 -0.6134
15527SOL     OW47158   5.849   9.449   3.939 -1.0500 -0.1107 -0.0248
15527SOL    HW147159   5.864   9.494   3.856 -2.2158 -2.5819 -1.7156
15527SOL    HW247160   5.770   9.489   3.975 -1.0677  0.3749 -0.5982
15528SOL     OW47161   5.375   2.765   4.408  0.1683 -0.1812 -0.4607
15528SOL    HW147162   5.364   2.845   4.458 -1.2417 -1.3165  1.1236
15528SOL    HW247163   5.365   2.793   4.317  2.6331  1.8993 -0.2304
15529SOL     OW47164   5.009   9.100   8.047 -0.1057 -0.9498  0.7030
15529SOL    HW147165   5.080   9.162   8.065 -0.6365 -0.0959 -0.0429
15529SOL    HW247166   5.046   9.014   8.069  2.2175 -0.8971 -2.2436
15530SOL     OW47167   2.234   2.688   5.821 -0.0950  0.7195  0.6428
15530SOL    HW147168   2.237   2.593   5.814  1.7493  0.5904  2.1134
15530SOL    HW247169   2.189   2.705   5.904 -2.1110  1.2489 -0.5011
15531SOL     OW47170   5.531   0.863   0.106 -0.2805  0.9941  0.3439
15531SOL    HW147171   5.600   0.928   0.116  1.0935 -0.2144 -0.6931
15531SOL    HW247172   5.451   0.914   0.095  0.7167  2.5089 -0.2434
15532SOL     OW47173   7.069   9.321   2.749  0.0268 -0.4671 -0.4091
15532SOL    HW147174   6.974   9.337   2.753 -0.3779 -2.5243 -0.4904
15532SOL    HW247175   7.086   9.304   2.656  0.3285 -0.8415 -0.2872
15533SOL     OW47176   1.561   4.117   3.512 -0.5659  0.1145  0.1463
15533SOL    HW147177   1.551   4.024   3.494 -0.4681  0.4658 -1.9343
15533SOL    HW247178   1.654   4.128   3.531 -0.5462 -0.1752  0.2169
15534SOL     OW47179   7.076   7.281   0.116  0.1582  0.2786 -0.2365
15534SOL    HW147180   7.168   7.286   0.143 -0.3234 -1.6736  2.1795
15534SOL    HW247181   7.029   7.330   0.183 -0.5539  1.8098 -1.8086
15535SOL     OW47182   2.288   9.007   7.126  0.2787  0.4231  0.6061
15535SOL    HW147183   2.231   8.930   7.125 -1.9545  2.0021  0.1632
15535SOL    HW247184   2.328   9.007   7.039 -1.9874  1.2815 -0.5285
15536SOL     OW47185   8.544   2.214   3.877 -0.8176  0.4120 -0.1923
15536SOL    HW147186   8.491   2.294   3.869 -1.1907 -0.0084 -3.5068
15536SOL    HW247187   8.480   2.144   3.892 -0.7506  0.4507  0.2648
15537SOL     OW47188   2.325   1.570   7.610  0.7721 -0.7403 -0.2539
15537SOL    HW147189   2.273   1.650   7.611 -0.0703 -1.2443  1.6002
15537SOL    HW247190   2.284   1.514   7.676  2.2616 -2.1076 -0.4182
15538SOL     OW47191   0.341   8.412   1.733  0.2907  0.3773  0.1645
15538SOL    HW147192   0.423   8.440   1.693  0.2370 -1.2209 -1.1720
15538SOL    HW247193   0.366   8.376   1.817  0.8715  0.5271  0.0561
15539SOL     OW47194   7.797   0.898   9.771  0.0069 -0.2438  0.7726
15539SOL    HW147195   7.892   0.891   9.784  0.1446 -1.5150 -0.6784
15539SOL    HW247196   7.787   0.960   9.699 -0.3056  0.2703  1.2496
15540SOL     OW47197   2.410   1.112   4.752  0.0643  0.0488 -0.4435
15540SOL    HW147198   2.387   1.046   4.819  0.3486  1.0597  0.6805
15540SOL    HW247199   2.450   1.061   4.682  0.9841 -0.9096  0.7269
15541SOL     OW47200   8.503   7.735   0.842  0.2376  0.2434 -0.4347
15541SOL    HW147201   8.431   7.713   0.783  1.7957 -1.4970 -1.8241
15541SOL    HW247202   8.554   7.801   0.795 -0.3070  1.2989  0.4382
15542SOL     OW47203   2.193   7.302   5.251  0.0435  0.4204 -0.0283
15542SOL    HW147204   2.246   7.225   5.233  0.2555  0.2396  1.2435
15542SOL    HW247205   2.175   7.297   5.345  0.6407  2.2533  0.2355
15543SOL     OW47206   3.392   2.100   4.568 -0.3239 -0.6698  0.3358
15543SOL    HW147207   3.485   2.079   4.579 -0.5704 -2.3953 -0.5745
15543SOL    HW247208   3.351   2.073   4.650 -0.0006  0.3659  0.8537
15544SOL     OW47209   6.050   0.580   3.949 -0.7465  0.7756  0.2258
15544SOL    HW147210   6.088   0.508   3.999 -0.5800  0.7117  0.0068
15544SOL    HW247211   6.098   0.580   3.866 -1.2237  0.6869 -0.0574
15545SOL     OW47212   1.591   2.300   9.328 -0.1935 -0.5879  0.7025
15545SOL    HW147213   1.604   2.358   9.403  1.7219 -1.5570  1.1688
15545SOL    HW247214   1.518   2.243   9.354 -0.0700 -0.4004  1.4963
15546SOL     OW47215   6.612   8.758   0.113 -0.4667  0.3317 -0.0859
15546SOL    HW147216   6.587   8.807   0.035  0.3232  1.8529  0.5790
15546SOL    HW247217   6.530   8.739   0.158 -0.7853  1.0533 -0.3540
15547SOL     OW47218   0.806   1.547   2.881  0.6609 -0.5203 -0.3344
15547SOL    HW147219   0.773   1.461   2.854  0.9434 -1.1352  1.1642
15547SOL    HW247220   0.895   1.530   2.912 -0.2400 -0.2586  2.6819
15548SOL     OW47221   0.278   7.501   1.668 -0.4596 -0.1257 -0.6675
15548SOL    HW147222   0.289   7.471   1.758  0.2509  0.0014 -0.7008
15548SOL    HW247223   0.366   7.497   1.631 -0.4536  1.2960 -0.8821
15549SOL     OW47224   8.153   8.715   9.881 -0.2554 -0.5027  0.2296
15549SOL    HW147225   8.187   8.686   9.966  1.2718 -0.7341 -0.4192
15549SOL    HW247226   8.175   8.644   9.820  0.5284  0.5253 -0.7399
15550SOL     OW47227   3.821   9.592   8.668 -0.1306  0.5728 -0.0759
15550SOL    HW147228   3.742   9.579   8.615 -0.1436  1.4195 -0.2743
15550SOL    HW247229   3.886   9.626   8.606  0.3865 -0.0830  0.0947
15551SOL     OW47230   2.877   6.703   7.260  0.1250  0.0951 -0.2013
15551SOL    HW147231   2.851   6.732   7.347 -0.9759 -0.7602 -0.2331
15551SOL    HW247232   2.868   6.781   7.205 -0.1841  0.3721  0.2421
15552SOL     OW47233   4.508   0.461   0.064 -0.2505  0.4818  0.1010
15552SOL    HW147234   4.566   0.400   0.018 -1.3602 -0.4795 -0.0522
15552SOL    HW247235   4.498   0.535   0.003  1.4233  1.0493  0.4565
15553SOL     OW47236   3.224   8.936   5.982 -0.1692  0.2748  0.0996
15553SOL    HW147237   3.256   8.846   5.988  1.4148  0.8248  0.1725
15553SOL    HW247238   3.130   8.928   5.996 -0.1795 -1.4545 -0.6371
15554SOL     OW47239   9.423   8.273   4.181  0.1128 -0.4076 -0.2999
15554SOL    HW147240   9.389   8.360   4.197 -0.7360 -0.3462 -2.1479
15554SOL    HW247241   9.518   8.281   4.194 -0.0133  0.6412  0.0581
15555SOL     OW47242   4.287   5.586   4.100  0.0745  0.0007  0.0275
15555SOL    HW147243   4.222   5.516   4.091  0.6447 -0.5008 -0.2022
15555SOL    HW247244   4.248   5.661   4.055 -0.0873 -0.4725 -0.6303
15556SOL     OW47245   6.960   3.431   3.707  0.0965 -0.3933  0.4348
15556SOL    HW147246   6.914   3.358   3.665 -1.0121 -0.5557  1.8589
15556SOL    HW247247   6.994   3.483   3.633  1.5015 -2.6523 -0.6035
15557SOL     OW47248   2.631   7.015   6.976  0.2211 -0.3638  0.1593
15557SOL    HW147249   2.679   7.000   6.895  0.1163  0.5252 -0.0808
15557SOL    HW247250   2.539   7.000   6.952  0.2219 -0.4136  0.1895
15558SOL     OW47251   3.757   9.804   3.819  0.4236 -0.0982  0.0157
15558SOL    HW147252   3.814   9.791   3.743 -0.1359 -1.1778 -0.2442
15558SOL    HW247253   3.687   9.860   3.786 -1.1470 -2.5070 -1.0342
15559SOL     OW47254   6.966   7.142   7.889 -0.2962 -0.0930 -0.1520
15559SOL    HW147255   6.921   7.227   7.888 -0.1889 -0.0181 -1.8114
15559SOL    HW247256   7.005   7.135   7.802  3.1008 -0.0653  1.2143
15560SOL     OW47257   7.725   1.642   0.054 -0.2182 -0.0966 -0.4729
15560SOL    HW147258   7.708   1.653  -0.039 -1.4039 -0.5878 -0.3336
15560SOL    HW247259   7.742   1.549   0.065  0.4159  0.0379 -0.2653
15561SOL     OW47260   1.360   4.615   9.420 -0.2208 -0.2394 -0.3270
15561SOL    HW147261   1.372   4.523   9.441 -0.3000 -0.3956 -0.9654
15561SOL    HW247262   1.265   4.626   9.412 -0.2194 -0.0721 -0.1295
15562SOL     OW47263   4.349   6.406   6.406  0.2497  0.2276  0.1660
15562SOL    HW147264   4.412   6.409   6.479  1.7383  2.2301 -1.0598
15562SOL    HW247265   4.282   6.470   6.430  0.2299  0.1898  0.2108
15563SOL     OW47266   3.792   2.202   0.803  0.2060 -0.4439  0.7117
15563SOL    HW147267   3.881   2.175   0.826  0.4412 -0.2154  0.1004
15563SOL    HW247268   3.753   2.228   0.886  0.9910  0.2400  0.8825
15564SOL     OW47269   4.331   9.481   1.942  0.0767  0.3631 -0.2754
15564SOL    HW147270   4.270   9.553   1.959  0.2380  0.1050  1.5399
15564SOL    HW247271   4.414   9.510   1.980  0.0430 -0.9153  0.8326
15565SOL     OW47272   8.185   4.005   1.677  0.6523 -0.3643  0.2188
15565SOL    HW147273   8.275   3.974   1.690  0.3272 -1.8680 -0.7491
15565SOL    HW247274   8.144   3.934   1.627 -0.8041  0.7276 -0.1664
15566SOL     OW47275   6.284   1.289   7.345  0.2387  0.1841 -0.0171
15566SOL    HW147276   6.267   1.224   7.413  2.2828  1.0387  1.3956
15566SOL    HW247277   6.238   1.367   7.375 -1.0854 -0.1782 -1.0248
15567SOL     OW47278   3.988   2.429   7.932 -0.1332 -0.3972  0.0525
15567SOL    HW147279   3.981   2.377   7.852 -0.3259 -0.8634  0.3672
15567SOL    HW247280   3.937   2.508   7.915 -1.9694 -1.4508  0.4750
15568SOL     OW47281   3.269   5.569   6.150 -0.1529  0.5035 -0.0270
15568SOL    HW147282   3.329   5.495   6.136 -0.4190 -0.0077  1.3443
15568SOL    HW247283   3.240   5.559   6.241 -2.3458  0.7191 -0.6392
15569SOL     OW47284   2.700   8.674   2.180 -0.0140  1.0988 -0.1912
15569SOL    HW147285   2.622   8.688   2.234  0.2593  1.2461  0.1713
15569SOL    HW247286   2.686   8.726   2.101 -0.9054  0.0414 -0.7547
15570SOL     OW47287   0.182   4.911   0.657 -0.0668 -0.0926  0.1098
15570SOL    HW147288   0.223   4.902   0.743  1.9125 -0.6783 -0.8322
15570SOL    HW247289   0.142   4.998   0.658 -0.1641 -0.1272  1.6281
15571SOL     OW47290   3.563   4.894   2.868 -0.3591  0.3306 -0.6901
15571SOL    HW147291   3.510   4.867   2.793  2.3093  1.2073 -3.0849
15571SOL    HW247292   3.653   4.871   2.844  0.9253  2.9118  1.1009
15572SOL     OW47293   4.580   5.739   6.255 -0.0760  0.7213 -0.2498
15572SOL    HW147294   4.534   5.823   6.267  0.3983  1.0434 -0.6630
15572SOL    HW247295   4.657   5.761   6.203  0.6520  0.2136  0.5919
15573SOL     OW47296   6.682   4.645   8.032  0.0053 -0.3911  0.5578
15573SOL    HW147297   6.766   4.608   8.008 -0.0840 -1.8061  2.2219
15573SOL    HW247298   6.617   4.583   7.998 -0.6213  1.9174 -2.9510
15574SOL     OW47299   8.661   7.122   8.508  0.2197 -0.0252  0.3494
15574SOL    HW147300   8.697   7.082   8.429  0.8756  2.4510 -0.6983
15574SOL    HW247301   8.737   7.149   8.559 -0.1792 -2.1898  2.2488
15575SOL     OW47302   2.632   9.012   5.440  0.0608  0.2909 -0.3179
15575SOL    HW147303   2.676   8.927   5.435 -1.4180 -0.6918  2.0038
15575SOL    HW247304   2.554   9.001   5.385 -0.0874  0.1661 -0.0841
15576SOL     OW47305   2.660   5.463   2.364 -0.4534 -0.6815 -0.2438
15576SOL    HW147306   2.643   5.533   2.427 -1.4166 -1.6193  0.5773
15576SOL    HW247307   2.754   5.469   2.346 -0.0545 -0.6585  1.6195
15577SOL     OW47308   0.346   8.063   4.593 -0.1600 -0.0146  0.1448
15577SOL    HW147309   0.269   8.062   4.650  0.4907 -0.0314  1.0260
15577SOL    HW247310   0.404   7.996   4.629  0.8085  0.8469  0.2234
15578SOL     OW47311   4.446   2.995   6.052  0.3668  0.1754 -0.1387
15578SOL    HW147312   4.370   2.944   6.025  0.3089 -0.1617  0.6180
15578SOL    HW247313   4.519   2.957   6.004  0.2837 -0.4761  0.2326
15579SOL     OW47314   8.800   6.663   7.004 -0.3008 -0.0089  0.2845
15579SOL    HW147315   8.721   6.716   7.019  0.4232  0.9454  0.8468
15579SOL    HW247316   8.790   6.631   6.915 -1.2079  0.3105  0.2563
15580SOL     OW47317   5.989   3.737   6.293  0.7229  0.4041  0.3223
15580SOL    HW147318   5.921   3.675   6.268  2.9164 -1.4413 -1.6078
15580SOL    HW247319   5.979   3.747   6.388 -0.3476 -2.1887  0.5760
15581SOL     OW47320   4.047   0.700   1.937  0.4667  0.1032 -0.0393
15581SOL    HW147321   4.066   0.723   2.028 -0.0068 -3.4599  1.0963
15581SOL    HW247322   3.999   0.776   1.904  2.4128  2.3805  1.9862
15582SOL     OW47323   2.072   6.576   5.249 -0.2080 -0.6324  0.0730
15582SOL    HW147324   2.033   6.490   5.232 -0.0400 -0.4221 -1.5976
15582SOL    HW247325   2.071   6.585   5.344 -2.6970 -1.3427  0.1803
15583SOL     OW47326   7.418   5.376   4.062 -0.3390  0.0811  0.4467
15583SOL    HW147327   7.459   5.462   4.069  0.6441 -0.1397 -1.6825
15583SOL    HW247328   7.440   5.332   4.144 -0.5537  1.7035  1.4119
15584SOL     OW47329   0.520   4.000   0.892  0.1390  0.1443  0.1112
15584SOL    HW147330   0.516   3.992   0.988  1.5148  1.6036  0.3299
15584SOL    HW247331   0.608   4.033   0.874  0.8290 -2.5141 -1.8943
15585SOL     OW47332   9.889   3.268   9.411  0.3102  0.0478 -0.3301
15585SOL    HW147333   9.864   3.360   9.400  1.1195  0.1275 -1.7131
15585SOL    HW247334   9.839   3.239   9.488 -2.6259  0.6680 -1.8584
15586SOL     OW47335   5.137   3.578   7.346  0.4951 -0.0209 -0.2110
15586SOL    HW147336   5.136   3.578   7.442 -0.0467  0.5421 -0.2109
15586SOL    HW247337   5.222   3.616   7.324  1.4691 -1.9630  0.0233
15587SOL     OW47338   2.744   3.771   7.831 -0.0299 -0.5445  0.4887
15587SOL    HW147339   2.748   3.857   7.789  0.0787 -0.5226  0.5455
15587SOL    HW247340   2.757   3.788   7.924  0.0172 -0.6259  0.4975
15588SOL     OW47341   1.326   4.841   7.498  0.6049 -0.1540  0.1717
15588SOL    HW147342   1.355   4.809   7.584  0.9554 -0.9384 -0.2338
15588SOL    HW247343   1.259   4.779   7.471  1.6787 -0.8937 -0.8681
15589SOL     OW47344   0.737   8.776   7.004 -0.5435  0.3077 -0.2305
15589SOL    HW147345   0.742   8.705   7.067  0.2865  0.5847  0.0195
15589SOL    HW247346   0.702   8.850   7.054 -1.8504 -0.0279 -0.5984
15590SOL     OW47347   1.990   3.216   0.373  0.1500  0.4254 -0.0516
15590SOL    HW147348   2.049   3.196   0.300  1.8703  0.8201  1.1723
15590SOL    HW247349   2.033   3.289   0.419 -1.4258  0.8785  0.7600
15591SOL     OW47350   3.744   5.873   0.931  0.1705 -0.6337 -0.1606
15591SOL    HW147351   3.742   5.956   0.882 -0.1717 -1.4238 -1.5181
15591SOL    HW247352   3.665   5.827   0.905 -0.6836 -0.5798  2.1075
15592SOL     OW47353   3.731   0.818   3.699  0.3498 -0.0758  0.2263
15592SOL    HW147354   3.643   0.817   3.661 -0.0523  2.1662  0.9819
15592SOL    HW247355   3.785   0.861   3.633  0.1043  1.8115  1.2071
15593SOL     OW47356   1.414   1.287   8.747 -0.2973 -0.3486 -0.0884
15593SOL    HW147357   1.359   1.222   8.790 -1.2492 -0.2758 -1.1749
15593SOL    HW247358   1.464   1.326   8.819 -0.5880 -1.4205  0.7323
15594SOL     OW47359   0.628   0.940   0.546 -0.3035 -0.4265 -0.0968
15594SOL    HW147360   0.692   0.979   0.486 -1.6939  1.6391 -0.3280
15594SOL    HW247361   0.678   0.873   0.592  1.0448 -1.5438 -2.9102
15595SOL     OW47362   9.872   1.537   6.366 -0.2031 -0.2778  0.2012
15595SOL    HW147363   9.862   1.607   6.301 -0.3940 -1.6259 -1.2794
15595SOL    HW247364   9.795   1.546   6.422  0.0953  1.0787  0.4244
15596SOL     OW47365   3.596   4.436   5.524 -0.1547 -0.0448 -0.4451
15596SOL    HW147366   3.635   4.469   5.604 -2.3932  1.3416  0.1412
15596SOL    HW247367   3.566   4.348   5.546  0.1315 -0.0493 -0.0740
15597SOL     OW47368   7.209   2.725   5.463 -0.2064 -0.4197 -0.1931
15597SOL    HW147369   7.174   2.788   5.526  0.2776  0.1960 -0.5279
15597SOL    HW247370   7.282   2.683   5.508  0.2786  0.1776 -0.4133
15598SOL     OW47371   1.455   2.327   5.015 -0.1065 -0.0954  0.2227
15598SOL    HW147372   1.407   2.321   4.933  0.1895  0.0089  0.0371
15598SOL    HW247373   1.541   2.288   4.996 -0.4978 -1.3063  0.8650
15599SOL     OW47374   0.881   2.130   0.455  0.2091  0.8732  0.3937
15599SOL    HW147375   0.955   2.080   0.420  0.9739  2.0616  0.2697
15599SOL    HW247376   0.895   2.219   0.424 -0.4628  1.4344  1.6364
15600SOL     OW47377   5.640   3.024   4.504 -0.2141 -0.0574 -0.2578
15600SOL    HW147378   5.669   3.003   4.415 -2.4012  3.2635 -1.9415
15600SOL    HW247379   5.545   3.018   4.499 -0.3531 -0.9208  2.2650
15601SOL     OW47380   9.054   2.322   1.354  0.1598 -0.2541 -0.2487
15601SOL    HW147381   8.962   2.344   1.338  0.5888  2.1748  0.2584
15601SOL    HW247382   9.067   2.337   1.447  0.6268 -2.6083  0.1322
15602SOL     OW47383   8.240   7.600   4.647 -0.4096 -0.1316 -0.3315
15602SOL    HW147384   8.271   7.600   4.556 -0.9081 -1.7998 -0.5292
15602SOL    HW247385   8.318   7.622   4.698  0.3344 -1.0199 -1.0492
15603SOL     OW47386   6.657   2.718   2.968  0.2050 -0.7612  0.3539
15603SOL    HW147387   6.577   2.665   2.979 -1.1269  0.5440 -2.1536
15603SOL    HW247388   6.723   2.655   2.939  0.1286 -1.8414  2.3343
15604SOL     OW47389   2.019   2.733   9.282 -0.3165 -0.3135  0.1436
15604SOL    HW147390   2.112   2.725   9.261  0.2977  0.4584  2.3304
15604SOL    HW247391   1.993   2.817   9.245  0.3094  0.2444  0.9211
15605SOL     OW47392   1.041   1.787   9.806  0.2438  0.3784 -0.3821
15605SOL    HW147393   0.989   1.799   9.726  0.1347  1.1056 -0.2161
15605SOL    HW247394   1.132   1.789   9.775  0.2111 -2.3565 -0.8671
15606SOL     OW47395   4.054   5.841   5.766  0.1110  0.1846 -0.2722
15606SOL    HW147396   4.148   5.838   5.748  0.1018  0.2324 -0.3282
15606SOL    HW247397   4.048   5.834   5.861  0.3737  3.8087  0.1535
15607SOL     OW47398   4.562   7.266   7.046 -0.0697 -0.1607  0.4022
15607SOL    HW147399   4.650   7.271   7.082 -0.4844 -1.0302  1.5945
15607SOL    HW247400   4.522   7.191   7.090 -1.6279  0.6391  0.4209
15608SOL     OW47401   2.922   2.292   5.989 -0.6477  0.1020 -0.2750
15608SOL    HW147402   2.915   2.245   6.072  0.7136 -1.1731 -0.8439
15608SOL    HW247403   2.885   2.232   5.924 -0.2658  0.4383 -0.8073
15609SOL     OW47404   3.980   2.185   8.709 -0.0009 -0.0434  0.1768
15609SOL    HW147405   4.046   2.192   8.778 -0.0883 -0.4429  0.3045
15609SOL    HW247406   4.023   2.222   8.632 -0.0401  0.7592  0.5301
15610SOL     OW47407   1.545   2.146   4.326  0.0013 -0.6137  0.4361
15610SOL    HW147408   1.618   2.172   4.270 -0.9619  0.4290 -0.3811
15610SOL    HW247409   1.572   2.171   4.414  0.2884  0.5576  0.0271
15611SOL     OW47410   1.141   8.953   6.124 -0.4381 -0.1622 -0.0260
15611SOL    HW147411   1.173   8.977   6.037  1.2105 -3.2433 -0.4010
15611SOL    HW247412   1.060   8.904   6.107  0.4514 -1.7110  0.0070
15612SOL     OW47413   6.857   1.991   9.417 -0.1700 -0.4163  0.7780
15612SOL    HW147414   6.914   1.923   9.454 -0.4497 -0.6203  0.8437
15612SOL    HW247415   6.915   2.045   9.364 -0.4518 -2.7661 -2.2401
15613SOL     OW47416   5.158   8.017   2.088  0.2606  0.3687  0.2898
15613SOL    HW147417   5.078   8.068   2.078  1.0635  2.1789  2.3421
15613SOL    HW247418   5.226   8.072   2.050  0.6464 -1.0337 -1.1759
15614SOL     OW47419   7.333   3.351   2.469  0.4378  0.4797 -0.5287
15614SOL    HW147420   7.409   3.370   2.413  1.7321 -2.4453  0.0687
15614SOL    HW247421   7.307   3.262   2.445 -1.0222  0.3502  1.2906
15615SOL     OW47422   7.820   5.419   1.640 -0.8092  0.0442  0.8056
15615SOL    HW147423   7.867   5.343   1.605  1.2640  1.3046  0.7251
15615SOL    HW247424   7.887   5.472   1.682 -1.4247  3.8050 -2.4593
15616SOL     OW47425   1.372   8.730   4.588  0.0671 -0.3391  0.3931
15616SOL    HW147426   1.286   8.769   4.600  0.5298  0.2462  2.1109
15616SOL    HW247427   1.362   8.670   4.514 -1.4281  0.7831 -0.3453
15617SOL     OW47428   2.515   8.238   3.947  0.2219  0.2074  0.1138
15617SOL    HW147429   2.442   8.257   4.007  0.8219  0.1895  0.8654
15617SOL    HW247430   2.482   8.167   3.892 -0.2209 -0.0113  0.6484
15618SOL     OW47431   3.404   1.549   9.183 -0.2237  0.4179  0.6104
15618SOL    HW147432   3.418   1.576   9.274 -0.9799 -1.0405  1.1909
15618SOL    HW247433   3.406   1.453   9.186 -1.4361  0.3237 -0.7072
15619SOL     OW47434   7.339   6.214   9.467  0.0565  0.3922  0.1559
15619SOL    HW147435   7.433   6.227   9.482  0.2477 -0.1116 -0.5575
15619SOL    HW247436   7.310   6.160   9.540  0.5360 -0.2847 -0.1475
15620SOL     OW47437   6.090   6.858   9.258  0.0963  0.5759  0.7518
15620SOL    HW147438   6.132   6.797   9.319 -1.6584 -0.6000  0.8370
15620SOL    HW247439   6.021   6.900   9.309  0.0378  1.2082  0.1626
15621SOL     OW47440   7.416   4.675   1.776 -0.1223 -0.2439  0.4100
15621SOL    HW147441   7.330   4.642   1.799 -0.5928  1.3610  1.1380
15621SOL    HW247442   7.398   4.754   1.724  0.9265 -0.7050 -0.6967
15622SOL     OW47443   9.381   3.566   5.750  0.0242 -0.5914 -0.1695
15622SOL    HW147444   9.411   3.601   5.666  0.6484 -1.7907 -0.4626
15622SOL    HW247445   9.304   3.514   5.728 -0.1324 -0.4694  0.0832
15623SOL     OW47446   1.490   3.157   6.315  0.1701  0.1653  0.0769
15623SOL    HW147447   1.525   3.160   6.226  0.9283 -2.4389  0.2201
15623SOL    HW247448   1.524   3.236   6.356  0.3174  1.1019 -1.7283
15624SOL     OW47449   7.933   7.012   2.574 -0.1151  0.0656  0.2088
15624SOL    HW147450   7.895   6.971   2.652 -0.8215  1.8676  0.8464
15624SOL    HW247451   8.002   7.069   2.608  0.5993 -0.2677 -0.6385
15625SOL     OW47452   1.946   3.628   9.007 -0.0995 -0.3449 -0.0890
15625SOL    HW147453   1.965   3.565   9.076  1.6041 -0.9791 -1.0810
15625SOL    HW247454   1.967   3.582   8.926 -0.7996  0.8259 -0.9712
15626SOL     OW47455   6.229   1.422   3.065 -0.5026  0.4017  0.2381
15626SOL    HW147456   6.231   1.497   3.006  0.7478  1.0191  1.0205
15626SOL    HW247457   6.158   1.441   3.125 -0.1321  1.0179  0.4899
15627SOL     OW47458   4.184   7.425   7.902 -0.1451  0.3096 -0.7540
15627SOL    HW147459   4.182   7.469   7.817  1.1508  0.0992 -0.9084
15627SOL    HW247460   4.252   7.359   7.894  0.2597  0.5234  0.5706
15628SOL     OW47461   5.681   8.365   1.085 -0.0792  0.5428 -0.2536
15628SOL    HW147462   5.766   8.408   1.090 -0.2230  1.2015 -2.4598
15628SOL    HW247463   5.677   8.331   0.996 -1.1157 -1.7039  0.5754
15629SOL     OW47464   3.490   9.810   1.507  0.1978 -0.4850 -0.6315
15629SOL    HW147465   3.534   9.740   1.459 -0.0087 -0.1332 -1.3464
15629SOL    HW247466   3.553   9.882   1.508 -0.0970 -0.2121 -1.0851
15630SOL     OW47467   3.807   7.958   2.142 -0.4892 -0.2235  0.1448
15630SOL    HW147468   3.898   7.960   2.113 -0.6794 -0.4587 -0.4767
15630SOL    HW247469   3.786   8.049   2.160 -0.9212  0.2225 -2.2536
15631SOL     OW47470   5.970   5.963   2.008  0.2916  0.2856  0.1831
15631SOL    HW147471   5.936   5.960   1.918  0.7193  0.7677 -0.0013
15631SOL    HW247472   6.060   5.931   2.000  0.6231  1.1673  0.2862
15632SOL     OW47473   9.033   0.916   3.969  0.2705 -0.1743 -0.3412
15632SOL    HW147474   9.053   0.860   3.894  0.5444  0.4340 -0.7253
15632SOL    HW247475   9.022   0.855   4.042 -0.2390 -0.7965 -0.9180
15633SOL     OW47476   3.521   0.885   8.738  0.4830  0.2134 -0.0921
15633SOL    HW147477   3.483   0.826   8.673 -2.4336 -1.6707  2.9316
15633SOL    HW247478   3.578   0.828   8.791 -0.3774  0.6316  1.3516
15634SOL     OW47479   1.865   0.101   0.658 -0.5196  0.5884 -0.0577
15634SOL    HW147480   1.912   0.053   0.590 -0.2729 -0.2437  0.6924
15634SOL    HW247481   1.930   0.117   0.726 -0.5717  2.0683 -0.3080
15635SOL     OW47482   1.972   7.940   6.196  0.2883  0.2003 -0.4606
15635SOL    HW147483   1.919   7.953   6.118  0.6028  3.1910 -0.2800
15635SOL    HW247484   1.916   7.890   6.255 -1.1117  0.5598 -1.4439
15636SOL     OW47485   4.640   7.958   0.950  0.2722 -0.5373  0.5062
15636SOL    HW147486   4.584   7.967   1.027  0.1333 -2.0026  0.6030
15636SOL    HW247487   4.720   7.918   0.983  0.4072 -0.7152 -0.0295
15637SOL     OW47488   9.547   8.875   0.602  0.1830  0.5240 -0.3173
15637SOL    HW147489   9.550   8.962   0.562  1.7957 -0.1162 -1.7346
15637SOL    HW247490   9.602   8.821   0.544 -2.1588 -1.8549 -0.5009
15638SOL     OW47491   6.269   2.897   0.923 -0.2070  0.4345 -0.1687
15638SOL    HW147492   6.321   2.957   0.869 -0.7545  0.1491 -1.0171
15638SOL    HW247493   6.259   2.818   0.870 -1.4567  0.4584  0.0001
15639SOL     OW47494   0.146   5.054   9.522 -0.4265 -0.3243 -0.1983
15639SOL    HW147495   0.081   5.111   9.565 -1.1336 -1.9289  0.9649
15639SOL    HW247496   0.121   5.055   9.430 -1.0264  0.4773 -0.0405
15640SOL     OW47497   7.546   1.140   6.860 -0.0329 -0.0422  0.2701
15640SOL    HW147498   7.524   1.163   6.950  0.5362  1.9287 -0.0517
15640SOL    HW247499   7.496   1.201   6.806  1.1970  0.1658 -0.6783
15641SOL     OW47500   8.178   0.602   6.316  0.5816 -0.5471 -0.9035
15641SOL    HW147501   8.129   0.682   6.299  0.2527 -0.0870  1.7668
15641SOL    HW247502   8.127   0.533   6.273  0.6547  0.5705 -2.8824
15642SOL     OW47503   0.096   6.161   5.979  0.1459  1.0130  0.3459
15642SOL    HW147504   0.049   6.097   5.925  0.4953  0.6061  0.5226
15642SOL    HW247505   0.066   6.246   5.946  0.4617  0.7724 -0.5763
15643SOL     OW47506   0.434   2.309   7.309  0.3195  0.6567 -0.5999
15643SOL    HW147507   0.517   2.341   7.275  0.4175  0.8380 -0.1887
15643SOL    HW247508   0.447   2.215   7.323  0.8389  0.9015  0.6097
15644SOL     OW47509   5.391   5.298   7.494 -0.2232 -0.1343  0.1425
15644SOL    HW147510   5.352   5.211   7.510 -1.6989  0.5124  0.2106
15644SOL    HW247511   5.343   5.356   7.553  0.0432  0.9006 -0.6497
15645SOL     OW47512   1.582   7.219   4.378 -0.1222 -0.2377  0.3163
15645SOL    HW147513   1.498   7.238   4.335 -0.0311  2.1729  1.0078
15645SOL    HW247514   1.562   7.227   4.472  1.1292  1.9344  0.4608
15646SOL     OW47515   5.810   5.152   3.695 -0.3885 -0.4193 -0.6724
15646SOL    HW147516   5.852   5.231   3.728 -0.9508 -0.6637  0.7219
15646SOL    HW247517   5.828   5.085   3.762  0.0802 -1.4841 -1.8225
15647SOL     OW47518   9.079   5.739   2.733  0.4660 -0.5504 -0.6049
15647SOL    HW147519   9.119   5.700   2.810  1.4883  0.6089 -0.5094
15647SOL    HW247520   9.134   5.710   2.660  0.9329  0.2528 -0.5907
15648SOL     OW47521   6.011   4.938   2.692  0.2052 -0.2558 -0.0755
15648SOL    HW147522   6.022   4.939   2.597  0.0915  0.5797 -0.0877
15648SOL    HW247523   5.982   5.026   2.714 -0.1756 -0.5610  0.6929
15649SOL     OW47524   4.019   0.083   1.422 -0.1827  0.1203  0.4093
15649SOL    HW147525   4.011   0.012   1.358 -1.8405 -0.0000  0.6921
15649SOL    HW247526   4.024   0.038   1.507 -0.6937  0.3147  0.5465
15650SOL     OW47527   5.298   3.238   4.760  0.2361  0.1162 -0.4325
15650SOL    HW147528   5.282   3.332   4.754 -1.4848 -0.1324 -0.2782
15650SOL    HW247529   5.281   3.216   4.852  0.7154 -0.3407 -0.4461
15651SOL     OW47530   5.010   5.743   2.635  0.5488 -0.3566 -0.2936
15651SOL    HW147531   4.992   5.821   2.687  1.0075 -1.9322  2.3866
15651SOL    HW247532   4.980   5.766   2.547  1.4467  3.1262  0.1517
15652SOL     OW47533   4.159   5.104   1.263  0.0361 -0.3440  0.1792
15652SOL    HW147534   4.174   5.050   1.340 -2.8241  1.2419  2.0328
15652SOL    HW247535   4.078   5.151   1.282  0.7783  2.3722 -2.5513
15653SOL     OW47536   2.659   0.752   3.067  0.1257  0.1212  0.3085
15653SOL    HW147537   2.581   0.793   3.104 -0.3628 -0.9626  0.5254
15653SOL    HW247538   2.716   0.825   3.044 -0.0429  0.8831  2.1465
15654SOL     OW47539   7.852   7.569   2.177 -0.0938  0.1156 -0.0569
15654SOL    HW147540   7.891   7.656   2.186 -1.8725  0.9884 -0.4464
15654SOL    HW247541   7.817   7.548   2.263 -0.9616  0.4403 -0.3248
15655SOL     OW47542   1.375   9.319   4.966  0.0812  0.3897  0.0942
15655SOL    HW147543   1.372   9.400   5.017 -1.0850 -0.1141  0.8765
15655SOL    HW247544   1.316   9.334   4.893  1.2998  0.8950 -0.8233
15656SOL     OW47545   2.599   8.777   3.406 -0.1296 -0.3848  0.2381
15656SOL    HW147546   2.544   8.852   3.382  1.0617  0.1076 -1.0492
15656SOL    HW247547   2.628   8.741   3.322  0.1385 -1.6753  0.8700
15657SOL     OW47548   2.267   1.642   9.026 -0.6383  0.0512 -0.5059
15657SOL    HW147549   2.351   1.688   9.026  0.8724 -2.4948 -1.5850
15657SOL    HW247550   2.250   1.622   8.934 -1.0267 -1.7693 -0.0872
15658SOL     OW47551   7.181   4.173   4.158  0.1894 -0.3080 -0.3502
15658SOL    HW147552   7.264   4.126   4.145 -0.5796 -1.9983  0.4938
15658SOL    HW247553   7.122   4.136   4.093 -0.8755 -1.7292  1.3425
15659SOL     OW47554   8.062   4.182   1.359  0.6269  0.1303  0.5535
15659SOL    HW147555   7.989   4.244   1.348  1.6193  1.1003 -1.0256
15659SOL    HW247556   8.117   4.221   1.426  1.0961  0.8454 -0.2270
15660SOL     OW47557   0.958   7.843   3.671  0.1282  0.2328  0.2083
15660SOL    HW147558   0.917   7.927   3.652  1.2749  0.9129  0.6553
15660SOL    HW247559   0.980   7.807   3.585 -1.3359 -0.1399 -0.0407
15661SOL     OW47560   2.549   3.112   5.624 -0.7046  0.5647  0.0311
15661SOL    HW147561   2.595   3.103   5.540  2.9380 -2.0723  2.0117
15661SOL    HW247562   2.536   3.022   5.653  0.6121  1.3319  3.4291
15662SOL     OW47563   9.357   5.251   1.076 -0.1939  0.2323  0.3323
15662SOL    HW147564   9.351   5.216   1.165 -0.3111 -0.4389  0.0710
15662SOL    HW247565   9.396   5.180   1.025 -1.9760 -0.1614 -0.5633
15663SOL     OW47566   4.076   6.819   3.984 -0.4261 -0.3919  0.2089
15663SOL    HW147567   3.985   6.807   4.011 -0.5161 -0.2194 -0.0143
15663SOL    HW247568   4.117   6.735   4.003 -1.0292 -1.0663 -1.2259
15664SOL     OW47569   9.552   1.385   1.901 -0.1375 -0.0317  0.5245
15664SOL    HW147570   9.458   1.387   1.916 -0.4401  0.4226 -1.2106
15664SOL    HW247571   9.568   1.456   1.838  1.3923  0.0316  0.9348
15665SOL     OW47572   6.312   8.560   6.925 -0.4404  0.1733  0.2629
15665SOL    HW147573   6.361   8.480   6.944 -0.8365  0.1072  1.0395
15665SOL    HW247574   6.373   8.631   6.947 -0.3764  0.0864  0.3674
15666SOL     OW47575   1.569   3.351   7.227  0.9881  0.0576  0.0288
15666SOL    HW147576   1.480   3.352   7.191  0.7301  0.4609  0.6625
15666SOL    HW247577   1.622   3.394   7.160  0.6066  0.3175 -0.1127
15667SOL     OW47578   5.367   4.098   1.022  0.0425 -0.7916 -0.1342
15667SOL    HW147579   5.422   4.148   0.961  1.6962  0.4216  2.1732
15667SOL    HW247580   5.420   4.021   1.044 -0.2372 -0.8676  0.2786
15668SOL     OW47581   7.162   0.383   5.025 -0.4426  0.1682  0.2798
15668SOL    HW147582   7.092   0.325   4.995  1.1556 -1.1000 -1.1963
15668SOL    HW247583   7.133   0.413   5.111 -2.1205 -1.4814  0.3423
15669SOL     OW47584   6.307   7.148   1.859  0.0969 -0.0423 -0.5213
15669SOL    HW147585   6.258   7.117   1.783 -2.7043  1.7660  0.3801
15669SOL    HW247586   6.304   7.075   1.921 -1.1067 -0.1474 -0.6788
15670SOL     OW47587   6.706   5.823   0.153  0.1509 -0.2506 -0.1608
15670SOL    HW147588   6.636   5.859   0.207 -0.3458 -0.3330 -0.7445
15670SOL    HW247589   6.773   5.796   0.216 -0.1284  0.2715  0.3729
15671SOL     OW47590   5.330   2.827   5.502  0.1598  0.4686 -0.1669
15671SOL    HW147591   5.332   2.917   5.471  0.0533  0.6677  0.3993
15671SOL    HW247592   5.258   2.787   5.453 -0.5440  1.0000  0.4073
15672SOL     OW47593   0.930   0.655   6.458  0.4220 -0.5577 -0.5173
15672SOL    HW147594   0.839   0.645   6.485 -0.2736 -2.6410 -3.1220
15672SOL    HW247595   0.934   0.741   6.416  0.4487  0.7577  1.9999
15673SOL     OW47596   3.388   8.281   3.664  0.4586  0.3302 -0.5881
15673SOL    HW147597   3.454   8.318   3.606  0.9636  0.0876 -0.1770
15673SOL    HW247598   3.330   8.232   3.606 -0.1624  1.6463 -1.1331
15674SOL     OW47599   1.718   1.277   3.839 -0.1974 -0.0571  0.4648
15674SOL    HW147600   1.738   1.294   3.931  1.8580  0.8133 -0.0796
15674SOL    HW247601   1.630   1.313   3.826 -0.4323 -0.0159  2.0263
15675SOL     OW47602   6.608   7.903   4.070 -0.0187  0.1803  0.0103
15675SOL    HW147603   6.541   7.836   4.083 -0.8170  0.4763 -2.1045
15675SOL    HW247604   6.559   7.980   4.043  1.0551  0.9752  0.2828
15676SOL     OW47605   7.646   7.800   8.270 -0.3998  0.2561 -0.2143
15676SOL    HW147606   7.691   7.846   8.199 -0.1873  0.4844  0.0648
15676SOL    HW247607   7.670   7.709   8.259  1.2218  0.5375  0.7112
15677SOL     OW47608   7.815   0.679   9.216  0.0708  0.3512  0.0825
15677SOL    HW147609   7.888   0.732   9.249 -0.5252  2.1225 -1.2535
15677SOL    HW247610   7.821   0.685   9.121 -0.9486 -0.7179 -0.0801
15678SOL     OW47611   7.247   1.331   5.431  0.5635 -0.4266  0.1680
15678SOL    HW147612   7.282   1.247   5.460  1.0267  0.3427  1.9705
15678SOL    HW247613   7.181   1.354   5.497  0.9647  0.9552  0.1269
15679SOL     OW47614   2.717   2.561   6.343 -0.0619 -0.1729  0.0533
15679SOL    HW147615   2.691   2.469   6.347  2.2276 -0.8320  1.9674
15679SOL    HW247616   2.646   2.604   6.294 -1.6423 -2.7596 -0.1073
15680SOL     OW47617   6.587   1.051   7.461  0.3853 -0.6392  0.3023
15680SOL    HW147618   6.624   1.049   7.373  0.4446 -0.2716  0.3178
15680SOL    HW247619   6.590   1.144   7.486  0.5753 -0.7745  0.7797
15681SOL     OW47620   5.159   8.938   5.625 -0.5858 -0.5046  0.0679
15681SOL    HW147621   5.094   9.001   5.594 -0.4658  1.1259  2.7730
15681SOL    HW247622   5.107   8.870   5.667 -0.6206 -0.7217 -0.3223
15682SOL     OW47623   7.727   3.028   1.354  0.1723  0.2337  0.4322
15682SOL    HW147624   7.750   2.935   1.355  0.3066  0.2672  0.8122
15682SOL    HW247625   7.744   3.057   1.444 -0.1758  0.5495  0.3961
15683SOL     OW47626   3.688   6.870   7.534  0.5897  0.0984  0.0701
15683SOL    HW147627   3.762   6.893   7.478  0.1524  0.8745 -0.1976
15683SOL    HW247628   3.692   6.933   7.606 -1.0170  1.5349 -1.0160
15684SOL     OW47629   7.944   7.068   4.975  0.3898 -0.6190  0.1459
15684SOL    HW147630   7.870   7.038   4.922  1.4315  0.3452 -1.9821
15684SOL    HW247631   8.016   7.010   4.950  1.4196  1.1195 -1.1094
15685SOL     OW47632   9.768   7.967   9.733  0.4663 -0.4397  0.2353
15685SOL    HW147633   9.693   7.964   9.792  0.8842 -0.9432  0.7422
15685SOL    HW247634   9.731   7.998   9.650 -0.0083  0.9040  0.9232
15686SOL     OW47635   7.638   9.859   9.922 -0.3702 -0.1163  0.3310
15686SOL    HW147636   7.647   9.950   9.951 -0.7100 -0.3052  1.0614
15686SOL    HW247637   7.668   9.807   9.997  1.3077 -0.6057 -0.6156
15687SOL     OW47638   7.005   4.115   6.006  0.3102 -0.1197 -0.2084
15687SOL    HW147639   6.958   4.182   5.958  1.4483  0.4349 -0.5811
15687SOL    HW247640   7.080   4.161   6.045  1.0081 -1.1308 -0.3214
15688SOL     OW47641   2.592   7.699   7.509  0.1171  0.1939 -0.2541
15688SOL    HW147642   2.635   7.613   7.501 -1.9015 -0.8366 -0.6880
15688SOL    HW247643   2.506   7.686   7.469 -0.3003  2.4032 -0.1693
15689SOL     OW47644   9.187   2.322   1.602  0.4222 -0.4537  0.1264
15689SOL    HW147645   9.149   2.235   1.613 -0.3523 -0.1656 -0.1892
15689SOL    HW247646   9.187   2.360   1.690 -3.4111  0.8960 -0.2835
15690SOL     OW47647   0.453   0.741   6.028 -0.2412 -0.7000 -0.1244
15690SOL    HW147648   0.421   0.654   6.006 -1.1121 -0.5800  0.6482
15690SOL    HW247649   0.476   0.736   6.120  0.5203 -0.3424 -0.2871
15691SOL     OW47650   1.346   5.425   2.887 -0.0068  0.0173 -0.1617
15691SOL    HW147651   1.426   5.413   2.837  0.4101 -1.3360  0.7823
15691SOL    HW247652   1.375   5.443   2.976 -0.7175 -1.2242  0.3516
15692SOL     OW47653   8.224   3.948   8.685 -0.0530  0.2485  0.0167
15692SOL    HW147654   8.209   3.889   8.611 -1.6929 -0.0942  0.5757
15692SOL    HW247655   8.286   4.013   8.653 -1.4237  0.6586 -1.9774
15693SOL     OW47656   3.265   2.855   5.371  0.0683 -0.0812 -0.3870
15693SOL    HW147657   3.275   2.902   5.454 -0.1200  0.8780 -0.9011
15693SOL    HW247658   3.292   2.765   5.392  1.1605  0.4067  0.4235
15694SOL     OW47659   4.117   7.606   1.287  0.3322  0.0587  0.0689
15694SOL    HW147660   4.069   7.555   1.222  0.2989 -1.5963  1.3302
15694SOL    HW247661   4.066   7.597   1.367  0.7087  1.5251  0.5097
15695SOL     OW47662   7.807   1.611   4.312  0.5556  0.3517  0.0501
15695SOL    HW147663   7.895   1.591   4.279  0.3123 -1.6863  0.5270
15695SOL    HW247664   7.753   1.619   4.233  0.9082  0.3606 -0.1918
15696SOL     OW47665   3.139   1.427   2.955 -0.3520 -0.2769  0.1065
15696SOL    HW147666   3.133   1.522   2.943 -0.2306 -0.3251 -0.3797
15696SOL    HW247667   3.073   1.392   2.895 -0.0671 -0.5193 -0.0664
15697SOL     OW47668   9.809   1.061   7.372 -0.2472  0.0283 -0.4496
15697SOL    HW147669   9.779   1.128   7.433 -0.5879 -1.5366  1.1913
15697SOL    HW247670   9.866   1.107   7.311  1.1111  1.4672  1.7853
15698SOL     OW47671   5.127   3.056   1.100  0.1844  0.2069 -0.0166
15698SOL    HW147672   5.163   2.979   1.143 -0.7082 -0.1971  0.0247
15698SOL    HW247673   5.092   3.109   1.173  1.8594  1.2515  0.0838
15699SOL     OW47674   0.051   0.270   8.458  0.4751 -0.1924 -0.1586
15699SOL    HW147675   0.132   0.311   8.426 -0.4046  2.7650  1.0212
15699SOL    HW247676   0.058   0.275   8.554 -0.3212 -1.6404  0.0019
15700SOL     OW47677   6.944   1.459   1.776  0.1088 -0.9491  0.3868
15700SOL    HW147678   6.899   1.389   1.823 -0.4178  0.4035  2.0029
15700SOL    HW247679   6.893   1.538   1.795  2.0386  0.3111  0.6826
15701SOL     OW47680   2.305   9.878   8.792 -0.4570  0.1714  0.0260
15701SOL    HW147681   2.356   9.859   8.713  0.3186  0.8568  0.3487
15701SOL    HW247682   2.353   9.835   8.862 -0.6023  0.4002  0.2645
15702SOL     OW47683   1.274   0.094   1.559 -0.1566 -0.1100 -0.4261
15702SOL    HW147684   1.230   0.091   1.644 -1.4504 -1.9441 -1.1022
15702SOL    HW247685   1.367   0.086   1.581 -0.4606 -0.5252  0.8190
15703SOL     OW47686   3.113   1.837   6.397  0.1071 -0.6239  0.0994
15703SOL    HW147687   3.182   1.788   6.353  1.4430 -0.7404  2.2336
15703SOL    HW247688   3.145   1.927   6.400 -0.4927 -0.3909 -0.1376
15704SOL     OW47689   6.713   4.971   1.804 -0.0983 -0.1160 -0.2124
15704SOL    HW147690   6.625   4.956   1.837  0.4220  0.2846  1.4505
15704SOL    HW247691   6.764   4.897   1.836  0.1643 -0.4488 -1.3311
15705SOL     OW47692   3.998   5.055   8.466  0.2013  0.5166 -0.5414
15705SOL    HW147693   3.927   5.029   8.525 -0.2865  0.6203 -1.0658
15705SOL    HW247694   3.976   5.012   8.383  0.5993  0.7793 -0.7847
15706SOL     OW47695   6.663   2.925   3.552 -0.1894 -0.4184  0.4189
15706SOL    HW147696   6.617   2.959   3.475  0.3361 -0.3067  0.1503
15706SOL    HW247697   6.650   2.992   3.619 -0.8918 -0.6480  0.5253
15707SOL     OW47698   5.264   1.360   7.113  0.0297  0.1867  0.1890
15707SOL    HW147699   5.344   1.407   7.138  0.3413 -0.0904 -0.2679
15707SOL    HW247700   5.197   1.428   7.108  0.4368  0.5632 -0.2850
15708SOL     OW47701   7.240   6.175   8.797 -0.1871 -0.2612  0.1612
15708SOL    HW147702   7.311   6.144   8.853 -1.4590 -2.4020  0.7257
15708SOL    HW247703   7.162   6.132   8.832 -1.7532  1.7909 -0.5825
15709SOL     OW47704   3.338   4.967   8.283 -0.1378  0.1717  0.0010
15709SOL    HW147705   3.425   4.929   8.267 -0.3445 -0.9718  1.4388
15709SOL    HW247706   3.309   4.994   8.196  1.2920 -0.2215 -0.6482
15710SOL     OW47707   3.727   4.592   5.202  0.0267  0.2587 -0.1447
15710SOL    HW147708   3.728   4.550   5.116 -0.5704 -0.9915  0.4385
15710SOL    HW247709   3.651   4.555   5.246  0.8063  0.2518  1.2364
15711SOL     OW47710   5.310   6.173   9.708 -0.1223 -0.1819 -0.7503
15711SOL    HW147711   5.334   6.111   9.639  0.2457 -0.8590 -0.0384
15711SOL    HW247712   5.239   6.130   9.755  1.4476 -1.0373  0.9934
15712SOL     OW47713   3.749   7.186   6.800  0.0791  0.0434  0.0035
15712SOL    HW147714   3.740   7.232   6.884 -1.3166 -1.2869  0.6315
15712SOL    HW247715   3.822   7.126   6.813 -1.5932 -1.8653  1.1656
15713SOL     OW47716   7.526   0.865   0.956 -0.0677  0.0033 -0.5913
15713SOL    HW147717   7.620   0.873   0.967  0.0975  0.0740 -1.8695
15713SOL    HW247718   7.490   0.877   1.044  1.0605  0.6967 -0.2061
15714SOL     OW47719   1.752   8.359   2.329 -0.7586 -0.6591  0.1377
15714SOL    HW147720   1.816   8.291   2.348 -1.3875 -1.4408 -0.4796
15714SOL    HW247721   1.772   8.429   2.392  1.4588 -0.3623 -0.8054
15715SOL     OW47722   9.559   7.311   3.081 -0.1444 -0.1657 -0.2582
15715SOL    HW147723   9.592   7.222   3.091 -2.6959 -1.4602 -2.0931
15715SOL    HW247724   9.621   7.366   3.129  1.6145 -2.8873  0.7984
15716SOL     OW47725   3.834   0.706   7.712  0.0963  0.6914 -0.3701
15716SOL    HW147726   3.842   0.611   7.711  2.5336  0.8180 -0.9214
15716SOL    HW247727   3.778   0.726   7.637 -3.0476 -0.3439  1.4939
15717SOL     OW47728   7.211   0.172   5.859  0.1713 -0.1600  0.3195
15717SOL    HW147729   7.125   0.194   5.896  0.4219 -0.1374  0.9072
15717SOL    HW247730   7.243   0.254   5.823  0.8003  0.3255  1.8846
15718SOL     OW47731   2.824   2.370   7.356 -0.4812 -0.2211 -0.2387
15718SOL    HW147732   2.898   2.313   7.374 -0.6451 -0.3603 -0.0090
15718SOL    HW247733   2.830   2.439   7.422 -2.2749 -1.8473  1.7588
15719SOL     OW47734   7.400   3.764   9.350  0.3605  0.2683  0.3612
15719SOL    HW147735   7.354   3.698   9.297 -0.0919  0.7715  0.1210
15719SOL    HW247736   7.375   3.848   9.312  0.4437  0.6161  1.0534
15720SOL     OW47737   5.507   3.699   5.225  0.5688 -0.6870 -0.2378
15720SOL    HW147738   5.428   3.677   5.174  0.4227  0.1225 -0.3832
15720SOL    HW247739   5.560   3.751   5.164  0.0136  1.0315  0.6572
15721SOL     OW47740   9.158   4.160   6.286  0.2200 -0.4068  0.1444
15721SOL    HW147741   9.115   4.151   6.201  0.4289 -0.8543  0.0821
15721SOL    HW247742   9.228   4.094   6.284  1.3208  0.7181 -0.0178
15722SOL     OW47743   6.874   6.177   7.723  0.0411  0.2376  0.5685
15722SOL    HW147744   6.857   6.245   7.657  2.6342 -0.1978 -0.6678
15722SOL    HW247745   6.871   6.224   7.807 -0.1930  1.4814 -0.1062
15723SOL     OW47746   7.132   0.279   2.918  0.6285  0.4558  0.7155
15723SOL    HW147747   7.213   0.321   2.947  0.5835  0.6515  0.5552
15723SOL    HW247748   7.071   0.292   2.991  0.0962  2.1144  0.0307
15724SOL     OW47749   9.350   7.285   2.604 -0.7850  0.1930  0.3454
15724SOL    HW147750   9.317   7.364   2.646  0.4516 -0.0631  1.8971
15724SOL    HW247751   9.358   7.221   2.675  0.9074 -0.4101 -0.3206
15725SOL     OW47752   1.424   6.116   9.264 -0.0652 -0.2920 -0.0991
15725SOL    HW147753   1.511   6.084   9.286 -0.4312 -1.1940  0.1024
15725SOL    HW247754   1.428   6.210   9.278  1.2367 -0.1268 -1.3147
15726SOL     OW47755   4.837   0.984   9.452  0.3588  0.0801 -0.1899
15726SOL    HW147756   4.751   1.025   9.442 -0.1357 -0.1313  2.4425
15726SOL    HW247757   4.818   0.892   9.471  1.2764 -0.4002 -1.4534
15727SOL     OW47758   0.733   4.466   0.570  0.6910  0.0510 -0.0151
15727SOL    HW147759   0.748   4.502   0.657 -0.0769 -0.5732  0.3814
15727SOL    HW247760   0.816   4.480   0.524  1.4081 -0.4209  1.0966
15728SOL     OW47761   6.518   8.853   1.263  0.4646  0.6195 -0.2079
15728SOL    HW147762   6.517   8.799   1.342  1.0189  0.4858 -0.2830
15728SOL    HW247763   6.545   8.792   1.194  0.8578  0.9378 -0.3350
15729SOL     OW47764   5.195   1.772   9.137 -0.1650 -0.5782  0.2164
15729SOL    HW147765   5.286   1.748   9.152  0.5453  1.2467 -0.8126
15729SOL    HW247766   5.168   1.720   9.062  1.1961  1.2751 -1.6832
15730SOL     OW47767   0.845   8.847   6.462 -0.7286  0.3643  0.0695
15730SOL    HW147768   0.925   8.899   6.468 -1.2370  1.0661  1.0278
15730SOL    HW247769   0.787   8.899   6.406 -0.3314 -0.4119 -1.0945
15731SOL     OW47770   6.645   2.732   9.528 -0.3536 -0.6102  0.2248
15731SOL    HW147771   6.625   2.639   9.542 -2.4539 -0.5502 -1.7791
15731SOL    HW247772   6.566   2.767   9.487  0.5347  2.0098  0.5861
15732SOL     OW47773   4.647   3.454   9.023 -0.2729 -0.1452 -0.1567
15732SOL    HW147774   4.741   3.453   9.041  0.1592  1.7551 -1.9404
15732SOL    HW247775   4.621   3.546   9.036 -1.3573 -0.1561 -1.9355
15733SOL     OW47776   2.158   9.646   8.506 -0.5212  0.4248  0.8691
15733SOL    HW147777   2.193   9.562   8.477  1.1019  1.5805 -0.7759
15733SOL    HW247778   2.231   9.688   8.552 -1.1907  1.1082  1.3454
15734SOL     OW47779   4.272   0.472   8.875  0.2863 -0.2894  0.6493
15734SOL    HW147780   4.319   0.394   8.907 -0.2258 -0.0469  2.0618
15734SOL    HW247781   4.325   0.503   8.801  1.1841 -1.2552  0.8621
15735SOL     OW47782   9.073   7.068   7.262 -0.3275 -0.1206 -0.4611
15735SOL    HW147783   9.068   7.093   7.170 -0.5914 -0.1918 -0.4663
15735SOL    HW247784   9.161   7.032   7.272 -0.1001  0.3915 -0.5573
15736SOL     OW47785   1.596   0.463   7.808 -0.1563 -0.1174 -0.1333
15736SOL    HW147786   1.644   0.522   7.865 -0.5418  1.4343 -1.3571
15736SOL    HW247787   1.535   0.418   7.866  0.5114  0.2857  0.9012
15737SOL     OW47788   1.578   8.421   1.781 -0.4240  0.2481  0.0208
15737SOL    HW147789   1.665   8.445   1.748  0.2236  1.9467  2.6403
15737SOL    HW247790   1.546   8.356   1.719  1.0589  2.3626 -3.2089
15738SOL     OW47791   1.816   6.660   8.420 -0.6077  0.4415 -0.0495
15738SOL    HW147792   1.804   6.577   8.466 -2.2672  0.2777 -0.7020
15738SOL    HW247793   1.777   6.645   8.333  0.2037  1.5112 -0.6208
15739SOL     OW47794   4.056   0.100   4.601  0.2452 -0.4223 -0.0240
15739SOL    HW147795   3.966   0.121   4.576  0.4370 -1.0926 -1.3449
15739SOL    HW247796   4.055   0.101   4.697 -0.8672  0.7823 -0.0166
15740SOL     OW47797   4.516   9.312   9.040 -0.7056  0.2114 -0.7129
15740SOL    HW147798   4.440   9.269   8.999 -1.4927  0.4849  0.4246
15740SOL    HW247799   4.554   9.244   9.097  0.1301 -0.0336 -1.5323
15741SOL     OW47800   6.203   0.808   7.030 -0.6988  0.2988  0.1831
15741SOL    HW147801   6.222   0.840   6.942 -1.3178  0.1154 -0.0222
15741SOL    HW247802   6.288   0.778   7.064 -0.9968 -3.4522 -1.8772
15742SOL     OW47803   0.898   3.973   4.420  0.2067  0.0822  0.1503
15742SOL    HW147804   0.896   4.067   4.439  0.5344  0.2396 -0.5535
15742SOL    HW247805   0.985   3.944   4.446 -0.6606 -0.5359  2.5902
15743SOL     OW47806   3.010   7.709   5.470 -0.0507  0.2584 -0.2093
15743SOL    HW147807   2.955   7.670   5.402 -0.6086  0.7900 -0.0715
15743SOL    HW247808   3.085   7.746   5.423 -0.0378 -0.0635 -0.4438
15744SOL     OW47809   7.754   6.316   6.254 -0.2124 -0.3402 -0.0680
15744SOL    HW147810   7.829   6.342   6.202 -0.6239  0.1541 -0.4252
15744SOL    HW247811   7.707   6.253   6.199 -0.9873  0.6512 -0.5813
15745SOL     OW47812   3.374   6.184   7.383 -0.2164  0.1872  0.1344
15745SOL    HW147813   3.335   6.097   7.391 -0.3574  0.4108  3.0073
15745SOL    HW247814   3.300   6.245   7.385 -0.0919  0.4298 -1.4170
15746SOL     OW47815   6.381   2.960   4.490 -0.0713  0.1898  0.0994
15746SOL    HW147816   6.374   3.011   4.571  0.1286 -1.5233  1.2550
15746SOL    HW247817   6.460   2.907   4.502  0.0516  0.0168 -1.3050
15747SOL     OW47818   3.715   5.082   0.880  0.2869 -0.2416  0.0552
15747SOL    HW147819   3.792   5.138   0.885 -2.2955  3.9202 -1.2580
15747SOL    HW247820   3.683   5.078   0.970  0.8188 -0.1447  0.2532
15748SOL     OW47821   3.737   8.576   6.319 -0.3159 -0.0197  0.5148
15748SOL    HW147822   3.814   8.537   6.277  0.0305  1.7278 -0.5761
15748SOL    HW247823   3.752   8.564   6.413  0.2361 -1.5852  0.2573
15749SOL     OW47824   2.327   4.722   0.637  0.1629  0.0464 -0.1198
15749SOL    HW147825   2.236   4.751   0.644 -0.4931 -1.9610  0.6861
15749SOL    HW247826   2.379   4.798   0.661 -1.2359  1.5281 -1.4926
15750SOL     OW47827   4.295   9.927   5.476 -0.5992  0.1237  0.4566
15750SOL    HW147828   4.202   9.945   5.492 -1.2506 -3.0291  0.7398
15750SOL    HW247829   4.298   9.894   5.386  0.8369  3.1679 -0.7699
15751SOL     OW47830   0.588   5.775   1.402  0.0993  0.6405 -0.0965
15751SOL    HW147831   0.650   5.725   1.454 -0.0178  0.6025  0.0056
15751SOL    HW247832   0.593   5.864   1.437  0.8631  0.8822 -0.7675
15752SOL     OW47833   2.550   0.684   2.600 -0.0194  0.2028 -0.2172
15752SOL    HW147834   2.550   0.616   2.532 -0.0473  0.2138 -0.2281
15752SOL    HW247835   2.576   0.639   2.680  2.7448  0.6756 -0.7405
15753SOL     OW47836   8.140   0.429   7.373 -0.5240 -0.3260  0.3833
15753SOL    HW147837   8.110   0.505   7.323 -0.5496 -0.4239  0.2504
15753SOL    HW247838   8.061   0.391   7.410 -0.6001 -0.7698 -0.2283
15754SOL     OW47839   6.459   1.516   3.161  0.6634 -0.8634  0.1321
15754SOL    HW147840   6.378   1.474   3.135  1.2183 -2.3537  0.6758
15754SOL    HW247841   6.527   1.452   3.140  1.6479  0.1505  0.1391
15755SOL     OW47842   1.863   2.821   0.083 -0.1622 -0.3685  0.0442
15755SOL    HW147843   1.939   2.830   0.141 -0.2075 -2.3892  0.4940
15755SOL    HW247844   1.827   2.910   0.077  2.2995  0.6834 -0.3043
15756SOL     OW47845   0.421   9.856   0.026 -0.5172  0.2220  0.3969
15756SOL    HW147846   0.379   9.928   0.072 -2.6193 -0.5842 -0.1687
15756SOL    HW247847   0.370   9.779   0.051  0.4979 -0.7803 -0.5178
15757SOL     OW47848   1.388   4.576   9.743  0.3918  0.1024  0.4076
15757SOL    HW147849   1.303   4.545   9.711  0.5144  0.9971 -0.8524
15757SOL    HW247850   1.441   4.497   9.751  0.1114 -0.2370 -0.8944
15758SOL     OW47851   1.772   3.274   3.594 -0.0867 -0.8179  0.4122
15758SOL    HW147852   1.812   3.360   3.610 -0.1085 -0.4555 -1.3334
15758SOL    HW247853   1.683   3.282   3.630  0.0001 -0.1999  0.4999
15759SOL     OW47854   9.651   6.378   9.371 -0.2784 -0.1277  0.2874
15759SOL    HW147855   9.742   6.405   9.382 -0.3249  0.3051 -0.3465
15759SOL    HW247856   9.640   6.303   9.430  0.6403 -0.5256 -0.0379
15760SOL     OW47857   9.885   9.499   1.101 -0.7624 -0.3269  0.7638
15760SOL    HW147858   9.836   9.422   1.070 -1.7877 -0.0465  1.6016
15760SOL    HW247859   9.931   9.467   1.179 -1.2982 -0.0648  1.1913
15761SOL     OW47860   1.838   0.405   0.729 -0.0567 -0.0849 -0.5611
15761SOL    HW147861   1.924   0.385   0.693  0.5360  0.1928  0.6346
15761SOL    HW247862   1.777   0.390   0.657  0.9244 -0.8810 -1.2498
15762SOL     OW47863   6.919   7.001   8.243  0.5279 -0.4470  0.2057
15762SOL    HW147864   6.963   6.939   8.185  2.4717  0.4913  0.5943
15762SOL    HW247865   6.978   7.010   8.317  0.0375  1.4292  0.4149
15763SOL     OW47866   2.088   7.892   4.382  0.7967  0.3713  0.1839
15763SOL    HW147867   2.009   7.910   4.433  0.2087 -1.2136 -0.1140
15763SOL    HW247868   2.147   7.848   4.444  0.1404 -1.4220 -0.4086
15764SOL     OW47869   0.943   3.582   7.458  0.2219  0.7499 -0.0595
15764SOL    HW147870   0.930   3.501   7.410 -1.6561  0.9059  0.1212
15764SOL    HW247871   0.856   3.622   7.463  0.4714  1.1653  2.6657
15765SOL     OW47872   0.114   0.714   6.860 -0.0256 -0.4772  0.0760
15765SOL    HW147873   0.037   0.717   6.917 -0.5709 -0.7571 -0.6146
15765SOL    HW247874   0.189   0.711   6.919 -0.5910 -1.2888  0.7833
15766SOL     OW47875   9.962   6.407   4.483  0.8633  0.0417  0.4166
15766SOL    HW147876   9.936   6.346   4.551 -0.6966  1.2329  0.9622
15766SOL    HW247877   9.996   6.352   4.413  1.1199 -1.3086  1.5504
15767SOL     OW47878   7.810   9.298   1.738  0.2785  0.5443 -0.1708
15767SOL    HW147879   7.819   9.252   1.821 -1.7398  0.7412  0.2017
15767SOL    HW247880   7.818   9.391   1.761  2.1392  0.5279 -0.5966
15768SOL     OW47881   3.468   1.696   5.709  0.3324  0.0628  0.3379
15768SOL    HW147882   3.437   1.676   5.798  1.1206 -1.4674  0.3059
15768SOL    HW247883   3.495   1.612   5.674  3.8818  1.1088  0.1506
15769SOL     OW47884   1.565   6.056   7.841  0.4807 -0.8853 -0.1475
15769SOL    HW147885   1.599   6.042   7.929  0.4544  0.6966  0.1417
15769SOL    HW247886   1.519   5.975   7.820  0.7570 -1.4072  1.1592
15770SOL     OW47887   5.813   7.285   9.492 -0.5936  0.2477  0.0628
15770SOL    HW147888   5.747   7.347   9.461 -0.1869  0.5223 -0.2692
15770SOL    HW247889   5.888   7.300   9.435  0.1252  0.6504  1.0868
15771SOL     OW47890   9.544   4.868   7.333 -0.4747 -0.7893  0.5410
15771SOL    HW147891   9.478   4.832   7.274  1.8865 -3.3134 -0.7798
15771SOL    HW247892   9.557   4.958   7.304 -1.2653 -1.1659 -1.0513
15772SOL     OW47893   4.482   1.973   5.300 -0.0649 -0.5714 -0.1587
15772SOL    HW147894   4.406   1.969   5.242 -0.7489  3.5698  0.1704
15772SOL    HW247895   4.446   1.957   5.387 -0.3413  0.1075 -0.1438
15773SOL     OW47896   4.104   7.868   4.231  0.4563  0.1290 -0.0285
15773SOL    HW147897   4.034   7.923   4.266 -0.0230 -0.5523  0.0885
15773SOL    HW247898   4.138   7.918   4.156  0.4460  0.8661  0.4459
15774SOL     OW47899   8.200   9.635   8.211 -0.4603  0.7708  0.3886
15774SOL    HW147900   8.141   9.599   8.145  0.2176 -0.5270  0.4543
15774SOL    HW247901   8.275   9.575   8.212 -0.5043  0.6747  2.3993
15775SOL     OW47902   3.836   3.281   9.008  0.0595  0.8209 -0.2346
15775SOL    HW147903   3.870   3.371   9.007  0.7644  0.5557 -1.4007
15775SOL    HW247904   3.857   3.246   8.921  0.6332 -0.7804  0.5039
15776SOL     OW47905   6.413   6.339   6.746 -0.1064  0.1584  0.1675
15776SOL    HW147906   6.323   6.339   6.713 -0.2868  1.7566  0.5718
15776SOL    HW247907   6.467   6.364   6.671  0.1154 -1.4345 -0.2493
15777SOL     OW47908   1.250   0.500   0.155  0.2117  0.2382 -0.0781
15777SOL    HW147909   1.206   0.539   0.231  0.9551  1.3347 -0.1847
15777SOL    HW247910   1.325   0.558   0.139 -0.5075  0.6093 -2.2837
15778SOL     OW47911   9.095   7.724   3.888 -0.0593  0.6918 -0.1597
15778SOL    HW147912   9.041   7.761   3.818  1.2502  1.6372 -0.7227
15778SOL    HW247913   9.034   7.672   3.941 -1.4253  1.4229 -0.9531
15779SOL     OW47914   8.561   2.800   8.696  0.0130  0.8828  0.2149
15779SOL    HW147915   8.625   2.863   8.664  1.4926 -1.5492 -1.9958
15779SOL    HW247916   8.600   2.766   8.777  1.6833 -0.6449 -1.1611
15780SOL     OW47917   6.363   3.485   6.371  0.7412 -1.3167  0.5027
15780SOL    HW147918   6.446   3.489   6.419  0.4102 -1.0039  1.0630
15780SOL    HW247919   6.303   3.537   6.424  0.1847 -1.5515  0.1064
15781SOL     OW47920   7.508   2.935   5.616 -0.3888 -0.6161 -0.5517
15781SOL    HW147921   7.567   2.941   5.541 -0.1959 -2.0844 -0.5506
15781SOL    HW247922   7.512   3.022   5.657  2.8036 -0.9795  0.1854
15782SOL     OW47923   3.243   3.632   4.735 -0.1657  0.0889  0.3849
15782SOL    HW147924   3.273   3.577   4.807  3.4101  1.5322  0.2421
15782SOL    HW247925   3.275   3.719   4.756 -3.1457  1.6069 -0.7698
15783SOL     OW47926   6.857   8.378   7.112  0.1114  0.6858 -0.1023
15783SOL    HW147927   6.905   8.345   7.187  1.7012  1.6213 -0.6588
15783SOL    HW247928   6.765   8.363   7.133  0.4258  2.0015  2.5673
15784SOL     OW47929   8.267   4.320   5.416  0.9149 -0.2490 -0.0440
15784SOL    HW147930   8.198   4.380   5.445  2.0407  1.8597 -1.4521
15784SOL    HW247931   8.330   4.376   5.371  1.6578 -2.5982 -2.1964
15785SOL     OW47932   1.337   3.467   2.135  0.2818 -1.2257 -0.4558
15785SOL    HW147933   1.268   3.530   2.117 -1.8820 -3.2046  0.3643
15785SOL    HW247934   1.376   3.496   2.218 -2.2295 -2.1015  1.1408
15786SOL     OW47935   2.274   6.525   6.076  0.6154 -0.4925 -1.0753
15786SOL    HW147936   2.204   6.514   6.011 -0.9982  1.2320  0.2325
15786SOL    HW247937   2.321   6.603   6.047 -1.5488  1.7212  0.8392
15787SOL     OW47938   6.740   8.123   2.849 -0.5528 -0.5748  0.3384
15787SOL    HW147939   6.745   8.219   2.855 -1.8884 -0.3660 -1.2129
15787SOL    HW247940   6.712   8.106   2.759 -0.0766 -2.4540  0.5063
15788SOL     OW47941   9.052   6.883   2.572 -0.4338  0.4514 -0.3108
15788SOL    HW147942   9.065   6.949   2.505  1.4396  0.4971  0.0375
15788SOL    HW247943   9.013   6.931   2.646 -0.1249  0.9222 -0.4538
15789SOL     OW47944   8.273   5.818   3.537  0.3937  0.2092  0.4169
15789SOL    HW147945   8.271   5.909   3.567  0.9963  1.0059 -1.7346
15789SOL    HW247946   8.241   5.767   3.611 -1.5928  2.3335  1.1480
15790SOL     OW47947   9.093   9.778   2.712  0.4386 -0.1491 -0.1014
15790SOL    HW147948   9.022   9.770   2.776  2.0938 -1.4138  1.6931
15790SOL    HW247949   9.173   9.759   2.762  2.1149  1.4975 -1.9486
15791SOL     OW47950   1.624   9.176   2.550 -0.0747 -0.2364 -0.5018
15791SOL    HW147951   1.658   9.249   2.498 -1.1306  1.0607  0.5392
15791SOL    HW247952   1.626   9.101   2.491  1.5788  0.4821 -1.4425
15792SOL     OW47953   7.360   9.170   3.433 -0.2175  0.3934 -0.2631
15792SOL    HW147954   7.423   9.102   3.457 -0.0695  0.8972  0.8099
15792SOL    HW247955   7.378   9.242   3.493 -2.7058  0.0426  1.0372
15793SOL     OW47956   8.064   4.395   4.059  0.1087 -0.1798 -0.5709
15793SOL    HW147957   8.159   4.390   4.067  0.3126  1.8150 -1.1255
15793SOL    HW247958   8.030   4.336   4.126  1.7308 -0.3259  0.1458
15794SOL     OW47959   1.370   0.671   7.056 -0.3666  0.0612  0.3642
15794SOL    HW147960   1.457   0.686   7.020  1.0338 -1.0887  2.9802
15794SOL    HW247961   1.335   0.759   7.070  0.6749  0.5577 -0.0254
15795SOL     OW47962   6.002   2.995   6.130 -0.4053  0.5751  0.1117
15795SOL    HW147963   5.928   3.052   6.108 -0.7208  0.0690 -0.1448
15795SOL    HW247964   6.072   3.024   6.071 -0.2832  1.2861  0.5936
15796SOL     OW47965   9.226   5.996   4.937  0.4423 -0.5232 -0.2446
15796SOL    HW147966   9.269   6.036   5.013  1.5984 -0.0651 -1.1081
15796SOL    HW247967   9.198   6.071   4.883 -1.1543 -0.8176  0.1163
15797SOL     OW47968   1.072   2.102   7.906  0.2439 -0.5231  0.1143
15797SOL    HW147969   1.140   2.042   7.936  1.6479  0.4888 -0.9345
15797SOL    HW247970   1.053   2.074   7.817  0.5273  0.2518 -0.1936
15798SOL     OW47971   7.252   2.706   4.326  0.0266 -0.7195 -0.1460
15798SOL    HW147972   7.314   2.638   4.352 -0.0077 -1.0724 -0.9517
15798SOL    HW247973   7.307   2.781   4.301  0.0663 -0.4674  0.6694
15799SOL     OW47974   2.273   4.270   1.199 -0.9380  0.2800  0.8724
15799SOL    HW147975   2.324   4.280   1.119 -0.0535 -1.4109  1.1873
15799SOL    HW247976   2.315   4.330   1.261  1.2481 -1.6290  1.3632
15800SOL     OW47977   0.004   9.940   6.198 -0.5167  0.1363  0.2864
15800SOL    HW147978  -0.035   9.988   6.271  0.6907 -0.4281  1.3504
15800SOL    HW247979   0.097   9.935   6.219 -0.3677 -1.3496 -0.5390
15801SOL     OW47980   6.369   8.587   4.265 -0.4673 -0.3345 -0.3128
15801SOL    HW147981   6.277   8.572   4.244 -0.1009 -1.0555 -1.5113
15801SOL    HW247982   6.412   8.503   4.244  0.3977 -0.1532  0.6436
15802SOL     OW47983   1.526   8.933   5.063 -0.1758  0.5854 -0.0817
15802SOL    HW147984   1.495   8.859   5.116 -1.9356  1.6209  0.4079
15802SOL    HW247985   1.489   8.917   4.976 -0.4923  0.8693  0.0041
15803SOL     OW47986   2.995   2.223   4.667 -0.3528  0.3112  0.5087
15803SOL    HW147987   2.971   2.295   4.726  0.6306  1.8287 -0.8369
15803SOL    HW247988   3.031   2.267   4.590  0.1426 -1.6522 -0.4428
15804SOL     OW47989   3.486   7.142   5.821  0.0255  0.0912  0.0779
15804SOL    HW147990   3.435   7.160   5.742  1.8196  1.3558 -0.8944
15804SOL    HW247991   3.520   7.228   5.847 -0.4611 -0.3210  2.2045
15805SOL     OW47992   5.493   2.380   2.547  0.2095 -0.3049 -0.4814
15805SOL    HW147993   5.403   2.383   2.517  0.1062  1.2508 -0.0785
15805SOL    HW247994   5.544   2.360   2.468 -0.3835 -0.1859 -0.8997
15806SOL     OW47995   3.068   8.931   1.811 -0.1896 -0.1664  0.3879
15806SOL    HW147996   3.013   8.995   1.857 -0.0814  0.7867 -0.7419
15806SOL    HW247997   3.148   8.979   1.791  0.6659 -1.2444  1.1345
15807SOL     OW47998   5.648   3.076   0.463 -0.2172  0.3079  0.1328
15807SOL    HW147999   5.711   3.041   0.399  0.7184  0.2112  1.0819
15807SOL    HW248000   5.573   3.104   0.410  0.6595  0.5195 -1.0376
15808SOL     OW48001   3.664   9.477   5.880  0.2157  0.0329 -0.6619
15808SOL    HW148002   3.577   9.446   5.903  0.1488 -0.2805 -1.3315
15808SOL    HW248003   3.718   9.455   5.956 -0.6450  1.8759  0.5474
15809SOL     OW48004   8.639   8.827   5.612  0.1579  0.5328  0.4838
15809SOL    HW148005   8.611   8.806   5.701 -0.0857 -0.2446  0.2333
15809SOL    HW248006   8.734   8.831   5.616  0.3032 -1.7314  0.3390
15810SOL     OW48007   6.118   3.814   1.718 -0.0285 -0.5400 -0.1651
15810SOL    HW148008   6.067   3.734   1.707 -0.9600  0.0898 -0.5276
15810SOL    HW248009   6.053   3.882   1.733  0.8199 -0.0872  1.6817
15811SOL     OW48010   4.177   8.636   0.587  0.3649 -0.3049 -0.0192
15811SOL    HW148011   4.106   8.574   0.569 -2.5720  2.5590  0.7011
15811SOL    HW248012   4.207   8.663   0.501 -1.0551  0.0672 -0.4330
15812SOL     OW48013   1.929   7.705   9.524  0.2371 -0.6498  0.3795
15812SOL    HW148014   1.893   7.620   9.549  3.0576 -2.5050 -1.3571
15812SOL    HW248015   1.881   7.730   9.446  1.1068 -2.0005 -0.6273
15813SOL     OW48016   1.075   3.599   1.570  0.2810 -0.5282 -0.0505
15813SOL    HW148017   1.084   3.645   1.487 -0.0014  1.0183  0.7403
15813SOL    HW248018   1.010   3.531   1.553  2.1257 -1.9895 -1.7648
15814SOL     OW48019   7.787   3.812   5.717 -0.4576 -0.1920  0.0991
15814SOL    HW148020   7.723   3.747   5.746  0.4598 -1.3877 -0.4129
15814SOL    HW248021   7.869   3.784   5.757 -0.1869  1.1385  0.5110
15815SOL     OW48022   8.808   8.228   1.164  0.3779  1.0142 -0.5444
15815SOL    HW148023   8.896   8.196   1.144  1.4060  3.1573  0.2992
15815SOL    HW248024   8.793   8.299   1.102 -0.6507  0.8984 -0.4564
15816SOL     OW48025   6.723   9.485   7.072 -0.3046  0.0393  0.2274
15816SOL    HW148026   6.656   9.511   7.009  0.8542 -0.7992 -1.4185
15816SOL    HW248027   6.718   9.390   7.075  0.6019 -0.0206  0.2779
15817SOL     OW48028   2.192   7.711   0.055 -0.0323 -0.0721  0.0910
15817SOL    HW148029   2.142   7.786   0.024 -1.3467 -0.7503  0.4844
15817SOL    HW248030   2.266   7.748   0.101  0.8482  0.9674 -2.0554
15818SOL     OW48031   3.651   7.900   1.921  0.6667 -0.6839 -0.3173
15818SOL    HW148032   3.717   7.924   1.986 -1.7677  0.3514  1.9796
15818SOL    HW248033   3.625   7.984   1.882  1.0187 -1.1314 -1.5465
15819SOL     OW48034   4.078   8.583   2.352  0.3515  0.4919  0.2748
15819SOL    HW148035   3.995   8.550   2.317 -0.3036  0.1106  2.0648
15819SOL    HW248036   4.145   8.527   2.312 -0.2876  0.5256 -0.8677
15820SOL     OW48037   9.924   0.792   8.554 -0.1002 -0.2292 -0.5574
15820SOL    HW148038   9.862   0.720   8.549 -0.1708 -0.1886 -0.3182
15820SOL    HW248039   9.869   0.870   8.563 -0.0218 -0.1662 -0.6306
15821SOL     OW48040   5.382   4.839   0.849  0.0860  0.5102 -0.3709
15821SOL    HW148041   5.346   4.924   0.875 -1.7391  0.4362 -2.3650
15821SOL    HW248042   5.418   4.802   0.930 -0.9642  2.2663  0.9670
15822SOL     OW48043   8.039   9.520   2.257  0.3425 -0.1147  0.1162
15822SOL    HW148044   8.114   9.580   2.255  0.2685 -0.0212  0.1214
15822SOL    HW248045   7.982   9.555   2.325 -0.2812  0.5276 -0.7098
15823SOL     OW48046   3.999   7.080   5.364 -0.2308 -0.2102  0.0621
15823SOL    HW148047   3.954   6.996   5.358 -0.1143 -0.2297 -0.5446
15823SOL    HW248048   4.045   7.090   5.281  0.9537 -0.2231  0.6907
15824SOL     OW48049   7.328   7.386   0.327 -0.8966  0.4200  0.1343
15824SOL    HW148050   7.415   7.409   0.359 -1.8462  1.2946  2.3065
15824SOL    HW248051   7.339   7.302   0.283  0.6570 -0.6966  2.4730
15825SOL     OW48052   2.820   2.607   5.190 -0.4959  0.5105 -0.6904
15825SOL    HW148053   2.746   2.644   5.239 -0.1874 -2.1917  2.1260
15825SOL    HW248054   2.789   2.605   5.099 -3.0715  1.3773  0.0724
15826SOL     OW48055   8.300   6.938   9.693 -0.2020 -0.3305 -0.8192
15826SOL    HW148056   8.240   6.868   9.669 -2.4917  1.3004 -0.2256
15826SOL    HW248057   8.246   7.017   9.695  1.5675  0.9834  1.5273
15827SOL     OW48058   6.489   0.051   4.238  0.0336 -0.0590 -0.3521
15827SOL    HW148059   6.555  -0.000   4.190 -1.3717 -0.0317 -2.4399
15827SOL    HW248060   6.493   0.138   4.196 -1.2759 -0.0498 -0.4714
15828SOL     OW48061   4.440   7.484   7.784  0.1340 -0.9872 -0.3270
15828SOL    HW148062   4.514   7.474   7.724  0.8029 -1.1511  0.5078
15828SOL    HW248063   4.459   7.565   7.832 -0.2760 -0.9789 -0.1752
15829SOL     OW48064   7.052   0.890   0.178 -0.2690  0.4399 -0.3069
15829SOL    HW148065   6.960   0.916   0.183  0.0349  1.3945  0.9564
15829SOL    HW248066   7.101   0.970   0.197  0.7403 -0.6832  2.5371
15830SOL     OW48067   8.154   4.438   3.230  0.4046  0.4806 -0.1316
15830SOL    HW148068   8.204   4.472   3.155 -0.5906  0.9255 -0.6030
15830SOL    HW248069   8.139   4.515   3.285  0.1703  0.3558 -0.0220
15831SOL     OW48070   6.967   6.001   0.081 -0.5529 -0.1611 -0.2714
15831SOL    HW148071   6.887   5.953   0.104 -0.2920 -0.0697  0.8663
15831SOL    HW248072   6.936   6.073   0.026 -1.2121 -0.3250 -0.1281
15832SOL     OW48073   4.930   7.800   2.287 -0.4145  0.0456 -0.3217
15832SOL    HW148074   4.937   7.851   2.368 -2.5325 -0.0949  0.0087
15832SOL    HW248075   4.837   7.777   2.282 -0.2001 -0.5045 -2.4672
15833SOL     OW48076   5.280   8.178   0.429 -0.0090  0.3804 -0.0563
15833SOL    HW148077   5.336   8.230   0.486  1.0843 -1.6332  0.7749
15833SOL    HW248078   5.230   8.243   0.379  0.1049  2.2025  2.0804
15834SOL     OW48079   3.686   4.132   9.209  0.3962  0.1425  0.5540
15834SOL    HW148080   3.772   4.173   9.215 -0.2841  1.5071  1.5305
15834SOL    HW248081   3.682   4.096   9.121  2.1907 -0.4775  0.6955
15835SOL     OW48082   3.559   1.363   4.504  0.0060  0.0948 -0.1695
15835SOL    HW148083   3.618   1.433   4.532  0.2860  0.1661 -0.9176
15835SOL    HW248084   3.505   1.344   4.581  0.2794  0.7731  0.1910
15836SOL     OW48085   3.536   1.958   5.753 -0.0707 -0.2633  0.3910
15836SOL    HW148086   3.479   1.887   5.724 -1.6890  0.8685  0.7062
15836SOL    HW248087   3.582   1.986   5.674 -0.2388 -0.9246  0.0516
15837SOL     OW48088   1.953   4.987   3.867 -0.4495 -0.2816  0.1170
15837SOL    HW148089   1.958   4.932   3.946 -0.5450 -0.6416 -0.1267
15837SOL    HW248090   1.884   4.947   3.814 -1.7382  1.0596  0.6981
15838SOL     OW48091   8.035   7.277   4.342 -0.4355 -0.1402 -0.0735
15838SOL    HW148092   8.016   7.367   4.315  2.0159  0.1306 -1.1836
15838SOL    HW248093   8.061   7.285   4.433  0.6378  0.4438 -0.4149
15839SOL     OW48094   7.353   5.993   6.556 -0.3790  0.0276  0.1148
15839SOL    HW148095   7.397   5.910   6.537 -0.4983  0.1107 -0.5570
15839SOL    HW248096   7.333   5.988   6.649 -1.4724 -1.2385 -0.1478
15840SOL     OW48097   8.454   7.297   8.511  0.3789 -0.2272 -0.8131
15840SOL    HW148098   8.391   7.251   8.456  1.1654 -2.4904  0.0314
15840SOL    HW248099   8.535   7.247   8.501  1.3834  1.1575  0.0092
15841SOL     OW48100   9.346   5.815   8.427  0.0304 -0.1659  0.2276
15841SOL    HW148101   9.339   5.806   8.523 -0.4670 -0.6282  0.1548
15841SOL    HW248102   9.432   5.854   8.413  1.2194 -2.4920  0.7143
15842SOL     OW48103   0.917   2.229   4.974  0.6192 -0.0975 -0.1146
15842SOL    HW148104   0.851   2.291   4.945  0.4239 -0.7742 -1.1858
15842SOL    HW248105   0.903   2.151   4.920  2.0820 -0.3763 -0.1472
15843SOL     OW48106   5.545   0.015   3.827  0.2209  0.3046  0.1398
15843SOL    HW148107   5.620   0.050   3.780 -0.4284  0.8336 -0.5147
15843SOL    HW248108   5.530   0.078   3.898  0.5444  0.0586  0.4354
15844SOL     OW48109   8.495   4.469   6.739 -0.3034  0.2613  0.1142
15844SOL    HW148110   8.521   4.381   6.767  1.6537  1.4197  2.2750
15844SOL    HW248111   8.469   4.513   6.820  0.8313  2.3160 -0.5759
15845SOL     OW48112   2.290   1.546   0.998 -0.3880  0.1480  0.0346
15845SOL    HW148113   2.231   1.614   1.029  0.3414  0.4200  0.8684
15845SOL    HW248114   2.286   1.553   0.902 -3.4856 -1.4031 -0.0575
15846SOL     OW48115   5.817   3.627   7.911  0.1878  0.7442  0.2860
15846SOL    HW148116   5.795   3.571   7.836  0.5632 -0.1333  0.8162
15846SOL    HW248117   5.738   3.627   7.965 -0.1662  1.5705 -0.2119
15847SOL     OW48118   3.305   4.813   0.098  0.1232  0.4112  0.4536
15847SOL    HW148119   3.377   4.763   0.135  1.2127  0.7413 -1.1103
15847SOL    HW248120   3.343   4.857   0.021 -2.0159 -0.3549 -1.1464
15848SOL     OW48121   0.162   0.692   1.377 -0.0948 -0.2665 -0.0788
15848SOL    HW148122   0.075   0.667   1.348 -0.3964  1.5863 -0.8699
15848SOL    HW248123   0.218   0.679   1.300  0.2932 -1.0884  0.3185
15849SOL     OW48124   3.206   1.818   2.428  0.0157 -0.3857  0.0509
15849SOL    HW148125   3.239   1.907   2.417 -1.8948  0.4324  0.4662
15849SOL    HW248126   3.140   1.825   2.497 -0.5157 -2.0268 -0.2383
15850SOL     OW48127   4.163   7.383   0.590  0.2939  0.1263  0.3154
15850SOL    HW148128   4.248   7.365   0.631 -0.0351 -0.7826  0.6163
15850SOL    HW248129   4.115   7.301   0.598 -0.4479  0.4974 -0.2703
15851SOL     OW48130   6.327   7.288   4.872 -0.0193 -0.7126 -0.1800
15851SOL    HW148131   6.299   7.200   4.897 -2.6841  0.5560  1.8744
15851SOL    HW248132   6.390   7.314   4.941  0.6902 -0.9338 -0.7298
15852SOL     OW48133   7.649   8.104   5.920 -0.3412  0.4501 -0.1285
15852SOL    HW148134   7.744   8.099   5.904 -0.5115  0.9147 -1.3562
15852SOL    HW248135   7.611   8.123   5.835 -1.5064  0.8594  0.4582
15853SOL     OW48136   6.062   1.753   2.577  0.2858 -0.2258 -0.8215
15853SOL    HW148137   6.035   1.703   2.654 -0.5103 -1.6879 -1.9641
15853SOL    HW248138   6.120   1.821   2.610 -2.2948  1.0642  1.4210
15854SOL     OW48139   3.110   4.631   3.646  0.8415  0.4627  0.1601
15854SOL    HW148140   3.110   4.634   3.550  0.6402 -1.4287  0.0705
15854SOL    HW248141   3.193   4.588   3.668  0.2004 -0.4722  0.7677
15855SOL     OW48142   0.833   1.540   6.735  0.3796  0.1790 -0.3429
15855SOL    HW148143   0.883   1.500   6.806 -0.7771 -0.4313  0.1693
15855SOL    HW248144   0.751   1.490   6.733 -0.0474  0.8803 -1.4075
15856SOL     OW48145   4.096   1.474   0.137  0.1171  0.9327 -0.2848
15856SOL    HW148146   4.106   1.556   0.185 -0.1103  0.4380  0.6501
15856SOL    HW248147   4.043   1.419   0.196  0.5050  0.0212 -0.7696
15857SOL     OW48148   3.040   0.702   3.950 -0.0175  1.0117 -0.7626
15857SOL    HW148149   3.127   0.730   3.920  1.6125  1.1710  3.5099
15857SOL    HW248150   3.026   0.750   4.031 -4.4203  1.3082 -1.4779
15858SOL     OW48151   2.599   5.641   6.503  0.3468  0.4432  0.1148
15858SOL    HW148152   2.519   5.601   6.536 -0.6327  1.3346 -1.0591
15858SOL    HW248153   2.584   5.649   6.408  2.9015 -1.7445 -0.5875
15859SOL     OW48154   9.971   4.132   9.096  0.4419  0.8138 -0.3135
15859SOL    HW148155   9.953   4.107   9.005 -0.0187  1.3870 -0.3879
15859SOL    HW248156   9.898   4.096   9.146  0.8212  0.2915 -0.1342
15860SOL     OW48157   7.972   2.757   1.569 -0.2841  0.7028  0.5250
15860SOL    HW148158   7.916   2.766   1.492 -1.7829 -1.4850  1.2881
15860SOL    HW248159   7.947   2.674   1.608  3.0385 -0.0685  1.3312
15861SOL     OW48160   6.867   0.592   4.511 -0.0975  0.5738 -0.7039
15861SOL    HW148161   6.869   0.666   4.571 -0.2513  0.0864 -0.0827
15861SOL    HW248162   6.902   0.626   4.429  0.0725  1.2611 -0.3507
15862SOL     OW48163   0.264   2.637   4.928  0.0771  0.1074 -0.0303
15862SOL    HW148164   0.236   2.694   4.856 -0.0327  0.1189  0.0215
15862SOL    HW248165   0.282   2.697   5.001 -0.8097  0.0169  0.2753
15863SOL     OW48166   0.205   3.527   1.497  0.0423 -0.2472  0.5645
15863SOL    HW148167   0.227   3.577   1.576 -1.8205  3.1172 -0.8045
15863SOL    HW248168   0.132   3.471   1.524 -0.6870  0.9814  1.2421
15864SOL     OW48169   2.107   4.016   4.712  0.3572 -0.0622  0.3652
15864SOL    HW148170   2.071   3.965   4.784  1.0746 -1.2246 -0.0625
15864SOL    HW248171   2.186   4.057   4.748 -1.2818  2.4862  1.3032
15865SOL     OW48172   9.261   7.700   8.721  0.1034 -0.0446  0.3843
15865SOL    HW148173   9.203   7.746   8.782  1.0146  2.2977 -0.4414
15865SOL    HW248174   9.227   7.721   8.634  0.7606 -0.6570 -0.0381
15866SOL     OW48175   3.686   6.770   9.585 -0.8422 -0.6601  0.3626
15866SOL    HW148176   3.755   6.707   9.566 -0.1846  0.2147 -0.2983
15866SOL    HW248177   3.637   6.732   9.657  1.5200 -0.4587  2.1981
15867SOL     OW48178   0.748   0.419   6.055 -0.3452  0.2105  0.4331
15867SOL    HW148179   0.689   0.377   6.117  0.8404 -0.6709  1.0028
15867SOL    HW248180   0.833   0.379   6.071  0.5465  1.8172  0.0166
15868SOL     OW48181   7.694   5.974   8.119 -0.3906 -0.0681 -0.5177
15868SOL    HW148182   7.783   5.979   8.086  0.5601 -1.0211  1.6837
15868SOL    HW248183   7.664   5.887   8.093  0.0513 -0.4940  0.3578
15869SOL     OW48184   9.565   8.882   5.034  0.3190  0.4288  0.5126
15869SOL    HW148185   9.636   8.915   5.089  0.2178  0.9463  0.3411
15869SOL    HW248186   9.511   8.831   5.094  0.4672  0.5957  0.7932
15870SOL     OW48187   3.875   1.049   8.213 -0.3481  0.2599 -0.0862
15870SOL    HW148188   3.913   1.086   8.134 -0.9562  1.8805  0.3459
15870SOL    HW248189   3.933   0.976   8.236  0.3529  0.3449 -1.4892
15871SOL     OW48190   1.434   4.609   6.832 -0.1465  0.3206  0.9747
15871SOL    HW148191   1.457   4.591   6.923 -0.2983  0.3230  1.0127
15871SOL    HW248192   1.472   4.536   6.783 -1.3876 -0.5034  1.2060
15872SOL     OW48193   8.470   2.263   2.140  0.4044  0.2277  0.5658
15872SOL    HW148194   8.472   2.352   2.177  0.6790  0.6567 -0.4408
15872SOL    HW248195   8.398   2.266   2.077  1.2046  0.1228 -0.3781
15873SOL     OW48196   3.207   9.717   5.357 -0.1397 -0.2527 -0.0360
15873SOL    HW148197   3.152   9.682   5.287 -0.6728 -2.4701  1.3579
15873SOL    HW248198   3.246   9.639   5.398  0.7392  0.9916  1.6346
15874SOL     OW48199   0.424   4.936   1.420 -0.6271  0.1085 -0.2551
15874SOL    HW148200   0.448   5.014   1.470 -0.5265 -1.4379  2.3347
15874SOL    HW248201   0.477   4.866   1.460 -3.1646 -1.8711 -0.1327
15875SOL     OW48202   7.516   3.894   5.897  0.3581  0.1498 -0.2194
15875SOL    HW148203   7.472   3.929   5.820 -0.4549  0.7822  0.5069
15875SOL    HW248204   7.590   3.952   5.911  0.5680 -0.0286 -0.5789
15876SOL     OW48205   2.327   7.036   6.406  0.0630  0.2014  0.1065
15876SOL    HW148206   2.360   7.000   6.324 -1.1511 -0.1703 -0.2367
15876SOL    HW248207   2.365   7.124   6.410 -1.4568  1.0285 -1.8901
15877SOL     OW48208   3.020   9.556   3.210  0.0703 -0.4122 -0.2492
15877SOL    HW148209   3.000   9.548   3.117 -1.2002  1.2019 -0.1534
15877SOL    HW248210   2.939   9.586   3.250  0.9815  0.3015  1.1573
15878SOL     OW48211   7.356   4.947   2.942 -0.5320 -0.3450  0.4126
15878SOL    HW148212   7.424   4.910   2.999  0.5004  0.2660 -0.3930
15878SOL    HW248213   7.390   4.934   2.853 -0.3955  1.9681  0.0668
15879SOL     OW48214   2.863   2.550   7.565  0.3801 -0.4871  0.2516
15879SOL    HW148215   2.821   2.619   7.616 -0.3271 -1.2913  0.8002
15879SOL    HW248216   2.957   2.564   7.576  0.3625  2.0119 -1.8697
15880SOL     OW48217   0.125   1.019   6.978  0.0856 -0.3113  0.1156
15880SOL    HW148218   0.139   1.107   6.945 -0.1229 -0.8994 -1.6389
15880SOL    HW248219   0.052   0.985   6.927  1.3915 -2.1540 -0.6512
15881SOL     OW48220   6.402   7.660   5.320  0.2520  0.1192  0.1513
15881SOL    HW148221   6.336   7.728   5.336  1.4047  1.1337  0.7748
15881SOL    HW248222   6.372   7.615   5.241 -1.8022 -0.2398  1.0558
15882SOL     OW48223   3.537   2.371   4.389  0.0378  0.4841  0.1000
15882SOL    HW148224   3.585   2.389   4.470  0.6858  1.9030 -0.5686
15882SOL    HW248225   3.605   2.352   4.324 -0.5141 -1.9135  0.1259
15883SOL     OW48226   0.472   6.675   9.245  0.0835 -0.8219 -0.5560
15883SOL    HW148227   0.532   6.695   9.174  2.3292 -0.6029  1.2923
15883SOL    HW248228   0.495   6.737   9.314 -3.1443  0.1106 -0.1479
15884SOL     OW48229   2.130   1.029   1.174  0.0943 -0.4128 -0.2487
15884SOL    HW148230   2.048   0.989   1.143 -1.0510  0.9496  0.8484
15884SOL    HW248231   2.137   1.110   1.125 -1.1325  1.1959  2.0144
15885SOL     OW48232   1.585   9.849   4.827  0.5183 -0.5361  0.4239
15885SOL    HW148233   1.643   9.861   4.903  0.9807  0.2388 -0.0336
15885SOL    HW248234   1.556   9.938   4.806 -0.9422 -0.9168  0.7051
15886SOL     OW48235   4.996   3.920   6.566 -0.1907 -0.1272  0.1271
15886SOL    HW148236   4.987   3.943   6.658 -0.2660  1.1861 -0.1926
15886SOL    HW248237   5.042   3.836   6.567 -0.0241 -0.0396  1.3541
15887SOL     OW48238   9.427   7.615   4.452 -0.4983  0.1666  0.6698
15887SOL    HW148239   9.383   7.697   4.474  1.9406  2.1262 -1.1405
15887SOL    HW248240   9.368   7.571   4.391  0.0384  3.0253 -2.2193
15888SOL     OW48241   5.090   1.569   2.947 -0.3334 -0.5881  0.2653
15888SOL    HW148242   5.037   1.645   2.973  0.7373 -0.1878  1.4236
15888SOL    HW248243   5.032   1.494   2.958 -1.2800  0.0157 -0.4887
15889SOL     OW48244   3.520   0.069   9.034 -0.2590 -0.1897  0.0437
15889SOL    HW148245   3.500  -0.013   8.988 -0.6498 -0.3590  0.5023
15889SOL    HW248246   3.559   0.040   9.117  0.4226  0.1080 -0.1703
15890SOL     OW48247   6.826   7.090   4.389  0.8864  0.0452 -0.4286
15890SOL    HW148248   6.876   7.172   4.394 -1.7258  1.7303  0.1434
15890SOL    HW248249   6.817   7.062   4.480 -0.8568  0.9062 -0.2929
15891SOL     OW48250   4.716   0.025   7.029  0.2681 -0.2783 -0.1234
15891SOL    HW148251   4.731   0.116   7.005 -0.5593 -0.0508  0.2118
15891SOL    HW248252   4.640   0.027   7.087  1.6911 -0.8912  1.8725
15892SOL     OW48253   4.231   8.794   9.392  0.9406 -0.0701  0.0940
15892SOL    HW148254   4.256   8.862   9.330  1.0462  0.2751  0.5153
15892SOL    HW248255   4.189   8.840   9.464  1.1213 -0.4363  0.4395
15893SOL     OW48256   2.229   9.536   6.729 -0.0292  0.6274 -0.1121
15893SOL    HW148257   2.187   9.452   6.746  3.9035 -1.5844 -0.2409
15893SOL    HW248258   2.235   9.578   6.815  0.3560 -0.5032  0.4318
15894SOL     OW48259   3.765   2.008   2.606  0.0086  0.1836  0.3389
15894SOL    HW148260   3.687   1.975   2.562  1.5345 -2.1079 -0.8446
15894SOL    HW248261   3.752   2.103   2.610 -1.9964  0.0610 -1.4396
15895SOL     OW48262   7.378   3.169   3.375  0.2557  0.4182 -0.0050
15895SOL    HW148263   7.297   3.164   3.426  1.1201  2.1111  1.6396
15895SOL    HW248264   7.372   3.252   3.328  1.5271  1.1732  1.0975
15896SOL     OW48265   7.659   5.614   0.657  0.8680 -0.0948  0.4974
15896SOL    HW148266   7.635   5.525   0.682 -1.5693  0.4168  0.2369
15896SOL    HW248267   7.755   5.614   0.659  0.9757 -1.6924  4.0946
15897SOL     OW48268   4.863   6.636   0.340 -0.2694  0.3663  0.0629
15897SOL    HW148269   4.830   6.548   0.356  0.2571 -0.3492 -2.3193
15897SOL    HW248270   4.958   6.626   0.332 -0.2670  0.9785 -0.9896
15898SOL     OW48271   5.035   7.527   6.892  0.0026 -0.4101  0.0496
15898SOL    HW148272   5.089   7.605   6.886  0.1076 -0.4803  0.0820
15898SOL    HW248273   4.946   7.560   6.908  0.1961 -0.3307  1.0419
15899SOL     OW48274   1.965   3.529   5.065  0.4200 -0.3401 -0.2486
15899SOL    HW148275   1.961   3.456   5.128  2.8023  1.4663  2.2141
15899SOL    HW248276   1.897   3.589   5.094 -0.7848 -0.9790 -1.6022
15900SOL     OW48277   2.107   9.724   4.699  0.1658  0.1360  0.1070
15900SOL    HW148278   2.025   9.771   4.682 -0.5284 -1.4809 -1.3089
15900SOL    HW248279   2.174   9.780   4.661 -0.1681  1.7474  1.7642
15901SOL     OW48280   8.795   3.780   0.607 -0.5791  0.1263  0.4009
15901SOL    HW148281   8.764   3.826   0.529 -0.6262  0.5873  0.6873
15901SOL    HW248282   8.888   3.767   0.592 -0.8210 -0.9354 -0.3003
15902SOL     OW48283   5.226   2.391   2.497 -0.4802 -0.0144 -0.3891
15902SOL    HW148284   5.145   2.394   2.446  0.4105  1.9917 -1.8110
15902SOL    HW248285   5.216   2.460   2.563 -0.2986 -0.3908  0.0381
15903SOL     OW48286   9.384   4.395   7.966  0.1257 -0.0392  0.1393
15903SOL    HW148287   9.427   4.311   7.948  0.7948  0.7546 -2.3614
15903SOL    HW248288   9.291   4.373   7.974  0.2125 -0.9941 -1.1114
15904SOL     OW48289   1.605   8.971   9.894  0.3143 -0.1419  0.4626
15904SOL    HW148290   1.539   8.913   9.856  0.4062  0.0272  0.0374
15904SOL    HW248291   1.675   8.912   9.923  0.7373 -0.2039 -0.6262
15905SOL     OW48292   2.199   7.675   6.106 -0.3377 -0.0981  0.4323
15905SOL    HW148293   2.155   7.601   6.064 -0.9460 -0.6452  1.9522
15905SOL    HW248294   2.131   7.742   6.114  0.1754  0.5922 -0.8125
15906SOL     OW48295   0.714   3.248   0.338  0.2826  0.1631 -0.1758
15906SOL    HW148296   0.749   3.176   0.286 -0.3523  1.3022 -2.3358
15906SOL    HW248297   0.768   3.249   0.417  2.1403 -0.9322 -1.3361
15907SOL     OW48298   3.939   0.042   5.915  0.3954 -0.1534  0.0899
15907SOL    HW148299   3.911   0.011   5.829 -1.9276  0.0459  0.7212
15907SOL    HW248300   3.868   0.018   5.974  2.0379 -0.5068  2.0428
15908SOL     OW48301   4.441   7.295   9.668 -0.1508  0.4594  0.4631
15908SOL    HW148302   4.527   7.270   9.635 -0.3979  0.9445 -0.5850
15908SOL    HW248303   4.430   7.244   9.749  0.0174 -1.5815 -0.7331
15909SOL     OW48304   9.299   3.376   8.362  0.7370  0.0528 -0.6351
15909SOL    HW148305   9.220   3.425   8.383  0.7721 -0.7413  1.6258
15909SOL    HW248306   9.269   3.287   8.347  1.1838 -0.2111  0.0247
15910SOL     OW48307   6.028   7.469   0.878  0.3356 -0.6037 -0.5489
15910SOL    HW148308   6.077   7.422   0.811 -0.8172  0.3302 -2.1450
15910SOL    HW248309   5.937   7.445   0.862  0.0676 -0.8178  1.1098
15911SOL     OW48310   0.940   0.050   9.503 -0.6141  0.5150 -0.0108
15911SOL    HW148311   0.900   0.075   9.419 -0.9500 -0.6526 -0.2086
15911SOL    HW248312   0.884  -0.018   9.537  0.7156 -0.5566  0.1278
15912SOL     OW48313   9.271   8.863   4.877  0.4237  0.3099 -0.1830
15912SOL    HW148314   9.318   8.860   4.961  1.7044  0.2361 -0.8804
15912SOL    HW248315   9.325   8.918   4.821 -0.2022  0.0150 -1.1094
15913SOL     OW48316   2.490   2.667   7.405 -0.9623  0.1295  0.0465
15913SOL    HW148317   2.514   2.580   7.434  0.0741  0.4806  0.2737
15913SOL    HW248318   2.460   2.712   7.484 -1.0485  0.1363  0.0115
15914SOL     OW48319   1.953   6.110   2.749  0.0104 -0.2956  0.1431
15914SOL    HW148320   1.988   6.036   2.699 -1.6587 -0.1629 -1.3172
15914SOL    HW248321   2.030   6.151   2.788  0.9020 -3.4631  2.0209
15915SOL     OW48322   6.381   1.292   6.608  0.3700 -0.3364 -0.2412
15915SOL    HW148323   6.447   1.244   6.658  0.7927  0.2383 -0.2312
15915SOL    HW248324   6.417   1.380   6.599 -0.0039 -0.2497 -0.9951
15916SOL     OW48325   8.396   2.130   6.776  0.1289 -0.2706 -0.2813
15916SOL    HW148326   8.377   2.216   6.738 -1.4651 -0.7642 -0.6924
15916SOL    HW248327   8.474   2.144   6.830  0.1457  1.3297 -0.6773
15917SOL     OW48328   6.497   3.567   6.774 -0.1740  0.4499  0.0998
15917SOL    HW148329   6.518   3.654   6.741 -0.2915  0.9588  1.3414
15917SOL    HW248330   6.402   3.567   6.785 -0.1677  0.1832  0.1738
15918SOL     OW48331   4.983   0.055   2.849  0.4561 -0.1082  0.1828
15918SOL    HW148332   5.061   0.066   2.903  1.4162 -0.4622 -1.0704
15918SOL    HW248333   5.005   0.097   2.765 -1.4909  1.6439  0.4595
15919SOL     OW48334   4.825   1.864   1.883  0.1394  0.5292 -0.3049
15919SOL    HW148335   4.805   1.958   1.884  0.7897  0.6878 -1.1928
15919SOL    HW248336   4.842   1.842   1.975  0.0077  1.2843 -0.0926
15920SOL     OW48337   2.960   4.982   4.870 -0.2611  0.6818 -0.2400
15920SOL    HW148338   3.033   4.952   4.816 -0.6882  0.6710 -0.8194
15920SOL    HW248339   2.990   4.968   4.960  0.9544  1.8697 -0.4323
15921SOL     OW48340   5.993   2.753   1.583  0.1945  0.8521  0.4968
15921SOL    HW148341   5.925   2.818   1.566 -0.8347  0.3737  2.4589
15921SOL    HW248342   5.977   2.684   1.519 -1.1701  0.7747  0.8913
15922SOL     OW48343   4.151   2.652   3.706  0.3721  0.2365 -0.1084
15922SOL    HW148344   4.097   2.656   3.785  1.6170 -1.1977  0.8738
15922SOL    HW248345   4.197   2.737   3.704  1.1766 -0.1250  1.3841
15923SOL     OW48346   9.507   5.138   4.273 -0.3848 -0.3999 -0.2554
15923SOL    HW148347   9.578   5.138   4.210 -0.4421  1.2249 -0.3638
15923SOL    HW248348   9.433   5.098   4.227  0.0846 -0.8816 -0.5869
15924SOL     OW48349   0.192   9.647   0.993  0.2624 -0.3724 -0.3726
15924SOL    HW148350   0.194   9.641   0.898  0.6761  1.4713 -0.5074
15924SOL    HW248351   0.125   9.583   1.020 -0.5017 -0.2791 -1.9553
15925SOL     OW48352   8.882   9.581   2.543  0.1532  0.7545  0.4923
15925SOL    HW148353   8.812   9.520   2.569 -0.6733  0.8767 -1.3489
15925SOL    HW248354   8.935   9.591   2.623 -2.1560  0.9975  2.0938
15926SOL     OW48355   2.507   4.619   9.749 -0.2090  0.0024  0.2773
15926SOL    HW148356   2.532   4.664   9.830 -0.6548 -1.5620  1.3185
15926SOL    HW248357   2.456   4.544   9.778 -3.2513  1.1779 -1.5959
15927SOL     OW48358   0.401   5.152   3.095 -0.0309  0.2304  0.0172
15927SOL    HW148359   0.337   5.207   3.049  0.3383  0.6421 -0.0082
15927SOL    HW248360   0.347   5.087   3.140 -0.5709  1.3693  1.0770
15928SOL     OW48361   0.002   2.827   6.458  0.0903 -0.1142 -0.3393
15928SOL    HW148362   0.038   2.798   6.541  1.2565 -1.0130 -1.1210
15928SOL    HW248363   0.078   2.859   6.409 -0.6042  0.5971 -0.9852
15929SOL     OW48364   9.704   0.123   6.966 -0.0757 -0.1588 -0.8120
15929SOL    HW148365   9.785   0.119   7.015 -0.0931  5.2600  0.3139
15929SOL    HW248366   9.668   0.034   6.970  3.4307 -1.6935  2.6994
15930SOL     OW48367   9.437   3.585   0.401  0.1472  0.2844  0.6563
15930SOL    HW148368   9.398   3.669   0.423 -0.2121  0.0992  0.7419
15930SOL    HW248369   9.413   3.527   0.473 -0.2562 -0.0875  0.2341
15931SOL     OW48370   5.999   6.827   8.843  0.2262  0.7655 -0.0884
15931SOL    HW148371   5.963   6.915   8.841  0.3277  0.8005 -0.3560
15931SOL    HW248372   6.093   6.839   8.857  0.0681  0.6572  1.1742
15932SOL     OW48373   8.847   2.754   0.609 -0.0605  0.0330 -0.0328
15932SOL    HW148374   8.925   2.723   0.562  0.4702  0.4021  0.5954
15932SOL    HW248375   8.786   2.680   0.604  0.5222 -0.4553 -0.0823
15933SOL     OW48376   9.558   7.774   2.300  0.4573 -0.2463  0.6746
15933SOL    HW148377   9.501   7.848   2.280 -0.1965 -0.8842  0.1204
15933SOL    HW248378   9.501   7.711   2.344  1.1901 -0.1123  1.8712
15934SOL     OW48379   5.488   5.660   4.118 -0.0063 -0.5756 -0.9334
15934SOL    HW148380   5.489   5.665   4.213  1.1678 -1.4952 -0.8690
15934SOL    HW248381   5.579   5.672   4.092 -0.5937  1.8999 -2.1216
15935SOL     OW48382   5.219   3.399   9.874  0.6227  0.1110 -0.2116
15935SOL    HW148383   5.160   3.405   9.799 -0.8404 -0.4072  0.8454
15935SOL    HW248384   5.189   3.322   9.922  0.9012  0.9656  1.4096
15936SOL     OW48385   3.656   1.610   1.086 -0.3244 -0.1116  0.1526
15936SOL    HW148386   3.668   1.560   1.166 -2.3006  0.5414  0.9098
15936SOL    HW248387   3.736   1.662   1.077  0.3703 -0.9921  1.0961
15937SOL     OW48388   0.573   4.011   6.933  0.0884  0.2599  0.1655
15937SOL    HW148389   0.499   3.977   6.982 -0.3802  1.0898  0.0598
15937SOL    HW248390   0.559   4.106   6.931  0.8887  0.3817 -0.2835
15938SOL     OW48391   1.275   7.333   4.006 -0.3626  0.0303  0.4508
15938SOL    HW148392   1.291   7.338   4.100 -0.9532  1.5078  0.5074
15938SOL    HW248393   1.262   7.424   3.980 -1.1770 -0.4457 -0.8798
15939SOL     OW48394   5.577   7.157   0.769  0.5046 -0.9264  0.5137
15939SOL    HW148395   5.550   7.075   0.728 -0.2936 -0.3802 -0.1077
15939SOL    HW248396   5.626   7.131   0.846  0.5017 -1.9860  0.1697
15940SOL     OW48397   8.281   9.212   9.920 -0.1584  0.0819 -0.0796
15940SOL    HW148398   8.202   9.221   9.868 -0.2695  2.8757  0.4241
15940SOL    HW248399   8.319   9.300   9.922  2.9638 -1.1365 -0.2695
15941SOL     OW48400   9.732   6.061   6.895 -0.3176  0.7335 -0.1638
15941SOL    HW148401   9.735   6.033   6.987  1.1434  2.2120  0.2778
15941SOL    HW248402   9.649   6.027   6.863 -0.9403  0.3252  1.7427
15942SOL     OW48403   0.489   6.637   2.997 -0.1395 -0.0068  0.1714
15942SOL    HW148404   0.396   6.657   3.000 -0.8697 -2.6853 -1.1981
15942SOL    HW248405   0.499   6.563   3.057  1.0598  0.0602  0.0773
15943SOL     OW48406   3.237   5.352   8.710  0.2106  0.0161 -0.0236
15943SOL    HW148407   3.312   5.364   8.651 -0.5826 -0.7191 -1.2461
15943SOL    HW248408   3.191   5.435   8.706  0.2979  0.0559 -0.2592
15944SOL     OW48409   6.050   7.201   1.447 -0.3223 -0.3581 -0.0071
15944SOL    HW148410   6.028   7.109   1.462  0.8104 -0.4702  1.0827
15944SOL    HW248411   5.966   7.247   1.451 -1.0108 -1.4192 -1.3709
15945SOL     OW48412   7.643   0.586   0.157  0.2009 -0.3348  0.1632
15945SOL    HW148413   7.591   0.543   0.225  1.1881 -1.3032  0.3448
15945SOL    HW248414   7.591   0.661   0.130 -1.1316 -1.0839  0.5641
15946SOL     OW48415   4.868   9.233   9.102 -0.2358 -0.1205 -0.4518
15946SOL    HW148416   4.935   9.172   9.069 -0.6954  0.0386 -1.7241
15946SOL    HW248417   4.899   9.257   9.190  1.0520 -0.5410 -0.7660
15947SOL     OW48418   6.906   3.653   9.119  0.0057 -0.4356  0.2968
15947SOL    HW148419   6.968   3.702   9.066 -0.9972 -0.8660 -1.3181
15947SOL    HW248420   6.961   3.597   9.175  1.1162  1.3502  1.0868
15948SOL     OW48421   5.376   0.777   1.632  0.4652 -0.4792 -0.1831
15948SOL    HW148422   5.326   0.859   1.636  0.5001 -0.4723  0.1208
15948SOL    HW248423   5.312   0.713   1.600  0.5117 -0.2790 -0.6886
15949SOL     OW48424   5.896   3.087   2.523  0.1173 -0.6079  0.0550
15949SOL    HW148425   5.947   3.124   2.451  0.6837 -0.5718  0.4662
15949SOL    HW248426   5.805   3.105   2.500  0.2573 -1.1172 -0.9392
15950SOL     OW48427   0.045   1.846   6.384  0.5605 -0.6679  0.0996
15950SOL    HW148428  -0.017   1.816   6.451  1.0415  0.4276  1.0788
15950SOL    HW248429   0.131   1.830   6.423  0.8858 -1.5238 -0.9528
15951SOL     OW48430   5.524   1.447   7.246  0.5840  0.2376 -0.4963
15951SOL    HW148431   5.617   1.427   7.243  0.4049 -0.6308 -0.3939
15951SOL    HW248432   5.482   1.366   7.276 -0.1132  0.9107  0.3997
15952SOL     OW48433   2.629   5.703   3.870 -0.1427 -0.0388 -0.4915
15952SOL    HW148434   2.633   5.786   3.823 -0.4242 -0.5225 -1.4052
15952SOL    HW248435   2.617   5.727   3.962 -0.5521  0.9226 -0.7848
15953SOL     OW48436   0.573   5.458   2.622 -0.3573  0.0602  0.0157
15953SOL    HW148437   0.646   5.397   2.615 -1.3786 -1.1671 -0.3010
15953SOL    HW248438   0.580   5.493   2.711 -1.2152 -2.4851  1.1637
15954SOL     OW48439   4.657   3.160   8.344  0.2702 -0.0582 -0.0297
15954SOL    HW148440   4.685   3.249   8.366 -0.8957  0.4372 -0.4224
15954SOL    HW248441   4.607   3.131   8.420 -3.1718  1.3927 -1.5211
15955SOL     OW48442   3.501   5.448   9.345 -0.3244 -0.1691  0.0747
15955SOL    HW148443   3.553   5.440   9.266 -1.8321  3.4984 -1.4966
15955SOL    HW248444   3.420   5.400   9.326  0.3475 -1.5121  0.4994
15956SOL     OW48445   9.118   7.631   7.939 -0.0665 -0.4740 -0.5103
15956SOL    HW148446   9.096   7.722   7.960  0.9565 -0.4788  0.6760
15956SOL    HW248447   9.177   7.638   7.864  1.3270 -0.0110  0.5714
15957SOL     OW48448   0.779   9.836   4.784  0.4427 -0.1372  0.7019
15957SOL    HW148449   0.720   9.912   4.777 -0.1642 -0.6610 -0.0744
15957SOL    HW248450   0.772   9.809   4.875 -1.4312 -0.8683  0.3957
15958SOL     OW48451   8.371   9.705   1.045  0.1490 -0.1131  0.6986
15958SOL    HW148452   8.352   9.646   0.973  0.4002  0.1007  0.4527
15958SOL    HW248453   8.354   9.653   1.124 -1.2627  0.0268  0.4961
15959SOL     OW48454   2.223   0.591   2.269 -0.4160 -0.0184 -0.2269
15959SOL    HW148455   2.313   0.560   2.280 -0.4146 -0.2589 -0.8733
15959SOL    HW248456   2.234   0.683   2.242 -0.2533 -0.6838 -2.6716
15960SOL     OW48457   3.292   8.261   8.964  0.0162  0.3876  0.2831
15960SOL    HW148458   3.268   8.246   9.055 -0.2096  2.3067  0.5737
15960SOL    HW248459   3.385   8.236   8.959 -0.5870 -2.1272  0.3831
15961SOL     OW48460   3.765   3.978   0.822 -0.1688  0.0533 -0.1857
15961SOL    HW148461   3.803   3.892   0.843  0.1871 -0.0139 -1.0587
15961SOL    HW248462   3.671   3.964   0.824 -0.1304 -0.1215  0.6254
15962SOL     OW48463   4.095   7.076   7.927  0.5210 -0.1620 -0.2177
15962SOL    HW148464   4.071   7.065   8.019  0.9513  0.4572 -0.0236
15962SOL    HW248465   4.173   7.132   7.929  2.0061 -2.1053 -0.8140
15963SOL     OW48466   8.786   9.404   0.452  0.0408 -0.0359 -0.4533
15963SOL    HW148467   8.714   9.341   0.461 -0.3276  0.4233 -0.1329
15963SOL    HW248468   8.865   9.350   0.447 -0.2518 -0.5126 -0.0008
15964SOL     OW48469   2.292   6.386   1.741  0.3766 -0.0512  0.0534
15964SOL    HW148470   2.198   6.388   1.762  0.3418  1.3412 -0.0832
15964SOL    HW248471   2.302   6.452   1.672  1.6976  1.0395  1.2150
15965SOL     OW48472   4.479   6.607   4.649 -0.1371  0.3523  0.2162
15965SOL    HW148473   4.407   6.572   4.597  0.3542 -0.0365 -0.2107
15965SOL    HW248474   4.454   6.589   4.740  0.4992 -1.9481 -0.0025
15966SOL     OW48475   1.727   3.740   4.148  0.3877  0.3773  0.1560
15966SOL    HW148476   1.755   3.760   4.238 -0.1141  0.2040  0.3533
15966SOL    HW248477   1.768   3.655   4.129  1.2141  0.8229 -0.1043
15967SOL     OW48478   3.667   9.000   1.554  0.1711  0.0189  0.3759
15967SOL    HW148479   3.726   9.047   1.495  0.4424 -0.2105  0.4645
15967SOL    HW248480   3.673   8.909   1.526 -1.5741  0.2215 -0.8572
15968SOL     OW48481   7.411   9.231   0.996 -0.3245 -0.3505  0.2831
15968SOL    HW148482   7.363   9.164   0.947 -0.9386  0.7115 -0.6242
15968SOL    HW248483   7.356   9.247   1.073 -1.7538  1.1614 -0.9576
15969SOL     OW48484   5.122   2.900   6.782  0.8078 -0.1994 -0.4011
15969SOL    HW148485   5.063   2.847   6.835 -1.2445 -1.0128 -3.2108
15969SOL    HW248486   5.087   2.989   6.790  0.8266 -0.2289  0.0155
15970SOL     OW48487   2.463   4.317   4.780  0.0127  0.1659  0.6270
15970SOL    HW148488   2.458   4.364   4.863  2.3115  3.2024 -0.7118
15970SOL    HW248489   2.392   4.353   4.727 -0.0527 -0.0744  0.5490
15971SOL     OW48490   5.139   9.111   6.241 -0.5846 -0.3305 -0.3472
15971SOL    HW148491   5.165   9.184   6.184  0.1344 -0.8862 -0.7431
15971SOL    HW248492   5.183   9.034   6.203  0.3958 -0.6206  1.2983
15972SOL     OW48493   8.874   9.388   6.806  0.2683 -0.6754  0.1213
15972SOL    HW148494   8.915   9.434   6.879 -0.9404 -0.0385  0.4232
15972SOL    HW248495   8.780   9.394   6.823 -0.1017  0.3361 -1.9605
15973SOL     OW48496   9.845   4.444   2.346  0.1260  0.2140  0.4398
15973SOL    HW148497   9.790   4.404   2.279  0.0310  0.8375  0.1447
15973SOL    HW248498   9.815   4.535   2.352  0.4358  0.2864  1.0030
15974SOL     OW48499   7.371   0.781   7.757  0.0143  0.3438  0.1454
15974SOL    HW148500   7.319   0.780   7.838 -1.1841  0.0407 -0.5997
15974SOL    HW248501   7.439   0.846   7.773 -0.3665  0.4753  1.3062
15975SOL     OW48502   8.617   4.724   0.439  0.3712 -0.0321  0.3139
15975SOL    HW148503   8.542   4.758   0.488  0.5922 -1.4553  1.7229
15975SOL    HW248504   8.580   4.660   0.378  0.3046  0.2887  0.0151
15976SOL     OW48505   9.060   3.545   0.497  0.4327 -0.0386 -0.2731
15976SOL    HW148506   9.103   3.533   0.582  0.5052  1.7947 -0.0125
15976SOL    HW248507   9.077   3.463   0.450 -0.3912 -1.4937  1.7871
15977SOL     OW48508   2.948   7.872   6.667 -0.2273 -0.9367 -0.0053
15977SOL    HW148509   3.018   7.858   6.730  0.5423 -3.6692 -1.3220
15977SOL    HW248510   2.986   7.846   6.583 -2.0509  0.0041 -1.1874
15978SOL     OW48511   8.142   2.285   9.694 -0.1942  0.2727 -0.2099
15978SOL    HW148512   8.135   2.297   9.600  2.3169 -2.8668 -0.9729
15978SOL    HW248513   8.089   2.208   9.714 -2.6844  2.2473  1.5223
15979SOL     OW48514   9.078   7.375   7.216  0.3692 -0.6260 -0.1787
15979SOL    HW148515   9.070   7.362   7.311 -1.4715  0.6120 -0.0935
15979SOL    HW248516   9.000   7.333   7.180  1.7962 -2.3968 -1.3623
15980SOL     OW48517   3.770   0.209   7.015 -0.0073  0.0527  0.1189
15980SOL    HW148518   3.705   0.143   6.991 -0.0478  0.8625 -2.3371
15980SOL    HW248519   3.852   0.161   7.020 -0.3615 -0.5265  0.5500
15981SOL     OW48520   8.528   1.384   1.753 -0.2198 -0.3316 -0.2861
15981SOL    HW148521   8.523   1.405   1.846  0.3920  0.3030 -0.3900
15981SOL    HW248522   8.560   1.464   1.711  3.6189 -1.7366 -0.5236
15982SOL     OW48523   1.272   0.540   1.152  0.1896  0.1796 -0.0932
15982SOL    HW148524   1.324   0.464   1.178 -0.7299 -0.4750 -0.1238
15982SOL    HW248525   1.230   0.570   1.232  2.9952  2.6633  0.6104
15983SOL     OW48526   1.642   0.311   2.080 -0.3947 -0.3889 -0.2855
15983SOL    HW148527   1.702   0.242   2.051 -1.2621 -0.8685 -1.0274
15983SOL    HW248528   1.668   0.388   2.030  0.3138 -0.2779  0.2366
15984SOL     OW48529   6.388   4.558   5.877  0.2174  0.1216  0.1365
15984SOL    HW148530   6.405   4.639   5.829  0.7777 -0.2820 -0.3643
15984SOL    HW248531   6.407   4.579   5.968 -1.2964  1.0323  0.2851
15985SOL     OW48532   5.686   8.266   3.225  0.0911 -0.5550  0.4958
15985SOL    HW148533   5.649   8.239   3.140  0.8121 -0.4828  0.1507
15985SOL    HW248534   5.764   8.212   3.235  0.1386 -0.3939  1.0094
15986SOL     OW48535   3.939   5.198   2.829 -0.5052  0.3013  0.2221
15986SOL    HW148536   3.979   5.279   2.796 -0.3657 -0.0010 -0.3697
15986SOL    HW248537   3.891   5.225   2.907 -0.3085  0.9250  0.1336
15987SOL     OW48538   4.690   4.462   0.532  0.0497 -0.2020 -0.2173
15987SOL    HW148539   4.632   4.455   0.457  0.3665 -0.0127 -0.4807
15987SOL    HW248540   4.718   4.372   0.550 -0.6966 -0.3620  0.2119
15988SOL     OW48541   5.610   2.668   7.158  0.2395  0.2226  0.0141
15988SOL    HW148542   5.680   2.706   7.105 -0.5518 -0.3757 -1.5263
15988SOL    HW248543   5.592   2.734   7.224  1.4240  0.9033 -0.3107
15989SOL     OW48544   6.661   4.817   6.064 -0.0017  0.3692 -0.0809
15989SOL    HW148545   6.747   4.775   6.073 -1.4312 -2.7462  0.7534
15989SOL    HW248546   6.667   4.868   5.984  3.1121  1.6910  0.8661
15990SOL     OW48547   2.338   1.214   3.364 -0.9943 -0.0021  0.2712
15990SOL    HW148548   2.247   1.243   3.368 -1.4289 -1.1776 -0.3921
15990SOL    HW248549   2.345   1.172   3.278 -0.1362 -0.9172  0.7700
15991SOL     OW48550   0.568   1.845   8.735  0.3674  0.6076  0.1231
15991SOL    HW148551   0.478   1.846   8.702  0.5944  0.2575 -0.5252
15991SOL    HW248552   0.588   1.752   8.747  0.8007  0.6518 -0.2034
15992SOL     OW48553   6.597   9.868   3.239 -0.4719 -0.0523 -0.2498
15992SOL    HW148554   6.635   9.825   3.316  1.5445  0.3033 -0.9933
15992SOL    HW248555   6.545   9.800   3.197  3.1358 -2.1387 -1.7527
15993SOL     OW48556   9.556   3.585   5.536 -0.2184  0.1132 -0.5154
15993SOL    HW148557   9.525   3.513   5.481 -1.8708 -0.1973  0.7563
15993SOL    HW248558   9.550   3.662   5.479 -0.0255 -0.4860 -1.3645
15994SOL     OW48559   3.810   2.101   9.185  0.1041  1.1044 -0.1401
15994SOL    HW148560   3.842   2.018   9.149  0.9152  0.7094  1.3992
15994SOL    HW248561   3.718   2.085   9.205  0.1203  0.7490 -0.3415
15995SOL     OW48562   3.656   1.233   5.020 -0.4036  0.0332 -0.6022
15995SOL    HW148563   3.614   1.291   5.084 -1.5624 -1.0997 -0.3025
15995SOL    HW248564   3.749   1.255   5.026 -0.8579  2.2863 -0.9671
15996SOL     OW48565   0.067   3.038   0.325  0.0179 -0.6849  0.1158
15996SOL    HW148566   0.028   3.053   0.411  0.0852  0.3610 -0.0270
15996SOL    HW248567   0.132   3.107   0.316 -0.9729  0.1147 -1.3526
15997SOL     OW48568   3.739   3.557   0.272  0.5919  0.0944  0.3539
15997SOL    HW148569   3.741   3.627   0.338  0.7157  0.2170  0.2198
15997SOL    HW248570   3.657   3.510   0.291 -0.2965  1.2185 -0.5230
15998SOL     OW48571   8.480   5.185   9.466  0.0494  0.2174 -0.2908
15998SOL    HW148572   8.409   5.175   9.529  0.7596 -1.5951  0.2968
15998SOL    HW248573   8.523   5.266   9.490 -1.3431  0.9554 -0.1808
15999SOL     OW48574   3.362   0.774   0.670  0.1865 -0.1991  0.2311
15999SOL    HW148575   3.403   0.799   0.753  0.3805 -0.9095  0.3571
15999SOL    HW248576   3.435   0.742   0.616 -0.0467 -0.4713  0.0744
16000SOL     OW48577   3.733   5.368   4.049  0.1883  0.0702 -0.3626
16000SOL    HW148578   3.731   5.334   4.139 -1.2213 -0.3087 -0.5131
16000SOL    HW248579   3.819   5.343   4.016  0.2138 -0.9740  0.4371
16001SOL     OW48580   4.623   9.592   0.719 -0.5493  0.1641 -0.3784
16001SOL    HW148581   4.555   9.651   0.685 -0.4605 -0.2177 -1.2445
16001SOL    HW248582   4.624   9.519   0.657 -1.6131 -1.4696  1.4095
16002SOL     OW48583   4.862   4.664   6.045 -0.3776 -0.0736 -0.4660
16002SOL    HW148584   4.929   4.686   5.980 -0.5314 -4.2553 -2.3462
16002SOL    HW248585   4.779   4.678   6.000 -0.5827 -0.4421 -0.2098
16003SOL     OW48586   0.752   6.539   0.724  0.0939 -0.0886 -0.4727
16003SOL    HW148587   0.765   6.485   0.802 -0.4024  0.3037 -0.1144
16003SOL    HW248588   0.719   6.478   0.657 -0.5377 -0.2166 -0.0500
16004SOL     OW48589   0.618   7.916   4.399  0.1296  0.0105 -0.1449
16004SOL    HW148590   0.542   7.972   4.383  0.0946  0.8631  2.6256
16004SOL    HW248591   0.607   7.883   4.488  1.7482 -1.9281 -0.5714
16005SOL     OW48592   3.962   7.588   1.555  0.0745 -0.9419 -0.1084
16005SOL    HW148593   3.870   7.611   1.549  0.5346  0.6456 -1.5891
16005SOL    HW248594   3.962   7.501   1.595 -1.9999 -0.6456  0.6488
16006SOL     OW48595   9.998   0.737   5.614 -0.1800 -0.1694  0.9377
16006SOL    HW148596   9.956   0.656   5.585  0.0638 -0.5664  1.6703
16006SOL    HW248597   9.928   0.802   5.611 -0.8909 -0.8358  2.2047
16007SOL     OW48598   2.836   1.268   1.318 -0.6418  0.1277  0.3072
16007SOL    HW148599   2.842   1.331   1.246 -0.4732 -0.9640 -0.6671
16007SOL    HW248600   2.836   1.322   1.397  0.8980  1.2838 -0.4344
16008SOL     OW48601   9.799   9.637   2.213  0.1191 -0.4995  0.2481
16008SOL    HW148602   9.768   9.639   2.303  1.5604 -0.8531  0.7773
16008SOL    HW248603   9.720   9.639   2.160 -0.7639 -0.6706  1.5273
16009SOL     OW48604   3.356   7.104   8.596  0.4059  0.1550  0.0772
16009SOL    HW148605   3.270   7.119   8.558  0.8533 -0.9891 -1.4831
16009SOL    HW248606   3.339   7.085   8.688 -0.9948  0.1067 -0.1740
16010SOL     OW48607   2.651   6.210   2.413 -0.1401 -0.4568 -0.0092
16010SOL    HW148608   2.744   6.225   2.429  0.4673 -0.2766 -3.1541
16010SOL    HW248609   2.644   6.116   2.395 -0.5747 -0.4607  0.1535
16011SOL     OW48610   8.752   3.507   0.521  0.2771 -0.1078  0.1205
16011SOL    HW148611   8.759   3.590   0.568 -0.2127  0.7318 -1.2297
16011SOL    HW248612   8.843   3.482   0.504  0.4196  0.2334  0.3743
16012SOL     OW48613   2.806   5.902   1.574  0.0059 -0.0819 -0.1228
16012SOL    HW148614   2.856   5.943   1.504 -1.3943 -0.6987 -1.5699
16012SOL    HW248615   2.802   5.968   1.644  0.2614  1.0950 -1.1915
16013SOL     OW48616   7.277   6.777   8.236  0.0567 -0.6133  0.0284
16013SOL    HW148617   7.220   6.846   8.202  0.0657 -1.0088 -0.7979
16013SOL    HW248618   7.258   6.775   8.330  0.2632  0.7066  0.1222
16014SOL     OW48619   0.273   8.061   9.825  0.3338 -0.3868  0.3237
16014SOL    HW148620   0.283   7.966   9.832  0.3493 -0.3686  0.5416
16014SOL    HW248621   0.362   8.094   9.815  0.4364 -0.2889  1.5020
16015SOL     OW48622   1.210   6.646   8.067  0.3979 -0.0776 -0.0708
16015SOL    HW148623   1.166   6.707   8.008  0.8730  0.0090 -0.3386
16015SOL    HW248624   1.140   6.611   8.122 -0.0655 -0.2303 -0.7492
16016SOL     OW48625   3.167   4.039   1.618  0.0945  0.8654 -0.2501
16016SOL    HW148626   3.088   4.007   1.573  0.6445 -0.3868 -0.3786
16016SOL    HW248627   3.239   4.018   1.558  0.5236  2.1904 -0.2321
16017SOL     OW48628   3.461   5.443   2.465  0.0414 -0.0096 -0.8012
16017SOL    HW148629   3.482   5.524   2.512  0.8143 -1.2234  1.0755
16017SOL    HW248630   3.366   5.436   2.470  0.0558  0.2313  0.0509
16018SOL     OW48631   3.977   1.921   8.308  0.8013  0.1658 -0.5228
16018SOL    HW148632   3.998   1.877   8.390 -1.0161 -1.0235 -0.6277
16018SOL    HW248633   4.011   1.863   8.240  1.3678  0.6145 -0.6234
16019SOL     OW48634   6.020   2.423   2.488  0.1119  0.9016 -0.3309
16019SOL    HW148635   6.035   2.340   2.532 -0.1894  0.8707 -0.2900
16019SOL    HW248636   6.035   2.404   2.395  0.8737  0.9975 -0.2387
16020SOL     OW48637   6.540   9.445   5.066 -0.7478 -0.1526 -0.7583
16020SOL    HW148638   6.550   9.529   5.110  0.7111 -0.3913 -0.5988
16020SOL    HW248639   6.553   9.463   4.973  1.8839 -0.4979 -0.5376
16021SOL     OW48640   6.822   9.726   2.494  0.0231 -0.1206 -0.2549
16021SOL    HW148641   6.773   9.670   2.435 -0.0380 -0.2867 -0.0481
16021SOL    HW248642   6.785   9.813   2.482  0.9791  0.1506 -1.5467
16022SOL     OW48643   2.360   8.426   5.290 -0.4442  0.8224 -0.1974
16022SOL    HW148644   2.390   8.411   5.380 -1.4095 -0.1707 -0.0108
16022SOL    HW248645   2.432   8.471   5.247  1.4694 -1.7396  0.1215
16023SOL     OW48646   8.335   8.769   5.734  0.9570 -0.1830 -0.2351
16023SOL    HW148647   8.328   8.840   5.798 -2.2592 -1.0054  0.5387
16023SOL    HW248648   8.318   8.811   5.649  2.0947  0.4000 -0.1959
16024SOL     OW48649   0.495   8.630   3.413 -0.0099  0.1620 -0.5169
16024SOL    HW148650   0.528   8.540   3.423 -0.4493  0.1730  1.4640
16024SOL    HW248651   0.410   8.619   3.370 -0.1209 -0.4024 -0.1769
16025SOL     OW48652   7.208   1.035   6.516 -0.4209 -0.0859 -0.3537
16025SOL    HW148653   7.197   1.071   6.604 -1.0727 -0.6164 -0.2136
16025SOL    HW248654   7.224   1.112   6.461  0.6567  0.1915  0.3163
16026SOL     OW48655   4.280   8.244   7.970 -0.0132  0.0395 -0.0728
16026SOL    HW148656   4.326   8.169   8.008 -0.4190  0.1589  0.6730
16026SOL    HW248657   4.324   8.258   7.886  1.0154 -0.1399  0.4094
16027SOL     OW48658   3.901   3.036   6.905  0.5486 -0.1351 -0.1609
16027SOL    HW148659   3.828   2.985   6.872 -0.5104  2.2986 -1.8402
16027SOL    HW248660   3.937   2.983   6.976 -0.2181 -3.3003 -1.9621
16028SOL     OW48661   1.588   9.390   0.982 -0.2131  0.3070 -0.0806
16028SOL    HW148662   1.586   9.296   0.965  0.3589  0.4744 -1.1641
16028SOL    HW248663   1.529   9.427   0.916  0.5800  0.8210 -0.5065
16029SOL     OW48664   1.387   3.972   1.365 -0.0184 -0.2635 -0.1438
16029SOL    HW148665   1.406   4.055   1.408  1.3509 -0.0636 -1.0614
16029SOL    HW248666   1.347   3.918   1.433 -1.2361  1.2379  0.3783
16030SOL     OW48667   4.834   5.761   8.803  0.1911 -0.0259 -0.4214
16030SOL    HW148668   4.764   5.752   8.868 -0.2809  1.2968 -0.7318
16030SOL    HW248669   4.897   5.820   8.844 -0.5640  1.5922 -1.4969
16031SOL     OW48670   2.300   8.691   9.342 -0.1294 -0.1666  0.1408
16031SOL    HW148671   2.223   8.700   9.398 -0.5253 -1.5124 -0.1445
16031SOL    HW248672   2.268   8.710   9.254  0.0475  0.0252  0.1158
16032SOL     OW48673   4.610   9.965   3.117 -0.1298  0.0386  0.2885
16032SOL    HW148674   4.671  10.034   3.089  0.6382 -0.7167  0.0522
16032SOL    HW248675   4.594   9.914   3.037 -1.9455  0.8459  0.0841
16033SOL     OW48676   7.736   1.375   9.044  0.4773 -0.0352 -0.0317
16033SOL    HW148677   7.772   1.458   9.075 -1.6225  0.9853 -0.1132
16033SOL    HW248678   7.776   1.362   8.958  2.4303 -0.2362  0.8737
16034SOL     OW48679   4.683   5.579   7.933  0.6608  0.2950 -0.3453
16034SOL    HW148680   4.644   5.666   7.920  0.4648  0.2290 -0.2081
16034SOL    HW248681   4.769   5.585   7.891  0.8898  0.7463  0.1722
16035SOL     OW48682   8.413   6.035   4.269  0.0161  0.1375  0.0832
16035SOL    HW148683   8.496   6.028   4.222 -0.9366  1.0108 -1.8144
16035SOL    HW248684   8.348   5.999   4.210 -0.9129 -1.3135  1.8703
16036SOL     OW48685   6.138   4.509   5.070  0.6079  0.2640 -0.3929
16036SOL    HW148686   6.047   4.516   5.100  0.4585 -0.5774 -0.6053
16036SOL    HW248687   6.189   4.500   5.150  0.2547 -1.5387 -0.3154
16037SOL     OW48688   8.050   4.969   2.654  0.2871  0.0396  0.1964
16037SOL    HW148689   8.046   4.942   2.562  3.7887 -1.1105  0.2475
16037SOL    HW248690   7.990   4.908   2.698 -0.2724 -0.4069 -1.1071
16038SOL     OW48691   2.345   5.764   2.782 -0.3239 -0.3241 -0.0968
16038SOL    HW148692   2.328   5.670   2.789 -0.7002 -0.1379  2.3594
16038SOL    HW248693   2.441   5.771   2.788 -0.2385 -0.5682 -1.0161
16039SOL     OW48694   4.685   1.250   4.434  0.4467  0.4331 -0.0533
16039SOL    HW148695   4.683   1.235   4.339 -0.5399  1.3842 -0.2110
16039SOL    HW248696   4.724   1.337   4.443  2.4966 -0.4875  0.5737
16040SOL     OW48697   7.798   9.554   8.288  0.4863 -0.6196  0.7266
16040SOL    HW148698   7.804   9.544   8.193  1.5643 -2.6185  0.9537
16040SOL    HW248699   7.836   9.640   8.306  0.0191 -0.1079 -0.6600
16041SOL     OW48700   6.098   5.995   3.302  0.2999  0.1863  0.3065
16041SOL    HW148701   6.061   5.944   3.230  0.4074 -0.6437  0.8213
16041SOL    HW248702   6.051   5.964   3.379  0.6982  0.5374  0.6927
16042SOL     OW48703   4.967   9.160   2.946  0.3852 -0.1569 -0.4678
16042SOL    HW148704   4.934   9.083   2.900  0.9883 -0.1672 -0.9013
16042SOL    HW248705   4.981   9.130   3.036 -2.4263  0.3231  0.2192
16043SOL     OW48706   7.480   0.374   8.681  0.1413 -0.0292  0.4144
16043SOL    HW148707   7.559   0.364   8.627  0.3290  3.0264 -0.0639
16043SOL    HW248708   7.448   0.461   8.660 -1.0064  0.4874  3.6887
16044SOL     OW48709   7.146   0.565   7.708 -0.1450  0.4695  0.2315
16044SOL    HW148710   7.234   0.597   7.726  0.0190  0.7647 -1.0431
16044SOL    HW248711   7.139   0.563   7.613 -1.2386 -0.3290  0.3011
16045SOL     OW48712   3.794   5.590   5.865 -0.0863 -0.5126 -0.4761
16045SOL    HW148713   3.836   5.582   5.779  0.9034 -2.2771  0.1265
16045SOL    HW248714   3.709   5.549   5.854 -0.5982  0.6278 -0.9794
16046SOL     OW48715   0.720   0.227   7.511 -0.0939 -0.0552 -0.1503
16046SOL    HW148716   0.734   0.209   7.604 -3.1497  0.2720  0.4674
16046SOL    HW248717   0.687   0.145   7.475  0.2284  0.0741 -0.7560
16047SOL     OW48718   5.624   2.668   4.495  0.1458  0.1511  0.3121
16047SOL    HW148719   5.697   2.713   4.454 -0.7385  0.7438 -0.6584
16047SOL    HW248720   5.548   2.722   4.474 -0.3609  0.5656  2.8143
16048SOL     OW48721   9.241   4.642   5.670  0.1697 -0.2576  0.2197
16048SOL    HW148722   9.194   4.724   5.660  2.6319  1.3819  1.1112
16048SOL    HW248723   9.187   4.577   5.624 -2.1223  1.7110 -0.0596
16049SOL     OW48724   5.782   6.954   0.497 -0.4084 -0.1706  0.6074
16049SOL    HW148725   5.734   6.878   0.530 -0.9668 -0.0909 -0.0065
16049SOL    HW248726   5.873   6.936   0.519 -0.7106 -0.3198  1.8053
16050SOL     OW48727   6.282   7.290   8.136  0.0589 -0.4989 -0.3261
16050SOL    HW148728   6.219   7.310   8.066 -0.1638 -0.2922 -0.0669
16050SOL    HW248729   6.332   7.371   8.147 -0.2916 -0.3439  0.1538
16051SOL     OW48730   9.000   8.250   8.119 -0.0548  0.1373  0.2712
16051SOL    HW148731   8.949   8.222   8.044 -0.1184 -0.3268  0.4825
16051SOL    HW248732   8.937   8.294   8.176 -0.0914  0.1189  0.2453
16052SOL     OW48733   2.204   4.910   8.544 -0.1318  0.6328 -0.1214
16052SOL    HW148734   2.287   4.940   8.581  1.6621  0.7131 -3.7555
16052SOL    HW248735   2.221   4.820   8.517 -2.4093 -0.5525  2.0176
16053SOL     OW48736   6.979   5.726   6.806  0.4203  0.5746  0.2789
16053SOL    HW148737   6.926   5.793   6.850 -0.7246  0.1378 -0.3937
16053SOL    HW248738   6.955   5.644   6.849  1.4408  0.5204  0.7577
16054SOL     OW48739   8.626   0.452   8.072  0.4590 -0.0909 -0.2644
16054SOL    HW148740   8.697   0.443   8.136 -0.7458 -1.9375  0.8836
16054SOL    HW248741   8.613   0.363   8.038 -1.2106  0.2362 -0.5623
16055SOL     OW48742   9.197   8.434   6.355 -0.2106 -0.0605 -0.2510
16055SOL    HW148743   9.176   8.513   6.304 -1.3770 -0.0719  0.1932
16055SOL    HW248744   9.124   8.374   6.338 -0.4674 -0.1829  1.1773
16056SOL     OW48745   8.513   4.572   1.250  0.0216 -0.3016  0.0380
16056SOL    HW148746   8.562   4.595   1.171  0.5961  1.5309  0.8835
16056SOL    HW248747   8.566   4.506   1.294  1.2117  0.8299  0.3585
16057SOL     OW48748   9.645   1.988   5.214 -0.0290 -0.1103  0.2387
16057SOL    HW148749   9.638   1.904   5.258  1.6880 -0.1541  0.4959
16057SOL    HW248750   9.660   2.051   5.284 -0.4741  0.2843 -0.0203
16058SOL     OW48751   0.233   8.040   3.570 -0.2161 -0.2499  0.3247
16058SOL    HW148752   0.315   8.003   3.538  0.8760  0.5057  2.0704
16058SOL    HW248753   0.260   8.120   3.616 -1.9411  0.0696  0.8358
16059SOL     OW48754   8.790   7.081   1.795 -0.0769 -0.3547 -0.3616
16059SOL    HW148755   8.715   7.026   1.774  0.6907 -1.1596 -1.0986
16059SOL    HW248756   8.852   7.066   1.723  0.8467  0.1832  0.2934
16060SOL     OW48757   9.784   4.745   5.864 -0.5855  0.3535  0.5570
16060SOL    HW148758   9.692   4.769   5.866 -1.0140 -1.2149  1.4821
16060SOL    HW248759   9.807   4.729   5.956  0.6027  0.6800  0.3427
16061SOL     OW48760   8.019   1.540   1.260 -0.2032 -0.5350 -0.3117
16061SOL    HW148761   7.998   1.626   1.296  2.2269 -0.1318  0.3253
16061SOL    HW248762   8.029   1.483   1.337  3.4139 -0.0498 -0.2348
16062SOL     OW48763   0.553   3.801   3.520  0.1496 -0.1363  0.5111
16062SOL    HW148764   0.476   3.834   3.475 -1.1433 -2.4291  0.8867
16062SOL    HW248765   0.604   3.757   3.452  0.3599  0.0993  0.5181
16063SOL     OW48766   5.425   2.665   3.194 -0.2169  0.2511  0.8223
16063SOL    HW148767   5.505   2.701   3.156 -0.7814  2.0693  1.2324
16063SOL    HW248768   5.413   2.581   3.151  0.9952  0.7222 -0.5001
16064SOL     OW48769   1.267   6.135   1.735  0.0572 -0.5096 -0.0483
16064SOL    HW148770   1.191   6.102   1.785 -0.1892  0.0575 -0.0384
16064SOL    HW248771   1.261   6.092   1.650 -1.5605  1.1572 -0.8623
16065SOL     OW48772   6.840   6.306   2.295  0.4797 -0.1326  0.8449
16065SOL    HW148773   6.914   6.260   2.255  1.4357 -0.4955  2.9255
16065SOL    HW248774   6.831   6.267   2.382 -0.6339  1.5449  1.5326
16066SOL     OW48775   8.890   4.626   7.492  0.0852 -0.3163 -0.4110
16066SOL    HW148776   8.928   4.559   7.435 -2.4784 -0.3127 -2.3259
16066SOL    HW248777   8.877   4.702   7.434 -2.1136 -0.1105  0.2754
16067SOL     OW48778   1.782   4.982   2.340 -0.3054  0.1838 -0.5403
16067SOL    HW148779   1.860   4.940   2.376 -0.6990 -0.6416 -0.6156
16067SOL    HW248780   1.713   4.961   2.403 -0.3637  1.3921 -0.1733
16068SOL     OW48781   1.472   9.821   0.990 -0.1133 -0.0906  0.2243
16068SOL    HW148782   1.558   9.818   0.948 -0.4699  1.3698 -0.6456
16068SOL    HW248783   1.415   9.770   0.933 -0.6118  1.9425 -1.1680
16069SOL     OW48784   7.556   9.187   6.677  0.1046  0.0674 -0.1271
16069SOL    HW148785   7.498   9.260   6.656 -1.7903 -1.4737 -0.6676
16069SOL    HW248786   7.514   9.144   6.751 -1.2570 -2.8195 -2.3334
16070SOL     OW48787   0.634   1.728   2.769  0.2629  0.3479 -0.0533
16070SOL    HW148788   0.590   1.718   2.854  0.1624 -0.4355 -0.1917
16070SOL    HW248789   0.708   1.668   2.773  1.1429  1.4219  0.0486
16071SOL     OW48790   5.312   7.477   0.801 -0.0814  0.0922 -0.0942
16071SOL    HW148791   5.366   7.441   0.731 -1.0860  0.9603 -1.3608
16071SOL    HW248792   5.348   7.565   0.817  0.7671 -0.4498  1.2210
16072SOL     OW48793   0.615   2.636   5.366 -1.0026  0.0559 -0.2607
16072SOL    HW148794   0.668   2.567   5.405 -1.0909  0.3931  0.4845
16072SOL    HW248795   0.654   2.717   5.400 -0.6141  0.3973 -1.4817
16073SOL     OW48796   1.375   3.583   9.151  0.4776  0.3146  0.2241
16073SOL    HW148797   1.283   3.560   9.165  0.3930 -0.4829 -1.3552
16073SOL    HW248798   1.381   3.675   9.176 -1.2787  1.0044 -1.5854
16074SOL     OW48799   1.540   9.629   9.730  0.1413  0.0459 -0.5902
16074SOL    HW148800   1.628   9.625   9.768  0.0687 -1.3009 -0.4807
16074SOL    HW248801   1.482   9.612   9.804 -0.1466 -0.1054 -0.8486
16075SOL     OW48802   1.068   7.193   2.584  0.1627  0.0444 -0.0669
16075SOL    HW148803   1.042   7.186   2.676  0.3343 -1.0790 -0.0900
16075SOL    HW248804   1.011   7.261   2.548 -1.0490 -0.6609  0.4685
16076SOL     OW48805   8.777   0.607   5.387 -0.8566  0.2093 -1.1835
16076SOL    HW148806   8.691   0.578   5.358 -0.7620 -0.8540 -0.4567
16076SOL    HW248807   8.838   0.568   5.324 -0.8689  0.7448 -1.5417
16077SOL     OW48808   5.176   5.922   2.012 -0.5999 -0.2974 -0.8021
16077SOL    HW148809   5.227   5.879   1.944  0.1802 -0.8920  0.1305
16077SOL    HW248810   5.118   5.982   1.965  1.0922  0.5572 -1.8908
16078SOL     OW48811   1.037   4.768   0.778  0.6868  0.0309 -0.2783
16078SOL    HW148812   1.052   4.857   0.808  1.1433 -0.0582 -0.2441
16078SOL    HW248813   0.974   4.732   0.840  1.5024 -0.1049  0.4861
16079SOL     OW48814   2.107   8.828   5.618 -0.2477  0.5315 -0.7494
16079SOL    HW148815   2.078   8.737   5.610  1.1223  0.2169 -3.8845
16079SOL    HW248816   2.201   8.822   5.635  0.7018  1.0941 -4.7570
16080SOL     OW48817   7.709   0.288   8.962 -0.3378  0.0285 -0.3370
16080SOL    HW148818   7.674   0.321   8.879 -2.4817 -0.1049  0.4439
16080SOL    HW248819   7.679   0.198   8.966  0.7446 -0.3231  0.0726
16081SOL     OW48820   7.411   2.484   4.475 -0.1985 -0.0332 -0.2363
16081SOL    HW148821   7.443   2.409   4.425 -0.8151 -0.9203  0.6854
16081SOL    HW248822   7.440   2.468   4.565 -2.1577 -0.2639  0.3847
16082SOL     OW48823   5.629   3.872   5.516  0.3484  0.5384 -0.4246
16082SOL    HW148824   5.710   3.828   5.490 -0.2576 -0.3847 -0.8346
16082SOL    HW248825   5.649   3.965   5.511  0.9138  0.3568 -2.1187
16083SOL     OW48826   8.291   8.476   9.802  0.5460  0.1257  0.5313
16083SOL    HW148827   8.384   8.497   9.806  0.6400 -0.1972  0.0673
16083SOL    HW248828   8.284   8.409   9.735 -0.2342  1.2946 -0.6110
16084SOL     OW48829   6.495   1.623   4.544  1.0142 -0.2596  0.8134
16084SOL    HW148830   6.489   1.528   4.533  2.7266 -0.1597 -1.7027
16084SOL    HW248831   6.427   1.658   4.487  0.6217  0.0508  1.4635
16085SOL     OW48832   1.834   8.166   4.090 -0.3010 -0.7684 -0.6084
16085SOL    HW148833   1.767   8.228   4.119 -0.0411 -0.3104 -0.9757
16085SOL    HW248834   1.793   8.080   4.101 -0.6256 -0.5456  0.0143
16086SOL     OW48835   8.295   0.718   6.573  0.2644 -0.5206 -0.4446
16086SOL    HW148836   8.296   0.658   6.498  0.4884 -0.2601 -0.6512
16086SOL    HW248837   8.364   0.685   6.630  2.5989  1.3713 -2.0153
16087SOL     OW48838   6.429   4.960   8.792 -0.2777 -0.0213 -0.5132
16087SOL    HW148839   6.431   4.868   8.765 -1.0119 -0.3064  0.3448
16087SOL    HW248840   6.510   4.997   8.757  1.0359 -1.4973  0.8340
16088SOL     OW48841   1.434   2.223   0.524  0.0910  0.0475 -0.0005
16088SOL    HW148842   1.458   2.199   0.614 -3.9395  1.2061  1.5560
16088SOL    HW248843   1.450   2.317   0.519 -1.6314  0.3882  0.2917
16089SOL     OW48844   0.775   2.151   4.221 -0.0763  0.3271  0.1871
16089SOL    HW148845   0.694   2.197   4.198  0.1521  0.8304  0.3754
16089SOL    HW248846   0.822   2.213   4.277 -0.3198 -0.6084  1.4747
16090SOL     OW48847   9.515   4.097   4.277 -0.5253 -0.3287  0.4873
16090SOL    HW148848   9.464   4.033   4.228 -2.5626  1.6230 -0.1086
16090SOL    HW248849   9.488   4.085   4.368 -1.5755  0.2083  0.2668
16091SOL     OW48850   3.728   3.935   4.213 -0.3678 -0.3314 -0.2907
16091SOL    HW148851   3.784   3.858   4.227 -0.3880 -0.1657  0.7821
16091SOL    HW248852   3.770   4.004   4.265 -1.0606  0.0418 -0.2249
16092SOL     OW48853   5.247   9.233   3.058 -0.3553  0.8656 -0.1686
16092SOL    HW148854   5.245   9.191   2.972  0.8875 -0.1709  0.2696
16092SOL    HW248855   5.285   9.319   3.042 -1.2043  1.1394 -0.8069
16093SOL     OW48856   1.821   0.544   4.569 -0.3833  0.8575 -0.1281
16093SOL    HW148857   1.758   0.559   4.498 -0.7721 -0.2865 -0.0357
16093SOL    HW248858   1.892   0.495   4.527 -0.3706  0.6291  0.1596
16094SOL     OW48859   6.433   6.330   3.644  0.7041  0.9057  0.2503
16094SOL    HW148860   6.508   6.326   3.585  0.4530  0.0249 -0.0229
16094SOL    HW248861   6.357   6.335   3.585  0.1932 -3.1948  0.2888
16095SOL     OW48862   6.377   5.522   1.130 -0.2325 -0.0016 -0.0454
16095SOL    HW148863   6.470   5.509   1.148 -0.2364  0.0814  0.0364
16095SOL    HW248864   6.350   5.590   1.192 -0.7041 -1.1022  0.9972
16096SOL     OW48865   4.776   9.891   9.644  0.0842 -0.1507  0.9755
16096SOL    HW148866   4.842   9.836   9.686 -0.0872 -0.0701  1.3543
16096SOL    HW248867   4.698   9.836   9.638 -0.0300 -0.0115  1.1802
16097SOL     OW48868   3.008   3.774   0.240 -0.5503  0.0131  0.0826
16097SOL    HW148869   3.068   3.810   0.305  0.8988 -0.2902 -1.0068
16097SOL    HW248870   2.996   3.683   0.267  2.0711 -0.8621 -1.3320
16098SOL     OW48871   6.696   1.706   0.648 -0.3042  0.1644  0.6308
16098SOL    HW148872   6.696   1.658   0.565 -1.5423  0.4036  0.4671
16098SOL    HW248873   6.696   1.638   0.715 -1.2987 -0.0660  0.4063
16099SOL     OW48874   4.258   8.092   0.367  0.5114  0.0969 -0.1916
16099SOL    HW148875   4.269   8.000   0.390 -0.8113  0.1370  0.7071
16099SOL    HW248876   4.258   8.138   0.452  1.2607  0.9565 -0.6274
16100SOL     OW48877   8.977   7.672   6.520 -0.0013 -0.1381 -0.1134
16100SOL    HW148878   8.958   7.748   6.575  2.5342 -1.2733  2.6130
16100SOL    HW248879   9.061   7.692   6.479 -0.4155 -0.5724 -1.2151
16101SOL     OW48880   3.008   2.897   5.208  0.0975  0.1383 -0.0736
16101SOL    HW148881   3.036   2.837   5.138 -0.6270 -3.5486  2.5340
16101SOL    HW248882   3.086   2.908   5.262 -0.4373 -0.7209  0.9075
16102SOL     OW48883   8.777   3.394   8.600  0.1422 -0.3785  0.1155
16102SOL    HW148884   8.830   3.468   8.628  0.0346 -0.6496  1.0875
16102SOL    HW248885   8.697   3.400   8.653 -0.5026 -0.3753 -0.8261
16103SOL     OW48886   2.875   4.534   4.894 -0.1161  0.1738  0.5643
16103SOL    HW148887   2.815   4.548   4.821  1.5704  0.9873 -0.7284
16103SOL    HW248888   2.906   4.444   4.883  0.5739  0.4800 -0.0984
16104SOL     OW48889   2.494   5.504   3.708 -0.2084 -0.2747  0.9463
16104SOL    HW148890   2.564   5.544   3.760  0.8003  1.6893 -1.7171
16104SOL    HW248891   2.414   5.538   3.747  0.3752 -0.6006  2.5261
16105SOL     OW48892   7.835   7.473   3.722  0.4042 -0.1414 -0.5607
16105SOL    HW148893   7.810   7.432   3.805 -0.9664  0.3868 -0.6757
16105SOL    HW248894   7.771   7.439   3.659  1.0132 -0.0081 -1.2576
16106SOL     OW48895   4.233   4.879   3.348 -0.0496  0.1507  0.0530
16106SOL    HW148896   4.305   4.922   3.302  2.1816 -0.6504  2.5366
16106SOL    HW248897   4.243   4.786   3.326 -0.2061  0.0177  0.5185
16107SOL     OW48898   8.981   3.634   0.219 -0.4789  0.0677  0.4699
16107SOL    HW148899   8.969   3.579   0.296  1.8079 -0.4084  0.5507
16107SOL    HW248900   9.045   3.587   0.166 -1.2238  0.9078 -1.2319
16108SOL     OW48901   9.671   2.953   7.023  0.0824  0.0809 -0.0658
16108SOL    HW148902   9.724   2.994   6.955 -0.0719 -0.2541 -0.3953
16108SOL    HW248903   9.729   2.888   7.063  0.2302  0.4031  0.2461
16109SOL     OW48904   1.027   6.595   8.250  0.2072  0.1902 -0.0723
16109SOL    HW148905   0.968   6.535   8.296  1.0612 -0.2947  0.4402
16109SOL    HW248906   1.011   6.680   8.290  1.0947 -0.2619  1.3316
16110SOL     OW48907   8.440   8.572   7.730  0.1517 -0.2016 -0.0259
16110SOL    HW148908   8.397   8.517   7.795 -1.6033  0.6103 -0.4326
16110SOL    HW248909   8.404   8.544   7.646  0.9964  0.0124 -0.4802
16111SOL     OW48910   3.941   7.324   3.395  0.4071  0.2066  0.5507
16111SOL    HW148911   3.911   7.415   3.389 -0.5971 -0.0658  1.1668
16111SOL    HW248912   4.030   7.326   3.360 -0.1568  1.1348 -0.9492
16112SOL     OW48913   9.364   0.197   3.333 -0.3651 -0.3466 -0.3232
16112SOL    HW148914   9.360   0.115   3.382 -0.5673  0.7888  1.6554
16112SOL    HW248915   9.273   0.227   3.329 -0.2643 -0.0850 -0.8442
16113SOL     OW48916   5.685   4.403   0.149 -0.3599 -0.1900 -0.2179
16113SOL    HW148917   5.769   4.412   0.194  0.7982 -0.0175 -2.3149
16113SOL    HW248918   5.707   4.371   0.062 -2.4472  0.1989 -0.9461
16114SOL     OW48919   7.599   3.219   2.743 -0.3307  0.4116 -0.5971
16114SOL    HW148920   7.686   3.211   2.704 -0.1669  1.9986 -0.6259
16114SOL    HW248921   7.554   3.138   2.718  2.1656 -2.1310  2.2423
16115SOL     OW48922   7.515   3.892   9.718 -0.3143  0.3928  0.2236
16115SOL    HW148923   7.488   3.980   9.744 -1.3992  0.2937 -0.5062
16115SOL    HW248924   7.436   3.839   9.729  0.3427 -0.5032  0.6928
16116SOL     OW48925   3.158   9.375   6.633 -0.1644 -0.5954  0.1524
16116SOL    HW148926   3.170   9.280   6.637 -1.9526 -0.9211 -0.9577
16116SOL    HW248927   3.069   9.389   6.666 -0.1026  0.6328 -0.1604
16117SOL     OW48928   2.899   2.152   6.227  0.0329  0.8046  0.0958
16117SOL    HW148929   2.992   2.130   6.221 -0.2043 -0.2523  0.0719
16117SOL    HW248930   2.893   2.212   6.301  0.6284  0.2365  0.6165
16118SOL     OW48931   6.405   0.448   2.357 -0.5365 -0.1710  0.0636
16118SOL    HW148932   6.400   0.543   2.368  0.4792 -0.1427  0.3297
16118SOL    HW248933   6.401   0.413   2.446  2.5856 -0.1833  0.2889
16119SOL     OW48934   0.322   3.275   4.479 -0.1244 -0.9474 -0.2066
16119SOL    HW148935   0.379   3.337   4.524  0.8579 -0.7928 -1.5882
16119SOL    HW248936   0.382   3.216   4.434 -1.0205 -0.4797 -2.1077
16120SOL     OW48937   2.553   1.232   3.935 -0.1377  0.0205  0.1593
16120SOL    HW148938   2.598   1.250   3.852 -1.1004  1.1501 -0.1348
16120SOL    HW248939   2.613   1.266   4.002 -0.0760  0.5557 -0.1640
16121SOL     OW48940   1.144   1.062   3.348  0.0525  0.1233 -0.6188
16121SOL    HW148941   1.099   0.990   3.392 -2.0924  1.0137 -1.2284
16121SOL    HW248942   1.166   1.124   3.417  0.1885 -0.2446 -0.3315
16122SOL     OW48943   2.160   9.175   6.047 -0.1180 -0.0347 -0.5978
16122SOL    HW148944   2.192   9.249   5.996 -0.4202 -0.0722 -0.8463
16122SOL    HW248945   2.064   9.179   6.038 -0.1303 -0.5459 -0.7436
16123SOL     OW48946   2.398   5.310   1.095 -0.0994 -0.0754 -0.0511
16123SOL    HW148947   2.416   5.388   1.147 -1.8503  0.4337 -0.1331
16123SOL    HW248948   2.398   5.342   1.004  2.1194 -0.7986 -0.3795
16124SOL     OW48949   5.060   9.878   6.432 -0.2198 -0.0440  0.1431
16124SOL    HW148950   4.994   9.902   6.496 -0.3303  0.0568 -0.0066
16124SOL    HW248951   5.088   9.790   6.458  0.6886  0.5118  1.1056
16125SOL     OW48952   7.859   9.067   8.401  0.1997 -0.3725 -0.2965
16125SOL    HW148953   7.810   9.148   8.420 -1.4320 -1.4106  0.0908
16125SOL    HW248954   7.929   9.096   8.342 -1.2921  1.0853 -1.4671
16126SOL     OW48955   1.764   1.211   9.610  0.5242 -0.5171 -0.1820
16126SOL    HW148956   1.755   1.213   9.705  1.5488  0.5189 -0.0880
16126SOL    HW248957   1.789   1.300   9.586 -0.8393 -0.4567 -1.5567
16127SOL     OW48958   7.110   2.302   7.750 -0.3457 -0.2641  0.6538
16127SOL    HW148959   7.066   2.297   7.835  1.2326 -1.7736  1.4433
16127SOL    HW248960   7.187   2.356   7.765 -1.1735  1.3037 -0.4076
16128SOL     OW48961   0.660   6.839   5.144 -0.0731  0.4643 -0.1770
16128SOL    HW148962   0.723   6.767   5.144  1.6866  1.8222 -3.5440
16128SOL    HW248963   0.592   6.811   5.082  0.7578  1.7282 -1.7129
16129SOL     OW48964   7.679   6.961   7.776  0.2597  0.0841  0.1628
16129SOL    HW148965   7.618   6.944   7.704 -0.2002 -0.5144  0.6777
16129SOL    HW248966   7.712   6.874   7.800 -0.1266  0.1857  1.1212
16130SOL     OW48967   0.483   5.292   4.654 -0.0289  1.0806  0.1425
16130SOL    HW148968   0.538   5.243   4.715 -0.9161 -0.4637 -0.2546
16130SOL    HW248969   0.545   5.332   4.593  0.7045 -0.9597 -0.5360
16131SOL     OW48970   2.788   8.114   1.906  0.0872  0.3836  0.7397
16131SOL    HW148971   2.700   8.088   1.878  0.5418 -1.6359  1.0012
16131SOL    HW248972   2.773   8.172   1.981 -1.0288  0.7162  0.2760
16132SOL     OW48973   0.587   6.861   3.835  0.2635  0.5017  0.0003
16132SOL    HW148974   0.669   6.837   3.878 -0.9041 -0.4165  1.8220
16132SOL    HW248975   0.600   6.952   3.808  1.9754  0.2761 -0.0381
16133SOL     OW48976   3.539   6.362   9.807 -0.5000 -0.0263 -0.3096
16133SOL    HW148977   3.468   6.333   9.863  0.3829 -2.0339 -0.1642
16133SOL    HW248978   3.537   6.302   9.732 -0.1036  1.0572 -1.2290
16134SOL     OW48979   8.666   5.734   0.254  0.1817  0.0141 -0.4590
16134SOL    HW148980   8.710   5.697   0.330  1.5951  0.8106 -0.8602
16134SOL    HW248981   8.613   5.662   0.219 -1.3694 -0.0739  1.8722
16135SOL     OW48982   1.399   9.342   9.809 -0.2117  0.1352 -0.0791
16135SOL    HW148983   1.396   9.428   9.767  1.1643 -0.2464 -1.0096
16135SOL    HW248984   1.339   9.288   9.758  0.3510  0.0624 -0.6803
16136SOL     OW48985   3.057   7.179   7.708 -0.3807 -0.1127  0.0753
16136SOL    HW148986   3.038   7.111   7.773  1.5578 -0.4877  0.2901
16136SOL    HW248987   3.148   7.163   7.682  0.3451  2.7585  0.5717
16137SOL     OW48988   0.400   8.996   5.438  0.4276 -0.0559  0.9144
16137SOL    HW148989   0.391   8.969   5.347 -0.3465  0.2165  0.8994
16137SOL    HW248990   0.416   8.914   5.486  0.4985 -0.2403  0.5764
16138SOL     OW48991   2.277   9.980   4.602 -0.0730  0.0375  0.1934
16138SOL    HW148992   2.327   9.979   4.520 -0.4245  0.0730 -0.0236
16138SOL    HW248993   2.338   9.949   4.668  0.5108  0.8974  0.0814
16139SOL     OW48994   3.739   8.089   5.699 -0.1761  0.2532  0.2199
16139SOL    HW148995   3.697   8.007   5.725  2.0324 -0.7353  0.9713
16139SOL    HW248996   3.749   8.082   5.604 -1.5449  0.4706  0.0400
16140SOL     OW48997   5.923   3.025   9.214  0.1113 -0.5442  0.2862
16140SOL    HW148998   5.943   3.104   9.264  2.1736  1.2819 -3.0269
16140SOL    HW248999   5.989   2.961   9.243 -0.0086 -0.2500  1.2556
16141SOL     OW49000   9.097   7.722   8.946  0.0779  0.9326  0.2114
16141SOL    HW149001   9.101   7.817   8.939  0.9281  1.4251  4.5376
16141SOL    HW249002   9.040   7.706   9.022  0.6130 -1.9922  0.1107
16142SOL     OW49003   6.433   5.969   7.619 -0.4271 -0.1619 -0.2634
16142SOL    HW149004   6.430   5.931   7.531  1.1420  0.0342 -0.4271
16142SOL    HW249005   6.341   5.978   7.644 -0.9031 -0.2107 -1.8834
16143SOL     OW49006   5.232   8.063   7.871 -0.1803  1.4106  0.2600
16143SOL    HW149007   5.320   8.093   7.847 -0.7436  2.6925 -0.3372
16143SOL    HW249008   5.230   8.066   7.966  0.8813 -0.0743  0.3632
16144SOL     OW49009   8.941   4.591   4.201  0.5120  0.1864  1.0853
16144SOL    HW149010   8.904   4.505   4.221 -0.1884  0.2227  0.0120
16144SOL    HW249011   9.019   4.597   4.256  0.7784 -1.2919  0.9030
16145SOL     OW49012   6.705   6.905   5.462  0.5224  0.6746 -0.1074
16145SOL    HW149013   6.791   6.940   5.438  0.5461  1.1401  0.6184
16145SOL    HW249014   6.644   6.976   5.443  0.4586  0.7978  0.5081
16146SOL     OW49015   1.785   4.265   3.216  0.2555  0.2305 -0.2928
16146SOL    HW149016   1.691   4.246   3.216  0.4044 -0.6246  0.4149
16146SOL    HW249017   1.819   4.213   3.289  1.2497  0.6881 -0.4145
16147SOL     OW49018   5.097   2.449   0.079 -0.7456 -0.3071  0.0154
16147SOL    HW149019   5.017   2.398   0.067 -0.5473 -1.0098  1.3857
16147SOL    HW249020   5.164   2.398   0.033 -0.8939 -0.2575 -0.2592
16148SOL     OW49021   1.503   1.424   8.321  0.0785  0.4157 -0.3910
16148SOL    HW149022   1.447   1.407   8.397 -0.2498  0.6727 -0.5753
16148SOL    HW249023   1.585   1.455   8.359  0.9090 -2.0148 -0.0020
16149SOL     OW49024   8.418   4.936   0.080 -0.0016  0.0963 -0.1943
16149SOL    HW149025   8.354   4.866   0.091  0.3886 -0.2266  0.0449
16149SOL    HW249026   8.404   4.968  -0.010  0.9224 -1.4029 -0.9084
16150SOL     OW49027   7.479   5.044   3.549  0.4025  0.0091  0.6916
16150SOL    HW149028   7.510   5.131   3.524 -2.9422  1.6797  1.7767
16150SOL    HW249029   7.538   5.017   3.620  0.5334  2.1870  1.4839
16151SOL     OW49030   4.901   8.710   8.437 -0.4746 -0.4158  0.3991
16151SOL    HW149031   4.821   8.663   8.459 -1.5568  1.9254  1.7357
16151SOL    HW249032   4.906   8.781   8.500  2.8393 -0.6028  0.5383
16152SOL     OW49033   8.860   9.853   2.850 -0.8372  0.1887 -0.3736
16152SOL    HW149034   8.769   9.825   2.839 -1.2244  0.6128  1.3719
16152SOL    HW249035   8.855   9.948   2.859 -0.1722  0.2526 -0.5970
16153SOL     OW49036   6.195   2.469   9.893  0.0110 -0.3105 -0.6372
16153SOL    HW149037   6.238   2.546   9.856  3.6868 -2.5698 -1.6924
16153SOL    HW249038   6.184   2.410   9.819 -0.9289 -1.5499  0.4394
16154SOL     OW49039   3.149   3.662   2.530 -0.1626  0.4271 -0.0774
16154SOL    HW149040   3.164   3.747   2.571  1.1851  0.0014  0.3652
16154SOL    HW249041   3.065   3.632   2.567 -1.3853  2.1530 -1.3147
16155SOL     OW49042   2.954   8.895   5.775 -0.5876 -0.2045  0.1338
16155SOL    HW149043   2.935   8.879   5.868  0.2104  0.4320  0.4179
16155SOL    HW249044   3.044   8.864   5.764 -0.0166  1.4293  0.0242
16156SOL     OW49045   5.532   3.431   1.081 -0.2520 -0.2274  0.0190
16156SOL    HW149046   5.440   3.453   1.061  0.2254 -0.3140 -2.6072
16156SOL    HW249047   5.580   3.512   1.063  0.3900 -0.7198 -0.5550
16157SOL     OW49048   7.784   5.564   9.901 -0.0036 -0.5114 -0.3758
16157SOL    HW149049   7.718   5.607   9.847 -1.6355 -0.4103  1.5547
16157SOL    HW249050   7.847   5.632   9.921  0.5465 -0.5116 -1.9525
16158SOL     OW49051   1.111   3.337   0.494 -0.4035 -0.1429  0.2046
16158SOL    HW149052   1.192   3.329   0.543 -0.3337  0.6512  0.2317
16158SOL    HW249053   1.117   3.422   0.450 -2.5591  1.4688  2.7486
16159SOL     OW49054   2.789   0.369   5.430  0.5110  0.6983  0.1799
16159SOL    HW149055   2.702   0.332   5.447  0.2983  1.5029  0.9209
16159SOL    HW249056   2.772   0.440   5.367  0.7939  0.1398 -0.5422
16160SOL     OW49057   2.147   7.249   8.559 -0.3354  0.1942 -0.3855
16160SOL    HW149058   2.177   7.228   8.470 -0.3380  0.2431 -0.3976
16160SOL    HW249059   2.227   7.271   8.607 -0.1594 -1.1366 -0.0139
16161SOL     OW49060   5.500   0.276   6.226  0.1423 -0.2036  0.1321
16161SOL    HW149061   5.570   0.328   6.185 -0.4386  1.4872  1.1969
16161SOL    HW249062   5.466   0.332   6.296  0.0948 -2.4021  1.9717
16162SOL     OW49063   9.640   5.314   5.776  0.1080 -0.1017  0.1279
16162SOL    HW149064   9.694   5.235   5.771  2.2432  1.3248 -0.7894
16162SOL    HW249065   9.656   5.349   5.864 -1.8785 -1.3139  1.0353
16163SOL     OW49066   6.335   2.932   3.825 -0.4472  0.1273 -0.0234
16163SOL    HW149067   6.311   2.913   3.734  1.0653 -2.8974  0.1028
16163SOL    HW249068   6.255   2.913   3.874 -0.2486 -1.8122 -0.3957
16164SOL     OW49069   3.152   2.827   2.674 -0.3715  0.4816  0.0128
16164SOL    HW149070   3.113   2.806   2.589  0.3320 -0.2391 -0.1439
16164SOL    HW249071   3.156   2.743   2.721  0.6683  0.5914  0.1467
16165SOL     OW49072   4.529   3.812   4.080 -0.2447 -0.0478 -0.4393
16165SOL    HW149073   4.458   3.802   4.015 -2.0819  0.5280  1.3680
16165SOL    HW249074   4.577   3.890   4.051 -0.8760  0.0648 -1.2349
16166SOL     OW49075   8.500   6.676   8.380  0.0568  0.0775 -0.0051
16166SOL    HW149076   8.595   6.669   8.390  0.0456 -1.2036 -0.6708
16166SOL    HW249077   8.487   6.751   8.322  0.5980  0.8166  0.7992
16167SOL     OW49078   8.815   3.736   3.149  0.3148 -0.3581 -0.3168
16167SOL    HW149079   8.888   3.765   3.202  0.7322 -1.5178 -0.2168
16167SOL    HW249080   8.781   3.815   3.108  0.7369  0.3839  0.7326
16168SOL     OW49081   2.842   4.816   6.313 -0.2557 -0.4595 -0.5229
16168SOL    HW149082   2.803   4.813   6.226 -1.3785 -0.7543 -0.0261
16168SOL    HW249083   2.799   4.746   6.362 -0.8597  0.7319  0.7382
16169SOL     OW49084   3.997   7.350   6.925  0.4191  0.1091  0.6049
16169SOL    HW149085   3.919   7.303   6.953  0.3821 -0.9890 -1.2042
16169SOL    HW249086   3.966   7.411   6.858  1.1234 -0.4573 -0.2528
16170SOL     OW49087   7.528   7.252   3.304 -0.4299 -0.2476 -0.0426
16170SOL    HW149088   7.502   7.311   3.234  0.0400 -0.9667 -0.8411
16170SOL    HW249089   7.567   7.176   3.260  0.0677 -0.6311  0.9945
16171SOL     OW49090   1.880   6.609   4.113 -0.1332 -0.0676 -0.0051
16171SOL    HW149091   1.798   6.659   4.109  0.0744  0.2496 -0.4275
16171SOL    HW249092   1.872   6.545   4.042  0.0430  0.0576 -0.1392
16172SOL     OW49093   6.498   3.875   8.873  0.0683  0.1057 -0.3216
16172SOL    HW149094   6.500   3.907   8.783 -0.6284  1.2479  0.0404
16172SOL    HW249095   6.578   3.825   8.883  1.5489  2.2465 -0.7928
16173SOL     OW49096   2.888   3.834   3.817  0.6562  0.3504  0.2967
16173SOL    HW149097   2.857   3.916   3.853 -0.9448  0.4900 -1.2729
16173SOL    HW249098   2.965   3.858   3.765 -1.2742  1.3661 -2.2727
16174SOL     OW49099   3.665   7.548   4.904  0.2076 -0.1745  0.0998
16174SOL    HW149100   3.716   7.505   4.835  0.1551 -1.8801  1.0561
16174SOL    HW249101   3.578   7.510   4.897 -0.6417  1.8235 -0.7365
16175SOL     OW49102   2.481   7.320   7.939  0.2890 -0.2502  0.1969
16175SOL    HW149103   2.394   7.294   7.910  0.4856  1.8171 -2.7069
16175SOL    HW249104   2.467   7.361   8.024 -0.9399 -3.1543  1.5383
16176SOL     OW49105   7.952   3.882   4.804 -0.0531  0.1269 -0.3620
16176SOL    HW149106   7.895   3.807   4.783 -0.6282  0.5784 -0.4575
16176SOL    HW249107   7.973   3.871   4.896 -0.1913 -0.1162 -0.3583
16177SOL     OW49108   5.583   5.397   9.846 -0.2989 -0.1897 -0.1008
16177SOL    HW149109   5.501   5.442   9.826  1.6207  3.3399 -0.8499
16177SOL    HW249110   5.610   5.358   9.762  0.3169  1.4487 -0.6919
16178SOL     OW49111   2.569   9.728   3.107  0.8857 -0.0076  0.2368
16178SOL    HW149112   2.480   9.704   3.079 -0.7163  3.4333  1.7478
16178SOL    HW249113   2.612   9.755   3.026 -0.3561  0.6177 -0.2552
16179SOL     OW49114   4.355   8.028   8.123  0.4457  0.5755  0.0008
16179SOL    HW149115   4.261   8.032   8.141  0.6866  1.4761  1.2816
16179SOL    HW249116   4.380   7.939   8.147  0.2961  1.0108  1.9363
16180SOL     OW49117   5.411   6.211   7.509  0.5036 -0.4530 -0.5027
16180SOL    HW149118   5.326   6.181   7.477  0.3286  0.3582 -0.8163
16180SOL    HW249119   5.466   6.213   7.432  0.7780 -0.8535 -0.3202
16181SOL     OW49120   6.557   1.783   1.570 -0.0373 -0.0933  0.4653
16181SOL    HW149121   6.642   1.822   1.554 -0.0336  0.4745  1.7435
16181SOL    HW249122   6.494   1.851   1.547 -0.0602  0.3326  1.7165
16182SOL     OW49123   0.861   4.315   9.587  0.6249  0.1951  0.4155
16182SOL    HW149124   0.844   4.409   9.596 -0.9613 -0.1958  2.3715
16182SOL    HW249125   0.846   4.296   9.495  1.8668  1.9931 -0.1944
16183SOL     OW49126   7.361   8.643   5.472  0.3229  0.4586  0.0236
16183SOL    HW149127   7.357   8.581   5.398  2.8081 -1.6089  1.4517
16183SOL    HW249128   7.292   8.614   5.531 -0.1241  0.6232 -0.4115
16184SOL     OW49129   4.534   5.639   9.664  0.2677  0.0525 -0.6108
16184SOL    HW149130   4.442   5.619   9.683  0.2550  0.5391 -0.1190
16184SOL    HW249131   4.583   5.568   9.705  0.1655  0.3976  0.1287
16185SOL     OW49132   7.927   2.176   5.968  0.0214  0.0212 -0.1415
16185SOL    HW149133   7.990   2.134   6.027  0.2195  0.0588 -0.3257
16185SOL    HW249134   7.885   2.104   5.922  3.2922  0.0235 -3.5668
16186SOL     OW49135   6.344   2.654   7.384 -0.2248  0.2256  0.0679
16186SOL    HW149136   6.419   2.697   7.425  1.8500 -2.1089 -0.9815
16186SOL    HW249137   6.279   2.646   7.454  0.1574  2.9012  0.8429
16187SOL     OW49138   5.601   2.351   2.904 -0.4346  0.2947 -0.4289
16187SOL    HW149139   5.692   2.359   2.931  0.1649  0.4436 -2.3879
16187SOL    HW249140   5.586   2.427   2.848 -1.7578  0.2314 -0.1929
16188SOL     OW49141   3.397   8.104   2.765  0.0517  0.4780 -0.1200
16188SOL    HW149142   3.405   8.166   2.693  1.3283  1.6284  0.9670
16188SOL    HW249143   3.435   8.149   2.840 -0.1329 -1.1572  1.0038
16189SOL     OW49144   7.460   6.500   2.902 -0.4878 -0.1323  0.2583
16189SOL    HW149145   7.465   6.593   2.879 -1.3936 -0.3131 -0.7587
16189SOL    HW249146   7.467   6.454   2.818 -0.4086 -0.9740  0.7163
16190SOL     OW49147   8.116   9.959   5.227  0.0738  0.0284 -0.0010
16190SOL    HW149148   8.081  10.048   5.221  1.8327  0.7752  0.1979
16190SOL    HW249149   8.098   9.920   5.141 -0.6623  0.5830 -0.1075
16191SOL     OW49150   7.442   8.432   2.494 -0.1594 -0.2182 -0.4072
16191SOL    HW149151   7.495   8.467   2.423  2.2539 -0.4155  1.1809
16191SOL    HW249152   7.415   8.509   2.544  0.6917 -0.2310  0.1046
16192SOL     OW49153   7.760   4.644   3.075 -0.0739  0.5354  0.5349
16192SOL    HW149154   7.726   4.558   3.047 -0.4400  1.0351 -0.5943
16192SOL    HW249155   7.821   4.623   3.146  1.2590 -0.8327 -0.9268
16193SOL     OW49156   5.455   7.665   6.873  0.1400  0.1553  0.2844
16193SOL    HW149157   5.389   7.690   6.937 -1.0102 -0.9054 -0.4290
16193SOL    HW249158   5.422   7.584   6.835  1.9722 -0.5291  0.0368
16194SOL     OW49159   9.639   4.609   0.101  0.0753 -0.4374 -0.0259
16194SOL    HW149160   9.630   4.648   0.014  1.6142  0.9835  0.4004
16194SOL    HW249161   9.678   4.523   0.085 -1.6892 -1.1435 -0.8500
16195SOL     OW49162   5.921   1.133   5.068 -0.3465  1.0628  0.2791
16195SOL    HW149163   5.949   1.175   5.149 -0.6594  0.3968  0.7389
16195SOL    HW249164   5.997   1.082   5.040 -0.3626  0.9960  0.3562
16196SOL     OW49165   5.010   0.124   4.242 -0.1390 -0.1842  0.3141
16196SOL    HW149166   4.932   0.156   4.288  0.0494 -0.7220  1.0054
16196SOL    HW249167   5.057   0.072   4.306 -0.1669 -1.4372 -0.6295
16197SOL     OW49168   6.424   4.653   8.589  0.2705  0.6154  0.1392
16197SOL    HW149169   6.450   4.740   8.560 -1.9305  2.7186  3.6900
16197SOL    HW249170   6.331   4.648   8.567  0.6210 -1.4184 -1.0871
16198SOL     OW49171   2.072   8.266   8.274 -0.2450  0.3963  0.6086
16198SOL    HW149172   1.981   8.261   8.244 -0.5730  2.4629  1.0458
16198SOL    HW249173   2.078   8.352   8.315  1.3791 -0.5408  2.4730
16199SOL     OW49174   0.065   0.153   4.101 -0.2225  0.1437 -0.0664
16199SOL    HW149175   0.065   0.101   4.181 -0.1182  0.0115 -0.1529
16199SOL    HW249176   0.060   0.244   4.132  1.0337  0.1646  0.1359
16200SOL     OW49177   4.855   5.253   8.130 -0.3962 -0.0047  0.0930
16200SOL    HW149178   4.845   5.199   8.208  1.4270  1.6865  1.6293
16200SOL    HW249179   4.800   5.211   8.064 -2.4403 -1.2395  2.4000
16201SOL     OW49180   8.192   6.379   5.196  0.0735  0.6745  0.1409
16201SOL    HW149181   8.234   6.461   5.169 -0.1527  0.9174  0.5216
16201SOL    HW249182   8.256   6.337   5.253 -0.0158  0.8293  0.3562
16202SOL     OW49183   2.661   4.578   8.869  0.3073 -0.6935 -0.5694
16202SOL    HW149184   2.695   4.614   8.787 -1.1962  3.7262  0.4976
16202SOL    HW249185   2.566   4.576   8.857  0.0803 -0.1899  0.9685
16203SOL     OW49186   7.258   6.098   4.516 -0.3238  0.5574  0.3940
16203SOL    HW149187   7.242   6.119   4.608 -2.8316  3.5410 -0.5477
16203SOL    HW249188   7.352   6.110   4.505 -0.1192  1.0746  2.3758
16204SOL     OW49189   7.489   6.766   8.053 -0.2487 -0.3982 -0.5089
16204SOL    HW149190   7.399   6.748   8.079 -0.4473 -0.5094 -1.2338
16204SOL    HW249191   7.508   6.698   7.987  0.1318  0.0274 -0.8399
16205SOL     OW49192   4.672   0.610   4.143 -0.2078  0.6811  0.3132
16205SOL    HW149193   4.663   0.633   4.235 -0.3064 -0.9481  0.7334
16205SOL    HW249194   4.738   0.541   4.141 -2.3775 -1.5274 -0.4179
16206SOL     OW49195   0.726   4.160   8.505  0.7557 -0.0437 -0.7953
16206SOL    HW149196   0.654   4.167   8.442  2.1630  2.7218 -2.2637
16206SOL    HW249197   0.691   4.201   8.584  0.1436 -0.3448 -0.8967
16207SOL     OW49198   8.298   4.770   6.233 -0.7496 -0.5134 -0.2450
16207SOL    HW149199   8.304   4.755   6.139 -0.0595  0.6669 -0.4141
16207SOL    HW249200   8.388   4.757   6.265 -0.3169  1.9645 -0.2520
16208SOL     OW49201   4.948   1.279   8.814 -0.0121 -0.4267 -0.0853
16208SOL    HW149202   4.873   1.337   8.804  0.5892  0.5151  0.7962
16208SOL    HW249203   4.972   1.284   8.906  1.3045 -0.5066 -0.3965
16209SOL     OW49204   7.849   2.757   7.356 -0.1618 -0.4748 -0.1536
16209SOL    HW149205   7.821   2.824   7.418  2.0684  0.7134 -0.3094
16209SOL    HW249206   7.869   2.681   7.411 -1.8507 -0.7464  0.1213
16210SOL     OW49207   4.064   5.788   0.264  0.3106 -0.1605  0.0594
16210SOL    HW149208   4.147   5.833   0.274  0.4264  0.1019 -1.7685
16210SOL    HW249209   4.001   5.844   0.310  0.6239  1.3614 -1.2852
16211SOL     OW49210   8.824   3.203   3.297 -0.1248 -0.3702 -0.5608
16211SOL    HW149211   8.776   3.130   3.335 -1.2045  0.3957 -0.4096
16211SOL    HW249212   8.806   3.277   3.355 -0.7497  0.5068 -1.8140
16212SOL     OW49213   6.449   9.950   7.765 -0.1618 -0.2045 -0.8016
16212SOL    HW149214   6.456   9.925   7.857 -0.1360  0.2196 -0.6846
16212SOL    HW249215   6.378  10.015   7.764  2.1746  2.5584 -0.4702
16213SOL     OW49216   9.027   5.698   4.214  0.5337 -0.1489 -0.1965
16213SOL    HW149217   9.074   5.646   4.279  0.4473  0.1700  0.1240
16213SOL    HW249218   9.044   5.789   4.238  1.1539 -0.0080 -1.0927
16214SOL     OW49219   2.879   3.072   1.157 -0.5261 -1.3275  0.0725
16214SOL    HW149220   2.786   3.078   1.177 -0.8390  0.6311 -1.6642
16214SOL    HW249221   2.884   3.083   1.062  1.6346  1.4473  0.3937
16215SOL     OW49222   3.502   0.475   0.558 -0.2392  0.0022  0.0902
16215SOL    HW149223   3.551   0.552   0.585 -0.7762  0.8544 -1.2805
16215SOL    HW249224   3.569   0.409   0.541  0.3395  0.6826 -0.3229
16216SOL     OW49225   4.699   0.631   6.154  0.8294  0.1989 -0.0116
16216SOL    HW149226   4.794   0.627   6.162  0.7508  0.0721  1.0475
16216SOL    HW249227   4.674   0.711   6.199  0.4518  0.3681 -0.5139
16217SOL     OW49228   6.985   7.008   5.127 -0.3878  0.0040  0.5320
16217SOL    HW149229   7.041   7.022   5.051  0.2546 -0.6243  0.8723
16217SOL    HW249230   6.931   6.932   5.104 -0.7084  0.2672  0.4182
16218SOL     OW49231   4.252   7.056   2.778 -0.0307  0.8069 -0.0052
16218SOL    HW149232   4.212   7.126   2.727 -0.7551 -0.5134 -1.3174
16218SOL    HW249233   4.199   7.050   2.857 -0.8244  0.8291 -0.5214
16219SOL     OW49234   9.011   4.190   6.970 -0.0261  0.1634 -0.2063
16219SOL    HW149235   8.950   4.117   6.976  0.2113  0.0515  1.1693
16219SOL    HW249236   8.961   4.266   7.002  1.4700 -0.5537  4.5931
16220SOL     OW49237   8.535   1.038   7.918 -0.6190  0.2572 -0.1665
16220SOL    HW149238   8.493   1.120   7.942 -2.0503 -0.8922  1.5883
16220SOL    HW249239   8.462   0.976   7.906  0.4069 -1.8306  3.0623
16221SOL     OW49240   5.202   7.198   8.182 -0.7904 -0.1237 -0.1903
16221SOL    HW149241   5.157   7.265   8.234  0.1048 -0.6553  1.3238
16221SOL    HW249242   5.173   7.115   8.219 -1.1048 -0.5749 -1.3927
16222SOL     OW49243   7.332   9.891   4.924  0.1243  0.1423 -0.6067
16222SOL    HW149244   7.316   9.797   4.916  2.0593 -0.0955 -2.2941
16222SOL    HW249245   7.244   9.930   4.931 -0.6911 -1.8368  1.5409
16223SOL     OW49246   6.690   9.599   8.694 -0.1256  0.8319 -0.7263
16223SOL    HW149247   6.711   9.506   8.694 -2.1504  0.3024 -1.5070
16223SOL    HW249248   6.747   9.637   8.760 -1.1506 -1.4329  1.6400
16224SOL     OW49249   8.012   0.140   5.020 -0.2426  0.8154  0.3311
16224SOL    HW149250   8.051   0.228   5.028 -0.0916  0.6936  1.0098
16224SOL    HW249251   7.942   0.151   4.956  0.4412  1.2034 -0.3662
16225SOL     OW49252   3.418   6.199   5.631  0.1345  0.1787  0.4160
16225SOL    HW149253   3.373   6.120   5.660 -0.3569  0.3372  0.0920
16225SOL    HW249254   3.359   6.238   5.566  0.8747  0.2247 -0.2396
16226SOL     OW49255   4.791   5.765   8.191 -0.2661 -0.2960  0.0857
16226SOL    HW149256   4.703   5.767   8.227 -0.0043  1.0903  0.7242
16226SOL    HW249257   4.781   5.793   8.100 -0.1152  4.2223  1.2149
16227SOL     OW49258   5.540   9.798   0.238  0.7495 -0.0828 -0.2504
16227SOL    HW149259   5.598   9.859   0.284 -0.0243  0.4933 -0.0080
16227SOL    HW249260   5.597   9.725   0.212  2.0688  1.4599 -1.9666
16228SOL     OW49261   7.801   2.231   2.054 -0.7931  0.1521 -0.0336
16228SOL    HW149262   7.819   2.147   2.012 -0.8552  0.7785 -1.3447
16228SOL    HW249263   7.706   2.241   2.047 -0.9317 -0.1935  1.1689
16229SOL     OW49264   5.456   0.581   0.846 -0.1445  0.4474  0.3374
16229SOL    HW149265   5.449   0.489   0.872  0.9514  0.5955  1.2853
16229SOL    HW249266   5.377   0.623   0.881  0.2155  0.1901  1.5132
16230SOL     OW49267   8.957   2.186   4.566  0.1856  0.3549 -0.2651
16230SOL    HW149268   8.963   2.275   4.601  2.4041 -0.3616  1.4104
16230SOL    HW249269   8.987   2.130   4.637 -2.0017 -1.8773 -0.9700
16231SOL     OW49270   1.562   2.321   3.747 -0.3630 -0.5254  0.4376
16231SOL    HW149271   1.634   2.350   3.804  1.3022 -2.5889 -0.4693
16231SOL    HW249272   1.531   2.401   3.704  2.0745  0.3243  0.1289
16232SOL     OW49273   1.907   1.770   8.774 -0.2573 -0.2421 -0.0163
16232SOL    HW149274   1.863   1.757   8.858 -0.6130  0.8184 -0.0142
16232SOL    HW249275   1.946   1.857   8.781 -0.6484  0.0385 -1.1021
16233SOL     OW49276   7.891   8.694   6.197 -0.1493  0.0503 -0.2751
16233SOL    HW149277   7.805   8.735   6.208 -0.4737 -0.6481 -0.1670
16233SOL    HW249278   7.872   8.610   6.154  0.4151 -0.4001  0.3443
16234SOL     OW49279   9.121   2.342   0.692  0.3709 -0.3519  0.0343
16234SOL    HW149280   9.211   2.367   0.713  0.2986  0.5647 -0.6726
16234SOL    HW249281   9.126   2.249   0.672  0.9609 -0.5633  1.0755
16235SOL     OW49282   7.240   2.100   4.063 -0.5651  0.2118  0.7600
16235SOL    HW149283   7.167   2.038   4.055 -1.4408  1.3541 -0.7719
16235SOL    HW249284   7.199   2.186   4.057  0.7838  0.9145  1.2513
16236SOL     OW49285   6.791   7.424   3.955  0.5763  0.3055 -0.3440
16236SOL    HW149286   6.841   7.359   3.906  1.2458  0.5424  0.0087
16236SOL    HW249287   6.840   7.434   4.037  0.3528  1.0801 -0.3003
16237SOL     OW49288   8.154   2.102   7.564  0.1040  0.4813 -0.5670
16237SOL    HW149289   8.240   2.114   7.605 -0.3484 -1.4473  1.0868
16237SOL    HW249290   8.092   2.117   7.635 -0.8693  0.4165 -1.3900
16238SOL     OW49291   4.409   8.046   3.579  0.5611 -0.1510 -0.2321
16238SOL    HW149292   4.439   8.106   3.648  0.1545 -2.1731  1.8439
16238SOL    HW249293   4.417   7.959   3.618  0.4733 -1.4414 -2.8583
16239SOL     OW49294   7.543   4.199   2.056  0.4830  0.9032  0.1681
16239SOL    HW149295   7.538   4.266   1.988 -0.0553  0.0326 -0.6781
16239SOL    HW249296   7.526   4.246   2.137 -0.4545  1.7067 -0.4684
16240SOL     OW49297   2.925   1.993   7.147  0.1500  0.4129 -0.3383
16240SOL    HW149298   2.891   1.930   7.210 -0.1646  0.8706 -0.0451
16240SOL    HW249299   2.885   1.968   7.064  1.4193 -0.8732 -0.6037
16241SOL     OW49300   1.356   2.310   4.481  0.0347  0.0984  0.0175
16241SOL    HW149301   1.386   2.266   4.402 -1.6086 -0.0892 -0.5451
16241SOL    HW249302   1.362   2.403   4.461  0.8755  0.0783  0.1712
16242SOL     OW49303   4.927   9.276   5.852  0.3080  0.0363  0.1361
16242SOL    HW149304   4.901   9.311   5.938  2.3177  1.0096  0.4034
16242SOL    HW249305   4.908   9.347   5.791  0.8948  0.1786  0.1136
16243SOL     OW49306   6.656   3.193   6.172 -0.0870 -0.8917  0.4395
16243SOL    HW149307   6.569   3.186   6.212 -0.2379 -1.9479 -0.0356
16243SOL    HW249308   6.707   3.122   6.212  0.4255 -0.5603  0.3847
16244SOL     OW49309   5.961   1.278   7.375  0.0675 -0.3637 -0.0774
16244SOL    HW149310   6.029   1.238   7.321 -0.7419 -0.6527 -0.9067
16244SOL    HW249311   5.887   1.292   7.315 -0.5011  0.2282  0.7298
16245SOL     OW49312   7.890   1.364   6.228  0.8006 -0.2055 -0.8290
16245SOL    HW149313   7.860   1.451   6.252  1.6045  0.2216 -1.3436
16245SOL    HW249314   7.813   1.308   6.239  0.5144  0.3897  0.3997
16246SOL     OW49315   0.486   6.967   3.299 -0.1468 -0.6378 -0.4633
16246SOL    HW149316   0.551   6.922   3.245 -2.0538 -0.3878 -3.1393
16246SOL    HW249317   0.462   6.902   3.366 -0.8942 -2.7040 -2.6108
16247SOL     OW49318   4.073   0.373   5.115 -0.6883  0.3665 -0.0373
16247SOL    HW149319   4.048   0.390   5.025  2.1406 -3.3558 -1.7882
16247SOL    HW249320   4.160   0.412   5.124 -0.6022  0.0074  0.8418
16248SOL     OW49321   5.760   6.349   1.330  0.5054  0.2606  0.6676
16248SOL    HW149322   5.833   6.323   1.274 -0.0710 -0.5088  0.2452
16248SOL    HW249323   5.796   6.351   1.418  0.3875 -3.1276  0.9172
16249SOL     OW49324   7.467   1.754   0.012 -0.2308 -0.1800  0.3096
16249SOL    HW149325   7.427   1.752   0.100  0.6682  0.2671  0.7403
16249SOL    HW249326   7.557   1.781   0.028  0.2458 -1.1529 -0.6568
16250SOL     OW49327   9.956   7.977   9.216 -0.0817 -0.3910  0.2845
16250SOL    HW149328   9.991   8.036   9.283  1.1456 -0.4334 -0.2834
16250SOL    HW249329   9.962   7.890   9.255  2.4873 -0.6559 -0.5384
16251SOL     OW49330   8.877   5.263   7.642 -0.0682 -0.2312 -0.5972
16251SOL    HW149331   8.887   5.310   7.726 -1.7945 -0.8754  0.0108
16251SOL    HW249332   8.964   5.227   7.625  0.9492  1.9229 -0.3404
16252SOL     OW49333   7.789   6.454   4.152 -0.5969 -0.2796  0.0751
16252SOL    HW149334   7.842   6.388   4.108 -0.8499 -0.2902 -0.2167
16252SOL    HW249335   7.834   6.536   4.136  0.7230 -0.5797  1.9718
16253SOL     OW49336   1.061   4.880   4.141 -0.2318  0.7594 -0.1365
16253SOL    HW149337   1.055   4.968   4.104 -0.9708  0.6189 -0.3690
16253SOL    HW249338   1.153   4.855   4.131 -0.1748  1.2150 -0.7449
16254SOL     OW49339   4.323   1.952   4.049  0.2670 -0.2873 -0.0066
16254SOL    HW149340   4.406   1.908   4.028  0.7220  0.6043 -0.1460
16254SOL    HW249341   4.307   2.009   3.973  0.2776  0.6105  0.6466
16255SOL     OW49342   0.996   7.249   5.538  0.0022  0.2219 -0.1959
16255SOL    HW149343   1.070   7.191   5.520  0.2258  1.1350 -2.4928
16255SOL    HW249344   1.033   7.318   5.593  0.5460 -0.0196 -0.2495
16256SOL     OW49345   7.357   8.341   8.009 -0.3016 -0.1046  0.7408
16256SOL    HW149346   7.416   8.296   7.949 -0.4818 -0.2311  0.6582
16256SOL    HW249347   7.407   8.349   8.090  0.1836  0.6681  0.3692
16257SOL     OW49348   0.595   6.913   8.107 -0.4782  0.4669 -1.3342
16257SOL    HW149349   0.643   6.989   8.140  3.5125 -1.7159 -1.4398
16257SOL    HW249350   0.526   6.898   8.172  1.4971  1.5710  1.2035
16258SOL     OW49351   4.989   1.377   9.982 -0.2489 -0.0581  0.0068
16258SOL    HW149352   5.056   1.445   9.984  0.7519 -0.9496 -1.3991
16258SOL    HW249353   4.922   1.411   9.923  0.6529 -0.5965 -1.3830
16259SOL     OW49354   0.987   7.659   2.100  0.2319  0.0667 -0.2586
16259SOL    HW149355   0.906   7.613   2.122  1.0736 -1.3180  0.0261
16259SOL    HW249356   0.963   7.752   2.101 -0.9921 -0.2309  1.3471
16260SOL     OW49357   2.095   3.179   0.106 -0.2193 -0.4807 -0.9743
16260SOL    HW149358   2.175   3.213   0.066  0.9495 -1.5349  0.3618
16260SOL    HW249359   2.025   3.208   0.048  1.1510  0.2029 -2.3578
16261SOL     OW49360   9.141   4.676   8.140 -0.3877  0.3129 -0.1642
16261SOL    HW149361   9.124   4.636   8.054 -1.3093 -0.4395  0.3460
16261SOL    HW249362   9.186   4.758   8.120 -0.9031  0.3204 -1.3901
16262SOL     OW49363   8.541   8.509   0.084 -1.0344  0.9945  0.0338
16262SOL    HW149364   8.461   8.457   0.089 -1.3205  1.1588 -2.0357
16262SOL    HW249365   8.584   8.494   0.168 -1.9960 -1.1488  0.2204
16263SOL     OW49366   9.868   4.276   6.140 -0.1148 -0.9250  0.2179
16263SOL    HW149367   9.791   4.332   6.131  1.5192  1.4318  0.0056
16263SOL    HW249368   9.879   4.266   6.235 -0.0012 -0.2209  0.2853
16264SOL     OW49369   7.786   7.886   0.386 -0.0940 -0.4389 -0.0123
16264SOL    HW149370   7.723   7.917   0.451  0.5304 -0.8101  0.7917
16264SOL    HW249371   7.734   7.832   0.327 -0.7042  0.0368  0.0729
16265SOL     OW49372   2.313   8.220   6.704 -0.1765 -0.3432 -0.1724
16265SOL    HW149373   2.290   8.181   6.619 -1.0090 -1.4553  0.5351
16265SOL    HW249374   2.282   8.310   6.698 -1.3372 -0.7510 -0.6259
16266SOL     OW49375   7.252   0.729   3.955 -0.4872 -0.1462 -0.4419
16266SOL    HW149376   7.258   0.774   3.871  1.8101  0.0840 -0.2195
16266SOL    HW249377   7.188   0.780   4.005  0.0122  1.2397 -1.1705
16267SOL     OW49378   5.412   6.266   4.004  0.4808  0.2585  0.3634
16267SOL    HW149379   5.355   6.191   4.018 -0.9223  0.8022 -1.8134
16267SOL    HW249380   5.492   6.245   4.050  0.5534 -3.0950 -1.0194
16268SOL     OW49381   6.882   8.272   8.282 -0.3222 -0.1368  0.5040
16268SOL    HW149382   6.860   8.222   8.360  2.2209 -1.4853  0.4709
16268SOL    HW249383   6.860   8.363   8.304 -0.6136 -0.6219  2.3804
16269SOL     OW49384   1.789   9.559   4.992 -0.0263 -0.3178  0.1515
16269SOL    HW149385   1.749   9.614   4.924 -1.2447 -0.5402  0.6452
16269SOL    HW249386   1.758   9.471   4.972  1.4470 -0.7579 -0.2947
16270SOL     OW49387   7.815   0.071   8.061  0.6653 -0.2009 -0.1948
16270SOL    HW149388   7.734   0.106   8.098  0.6649 -0.7890  0.3649
16270SOL    HW249389   7.809   0.091   7.968 -0.7354 -1.4177 -0.3880
16271SOL     OW49390   2.876   2.447   6.652 -0.2604 -0.3155  0.4565
16271SOL    HW149391   2.846   2.533   6.680  0.6538 -0.1354  0.9072
16271SOL    HW249392   2.920   2.411   6.729  0.6897 -0.5674 -0.1873
16272SOL     OW49393   0.294   6.831   3.445 -0.1375  0.0885 -0.9629
16272SOL    HW149394   0.230   6.760   3.436  0.3626 -0.5987  0.6157
16272SOL    HW249395   0.262   6.882   3.520  0.5414  0.4155 -0.8953
16273SOL     OW49396   4.341   2.157   3.847 -0.2692 -0.4319  0.4612
16273SOL    HW149397   4.430   2.160   3.884  0.3808 -1.7121 -0.8957
16273SOL    HW249398   4.327   2.245   3.811  0.7917 -0.4378 -0.0119
16274SOL     OW49399   6.928   0.034   4.065 -0.3381 -0.1388 -0.5289
16274SOL    HW149400   6.914   0.054   3.972 -0.9220 -0.7388 -0.5738
16274SOL    HW249401   6.868  -0.038   4.083  0.0457 -0.2720  0.2236
16275SOL     OW49402   0.077   9.968   3.239 -0.0778  0.2547  0.0822
16275SOL    HW149403   0.047   9.892   3.189  1.4165  0.5988 -1.4638
16275SOL    HW249404   0.029   9.964   3.321 -1.7421 -1.0520 -0.8935
16276SOL     OW49405   9.938   3.016   4.071  0.0346 -0.2994 -0.5949
16276SOL    HW149406  10.030   2.993   4.080  0.3684  0.6652 -1.4574
16276SOL    HW249407   9.915   3.055   4.155  0.5399 -0.1032 -0.5464
16277SOL     OW49408   0.937   7.943   2.105 -0.3600  0.0516 -0.4561
16277SOL    HW149409   0.979   8.017   2.149 -1.0764  0.5630 -0.6092
16277SOL    HW249410   0.957   7.956   2.012  2.4766 -1.8712 -0.2266
16278SOL     OW49411   8.991   1.363   5.408  0.3967  0.8795  0.0843
16278SOL    HW149412   8.964   1.392   5.321  0.9581 -0.6848 -0.6595
16278SOL    HW249413   8.919   1.307   5.437  0.1880  1.4417  0.6570
16279SOL     OW49414   6.232   3.208   9.848  0.4352  0.4179 -0.0536
16279SOL    HW149415   6.323   3.184   9.829  0.5415  0.3825  0.4945
16279SOL    HW249416   6.236   3.254   9.932 -0.2260 -0.8244  0.6948
16280SOL     OW49417   4.299   4.782   9.405  0.1674  0.3662  0.2255
16280SOL    HW149418   4.250   4.738   9.474 -0.0621  2.3606  1.4225
16280SOL    HW249419   4.364   4.717   9.376  0.7740 -0.3198  2.8711
16281SOL     OW49420   6.746   3.855   5.845 -0.2594  0.3467  0.2526
16281SOL    HW149421   6.837   3.875   5.825 -1.1474  3.3871 -1.4045
16281SOL    HW249422   6.721   3.787   5.783  0.1517  1.5860 -1.3350
16282SOL     OW49423   5.038   8.240   3.140 -1.1137  0.7532 -0.0197
16282SOL    HW149424   5.119   8.233   3.089 -1.0168  0.0835  0.2209
16282SOL    HW249425   5.000   8.153   3.137 -0.7637  0.5088  1.6248
16283SOL     OW49426   6.916   5.417   5.294 -0.2971  0.2052 -0.2703
16283SOL    HW149427   6.973   5.345   5.321 -2.2068 -1.6254 -0.8609
16283SOL    HW249428   6.868   5.440   5.374 -0.6379 -0.1108 -0.3807
16284SOL     OW49429   4.349   0.332   6.873  0.1111 -0.6324  0.4142
16284SOL    HW149430   4.399   0.253   6.850  0.6623  0.4104 -2.4637
16284SOL    HW249431   4.360   0.341   6.967  1.3284 -3.1119  0.5962
16285SOL     OW49432   9.933   0.772   9.821  0.1873 -0.4795  0.2527
16285SOL    HW149433   9.911   0.845   9.879  0.8714  0.8838 -1.1148
16285SOL    HW249434  10.028   0.765   9.827  0.1463 -1.1282  0.1960
16286SOL     OW49435   0.710   3.791   5.224  0.3630  0.5848  0.4996
16286SOL    HW149436   0.662   3.843   5.289 -1.7019 -0.1144 -0.3962
16286SOL    HW249437   0.665   3.707   5.223  2.2998 -0.4936  0.3426
16287SOL     OW49438   5.303   6.391   2.563 -0.3652 -0.4660 -0.0490
16287SOL    HW149439   5.359   6.427   2.631  0.1679 -0.8837 -0.2593
16287SOL    HW249440   5.299   6.460   2.496  0.0284 -0.4913 -0.1017
16288SOL     OW49441   7.055   9.180   0.775  0.0514 -0.4644 -0.0652
16288SOL    HW149442   7.145   9.151   0.793  0.5252  0.1255 -1.3359
16288SOL    HW249443   7.059   9.215   0.686 -1.1249  0.9133  0.3896
16289SOL     OW49444   0.563   7.889   5.784  0.0431 -0.4719 -0.4351
16289SOL    HW149445   0.514   7.890   5.702 -0.6006  0.9017 -0.0632
16289SOL    HW249446   0.524   7.817   5.834  0.0089 -0.9005 -1.0626
16290SOL     OW49447   0.062   8.001   2.771  0.1637  0.0893  0.1106
16290SOL    HW149448   0.068   7.988   2.677 -0.5391 -0.9774  0.2010
16290SOL    HW249449   0.126   8.069   2.790  0.8311 -0.2043 -1.0298
16291SOL     OW49450   5.317   9.211   2.240 -0.8388 -0.2610 -0.1629
16291SOL    HW149451   5.316   9.293   2.191 -0.1130 -1.3937 -2.1828
16291SOL    HW249452   5.230   9.173   2.225 -0.4239 -0.8733 -1.0840
16292SOL     OW49453   6.723   3.631   2.517  0.4398  0.0959  0.0979
16292SOL    HW149454   6.642   3.584   2.500  0.8812 -0.7050  0.1540
16292SOL    HW249455   6.779   3.610   2.443 -0.2017  2.5681 -1.2061
16293SOL     OW49456   9.810   1.472   8.579 -0.3447 -0.6017 -0.0919
16293SOL    HW149457   9.876   1.540   8.568 -0.9529 -0.0341 -0.2665
16293SOL    HW249458   9.774   1.487   8.667  0.0340 -1.1574  0.1627
16294SOL     OW49459   8.700   0.065   9.707  0.1843 -0.7745 -0.6161
16294SOL    HW149460   8.661   0.138   9.659 -0.6398 -0.9138 -0.1779
16294SOL    HW249461   8.734   0.104   9.787 -0.5633 -0.9082 -0.2202
16295SOL     OW49462   3.020   0.378   3.263  0.5349 -0.3667 -0.4462
16295SOL    HW149463   2.983   0.432   3.333 -0.7875 -1.2447 -0.4440
16295SOL    HW249464   2.959   0.388   3.190  0.6299 -1.3262 -0.6650
16296SOL     OW49465   6.278   7.810   1.076 -0.4026 -0.6165 -0.1115
16296SOL    HW149466   6.297   7.718   1.059 -0.9855 -0.5135 -1.4659
16296SOL    HW249467   6.328   7.831   1.154  1.3547 -1.5412 -0.9391
16297SOL     OW49468   4.329   1.739   9.230  0.1799 -0.6106 -0.3820
16297SOL    HW149469   4.388   1.815   9.228 -3.1731  2.2562 -1.8618
16297SOL    HW249470   4.260   1.764   9.291 -0.9823 -2.5815 -0.8105
16298SOL     OW49471   7.798   2.370   8.346  0.6648 -0.7231  0.1912
16298SOL    HW149472   7.890   2.349   8.364  0.3704 -1.7455  0.5613
16298SOL    HW249473   7.800   2.459   8.311  1.6426 -0.1126  1.6985
16299SOL     OW49474   5.764   8.065   8.275 -0.8655  0.1137 -0.2579
16299SOL    HW149475   5.836   8.013   8.240 -0.9941 -0.2614  0.0366
16299SOL    HW249476   5.807   8.130   8.331 -0.8731 -1.2975  1.4335
16300SOL     OW49477   6.889   1.187   5.835 -0.5878 -0.6047  0.4877
16300SOL    HW149478   6.906   1.097   5.863 -0.9712 -0.9405 -0.3239
16300SOL    HW249479   6.826   1.178   5.764 -0.5440  0.3030  0.3269
16301SOL     OW49480   6.171   8.220   4.114  0.4374 -0.0126 -0.0652
16301SOL    HW149481   6.205   8.208   4.025 -2.2680  2.6850 -1.6654
16301SOL    HW249482   6.076   8.212   4.103  0.0146  0.7953  2.5229
16302SOL     OW49483   6.081   7.739   6.994 -0.1674  0.1501  0.3414
16302SOL    HW149484   6.054   7.650   6.972 -0.8935  0.4046  0.1702
16302SOL    HW249485   6.032   7.794   6.933 -0.1748  0.6992  0.8320
16303SOL     OW49486   6.180   9.434   6.339  0.1779  0.1208 -0.5390
16303SOL    HW149487   6.194   9.518   6.295  0.6893 -0.0143 -0.6364
16303SOL    HW249488   6.265   9.413   6.377 -0.0071 -0.2497 -0.3299
16304SOL     OW49489   3.672   3.841   4.856  0.4415 -0.1185 -0.3551
16304SOL    HW149490   3.693   3.872   4.768  1.3195  0.0782 -0.0864
16304SOL    HW249491   3.616   3.910   4.893  0.6046  0.1109 -0.5305
16305SOL     OW49492   4.556   5.597   4.847  0.3187 -0.3747  0.2137
16305SOL    HW149493   4.590   5.507   4.841 -0.0742 -0.5208  0.1203
16305SOL    HW249494   4.577   5.636   4.762 -0.0990 -0.5922  0.0092
16306SOL     OW49495   0.008   6.565   7.325  0.1734  0.0386  0.6160
16306SOL    HW149496  -0.067   6.548   7.382  1.1068 -1.4877  1.4906
16306SOL    HW249497   0.084   6.549   7.381  1.1849  2.3065 -0.0295
16307SOL     OW49498   0.488   2.099   2.430  0.3366  0.2431  0.0780
16307SOL    HW149499   0.467   2.102   2.523  1.1145  0.0004  0.2671
16307SOL    HW249500   0.551   2.027   2.422  0.6233  0.5566 -0.5616
16308SOL     OW49501   6.799   7.839   5.301 -0.2473 -0.0417  0.3283
16308SOL    HW149502   6.779   7.878   5.216 -1.0465 -2.2369 -0.5603
16308SOL    HW249503   6.865   7.773   5.283  0.0202 -0.1221  1.5208
16309SOL     OW49504   9.487   2.514   3.536  0.1728  0.6225 -0.5411
16309SOL    HW149505   9.546   2.529   3.462  1.7574  1.6973  0.8750
16309SOL    HW249506   9.429   2.590   3.536  1.5039  1.6898  0.4808
16310SOL     OW49507   6.287   8.552   8.887  0.4365  0.6351  0.4444
16310SOL    HW149508   6.307   8.634   8.842  1.2120 -0.6769 -1.7186
16310SOL    HW249509   6.368   8.501   8.883 -1.1251 -1.9556 -2.2278
16311SOL     OW49510   5.362   8.714   8.384  0.3377 -0.0284 -0.1380
16311SOL    HW149511   5.310   8.660   8.444  0.1719 -0.4463 -0.6459
16311SOL    HW249512   5.354   8.670   8.299  1.4850 -0.0734 -0.2410
16312SOL     OW49513   3.858   1.488   8.341  0.1304  0.2249  0.3162
16312SOL    HW149514   3.816   1.429   8.279  1.9317  0.0947 -0.8360
16312SOL    HW249515   3.867   1.571   8.294  0.6309  0.4159  0.7386
16313SOL     OW49516   2.813   9.260   4.767 -0.3166  0.1277  0.0200
16313SOL    HW149517   2.882   9.212   4.721 -0.1179 -0.6565  1.1073
16313SOL    HW249518   2.856   9.340   4.798 -0.2447  0.2668 -0.4271
16314SOL     OW49519   9.640   4.739   3.959  0.2688 -0.1511 -0.1498
16314SOL    HW149520   9.633   4.788   3.877  0.6262 -0.5723 -0.4384
16314SOL    HW249521   9.675   4.654   3.932  3.7936  0.8368  0.8364
16315SOL     OW49522   1.152   5.334   4.287  0.5603  0.3973  0.2253
16315SOL    HW149523   1.172   5.312   4.196  0.8383 -0.1397  0.4199
16315SOL    HW249524   1.236   5.362   4.324  0.7702 -0.9264  0.7664
16316SOL     OW49525   1.095   8.631   2.396 -0.6377 -0.1705 -0.0266
16316SOL    HW149526   1.075   8.718   2.431 -0.9247 -0.4886  0.6128
16316SOL    HW249527   1.045   8.627   2.314 -0.3638  0.3836 -0.2272
16317SOL     OW49528   4.990   2.128   7.956  0.4600  0.0307  0.3003
16317SOL    HW149529   5.063   2.116   8.017 -0.6395 -0.7351  1.5249
16317SOL    HW249530   5.011   2.071   7.882 -0.7702 -3.6272  2.4646
16318SOL     OW49531   3.206   2.311   8.817  0.1566  0.1884 -0.4280
16318SOL    HW149532   3.242   2.222   8.814  2.7940  1.1569 -0.2976
16318SOL    HW249533   3.212   2.342   8.726 -1.3689  0.0522 -0.6008
16319SOL     OW49534   7.077   8.995   6.349  0.2411 -0.1201  0.0929
16319SOL    HW149535   7.144   8.971   6.413  1.3004  0.6805 -0.6964
16319SOL    HW249536   7.039   9.076   6.383 -1.6750 -1.5088  1.5054
16320SOL     OW49537   9.783   8.717   0.228  0.4959 -0.1184  0.0958
16320SOL    HW149538   9.844   8.742   0.158  0.5586  1.8627  0.7952
16320SOL    HW249539   9.725   8.653   0.187  2.3886 -1.3170 -0.8851
16321SOL     OW49540   9.550   5.536   5.271  0.2497  0.6536 -0.5867
16321SOL    HW149541   9.639   5.571   5.272  0.5628 -0.1205  0.1668
16321SOL    HW249542   9.539   5.497   5.358 -0.5881  0.1631 -0.9037
16322SOL     OW49543   4.064   1.379   0.806  0.4935  0.0110  0.3735
16322SOL    HW149544   4.010   1.306   0.778  0.7703 -0.3552  0.7834
16322SOL    HW249545   4.145   1.339   0.837  0.1819  0.3867  1.7426
16323SOL     OW49546   6.679   0.199   2.886 -0.1047  0.3369  0.1125
16323SOL    HW149547   6.683   0.295   2.890 -0.3062  0.3598 -0.1775
16323SOL    HW249548   6.763   0.173   2.849  0.4234  0.3250  1.2773
16324SOL     OW49549   8.111   7.762   5.103  0.2461 -0.0229  0.6574
16324SOL    HW149550   8.038   7.756   5.042  1.8341  0.5556 -1.4224
16324SOL    HW249551   8.070   7.769   5.189 -2.1341  0.2694 -0.4229
16325SOL     OW49552   4.335   2.305   9.467 -0.7313  0.4283 -0.8452
16325SOL    HW149553   4.366   2.297   9.557 -0.5204 -2.0588 -1.0636
16325SOL    HW249554   4.320   2.399   9.454  0.0154  0.9189  1.4957
16326SOL     OW49555   3.003   6.058   4.861 -0.0933  0.5722 -0.4488
16326SOL    HW149556   2.979   6.011   4.781 -0.0801 -0.9921  0.4237
16326SOL    HW249557   3.039   5.991   4.918  0.3382  1.7449  0.7068
16327SOL     OW49558   5.957   0.792   2.423 -0.1833 -0.4512 -0.8210
16327SOL    HW149559   5.891   0.724   2.406 -1.0866  0.3313 -0.5811
16327SOL    HW249560   6.005   0.760   2.499 -0.2715 -1.0441 -1.0067
16328SOL     OW49561   1.331   1.334   2.521 -0.2757  0.1342 -0.4006
16328SOL    HW149562   1.365   1.262   2.468  1.1008  0.8989 -0.6144
16328SOL    HW249563   1.396   1.403   2.511 -2.1198  1.8794 -1.1819
16329SOL     OW49564   2.518   1.736   9.075 -0.0217 -0.4574 -0.2053
16329SOL    HW149565   2.556   1.761   9.159 -0.0182 -2.0775  0.3036
16329SOL    HW249566   2.579   1.769   9.009  2.1296 -2.6361  0.5657
16330SOL     OW49567   8.122   7.553   9.863  0.3198  0.1316 -0.1294
16330SOL    HW149568   8.107   7.635   9.910  1.0320 -0.9223  2.0728
16330SOL    HW249569   8.195   7.571   9.805  0.2391  1.1602  0.0782
16331SOL     OW49570   4.617   0.782   3.328 -0.2051 -0.2537  0.1170
16331SOL    HW149571   4.695   0.830   3.356 -1.3015  1.3379  0.6248
16331SOL    HW249572   4.614   0.795   3.233 -0.6993  1.0849  0.2942
16332SOL     OW49573   1.283   7.585   1.525 -0.0194 -0.4893  0.1366
16332SOL    HW149574   1.353   7.627   1.575  0.7510  0.3619 -1.5816
16332SOL    HW249575   1.209   7.582   1.587  1.5083 -1.5155  2.0223
16333SOL     OW49576   0.748   3.020   0.160 -0.6577 -0.0933 -0.2166
16333SOL    HW149577   0.744   2.956   0.231 -0.6536 -1.3540 -1.3179
16333SOL    HW249578   0.659   3.023   0.125 -0.6611  0.5177 -0.1666
16334SOL     OW49579   8.744   6.454   0.103 -0.4132 -0.1890  0.2638
16334SOL    HW149580   8.798   6.506   0.043  0.6680  1.4748  2.5269
16334SOL    HW249581   8.801   6.384   0.134  0.0503  0.7278  1.5688
16335SOL     OW49582   4.952   6.599   3.104  0.6222  0.1031 -0.2925
16335SOL    HW149583   4.863   6.614   3.071  0.4683 -1.6120 -0.7593
16335SOL    HW249584   4.939   6.576   3.196  0.6354  0.3955 -0.2172
16336SOL     OW49585   8.814   2.791   3.445  0.2594  0.3272  0.1204
16336SOL    HW149586   8.908   2.810   3.446  0.5460 -0.8472  1.7610
16336SOL    HW249587   8.792   2.775   3.537 -1.4634  0.1731 -0.2775
16337SOL     OW49588   0.557   2.310   1.838 -0.4302 -0.1381  0.3365
16337SOL    HW149589   0.530   2.392   1.797 -0.5657 -1.2278 -1.9395
16337SOL    HW249590   0.649   2.300   1.813  0.2676  0.3508  2.4924
16338SOL     OW49591   7.067   0.872   5.729  0.6171  0.3991 -0.0648
16338SOL    HW149592   6.977   0.851   5.703  0.4229 -1.1135  1.6242
16338SOL    HW249593   7.058   0.947   5.787  0.4223  0.2400  0.1139
16339SOL     OW49594   8.764   5.366   7.343  0.0008 -0.5122 -0.5775
16339SOL    HW149595   8.722   5.443   7.382 -0.9474 -0.3920 -1.7865
16339SOL    HW249596   8.806   5.398   7.264  2.6882 -0.5844  0.6874
16340SOL     OW49597   6.449   1.468   3.647  0.4197 -0.5610 -0.2418
16340SOL    HW149598   6.410   1.511   3.723 -0.2190 -1.1475 -0.2154
16340SOL    HW249599   6.438   1.530   3.575  1.4591  0.1977  0.2271
16341SOL     OW49600   1.912   3.972   5.342  0.1706  0.3986  0.5359
16341SOL    HW149601   1.954   3.887   5.356 -0.3414 -0.0124 -0.3655
16341SOL    HW249602   1.962   4.032   5.397  0.6659 -0.4440  1.0368
16342SOL     OW49603   8.479   2.166   9.729  0.1281 -0.2936  0.5909
16342SOL    HW149604   8.465   2.259   9.712  1.4714 -0.0571  0.6933
16342SOL    HW249605   8.474   2.158   9.824 -0.3002 -0.3920  0.5637
16343SOL     OW49606   7.297   1.067   8.811 -0.1638 -0.2999 -0.1548
16343SOL    HW149607   7.333   1.039   8.726  5.0672 -1.2896  2.0169
16343SOL    HW249608   7.247   0.991   8.841 -0.8710 -0.4857 -1.6879
16344SOL     OW49609   9.485   6.595   1.082 -0.5232 -0.1344  0.1171
16344SOL    HW149610   9.535   6.525   1.039  0.0872  1.1844 -1.4405
16344SOL    HW249611   9.394   6.566   1.077 -0.1061 -1.9122  1.7138
16345SOL     OW49612   9.593   5.073   5.220  0.2297  0.2301 -0.4406
16345SOL    HW149613   9.561   4.993   5.261  0.8137 -0.4459 -1.2775
16345SOL    HW249614   9.615   5.130   5.294  0.3197 -0.5886  0.1806
16346SOL     OW49615   4.739   4.272   5.423 -0.0659 -0.1122  0.7072
16346SOL    HW149616   4.816   4.238   5.378  0.3947  1.5924  0.1421
16346SOL    HW249617   4.754   4.250   5.515  0.0074 -1.7535  0.3271
16347SOL     OW49618   1.991   8.361   5.940 -0.2547  0.7166  0.4988
16347SOL    HW149619   2.045   8.291   5.903 -2.6409 -0.7191 -0.5110
16347SOL    HW249620   2.034   8.442   5.911  1.9109 -0.3071  0.6647
16348SOL     OW49621   8.041   5.944   6.890 -0.1999  0.2485 -0.6335
16348SOL    HW149622   8.049   5.971   6.799 -1.8010  1.3231 -0.5175
16348SOL    HW249623   8.002   6.021   6.934  0.6984 -0.1744  0.9870
16349SOL     OW49624   6.218   5.806   7.977 -0.2369  0.3331  0.1235
16349SOL    HW149625   6.191   5.864   7.906 -1.3497  1.0194  1.0722
16349SOL    HW249626   6.250   5.864   8.046 -0.2866 -0.2462  0.6493
16350SOL     OW49627   7.096   4.347   4.960  0.1354  0.2200 -0.0622
16350SOL    HW149628   7.111   4.426   4.909 -0.0940  0.4828  0.2695
16350SOL    HW249629   7.058   4.285   4.897 -2.4910  1.3334  0.2595
16351SOL     OW49630   0.777   6.000   6.192 -0.0903 -0.2373 -0.2467
16351SOL    HW149631   0.822   5.918   6.210  0.2284  0.0665  0.3333
16351SOL    HW249632   0.685   5.981   6.210 -0.0161 -0.4636 -0.1004
16352SOL     OW49633   4.344   4.185   9.995 -0.3620  0.1458 -0.2875
16352SOL    HW149634   4.340   4.174   9.900  1.1258 -1.5730 -0.2031
16352SOL    HW249635   4.290   4.262  10.013  0.1744  1.1425 -2.6371
16353SOL     OW49636   0.342   2.939   0.755  0.4686  0.5533 -0.1844
16353SOL    HW149637   0.369   2.976   0.839  1.2358  1.0730 -0.6400
16353SOL    HW249638   0.399   2.863   0.743 -1.7694 -1.5034  1.2199
16354SOL     OW49639   6.391   0.001   0.192  0.0602  0.0419  0.2841
16354SOL    HW149640   6.337   0.061   0.243  0.0429 -0.4434  0.8583
16354SOL    HW249641   6.461   0.055   0.157  0.4108  0.2942  1.3228
16355SOL     OW49642   3.209   4.385   7.770 -0.2145  0.0871  0.3239
16355SOL    HW149643   3.183   4.469   7.732 -0.4366 -0.3530 -0.5297
16355SOL    HW249644   3.233   4.406   7.860 -0.5229  1.0218  0.2038
16356SOL     OW49645   5.069   3.361   9.585  0.1316  0.2161  0.9867
16356SOL    HW149646   5.060   3.430   9.520  1.3863 -1.5336 -1.1771
16356SOL    HW249647   4.980   3.346   9.618 -0.2574  2.3514  1.0540
16357SOL     OW49648   1.988   6.165   8.586  0.3907  0.6150  0.4338
16357SOL    HW149649   2.083   6.160   8.576  0.4311  2.5827 -0.7909
16357SOL    HW249650   1.954   6.122   8.508  0.1646 -1.7048  1.7219
16358SOL     OW49651   2.634   3.570   2.283  0.1443 -0.2212 -0.2275
16358SOL    HW149652   2.548   3.578   2.324  0.8645 -1.1018  1.5351
16358SOL    HW249653   2.625   3.496   2.222 -0.4875  0.0522 -0.4695
16359SOL     OW49654   9.199   3.131   2.763  0.4682  0.0733 -0.3208
16359SOL    HW149655   9.143   3.056   2.741 -0.1606  0.5671 -0.4329
16359SOL    HW249656   9.288   3.097   2.759  0.1258 -1.1566  1.4302
16360SOL     OW49657   4.284   5.264   1.698 -0.3913 -0.3397  0.4852
16360SOL    HW149658   4.375   5.294   1.691 -0.9481  1.0061 -1.8788
16360SOL    HW249659   4.292   5.170   1.715  1.4251 -0.1387  0.9885
16361SOL     OW49660   8.292   5.634   9.235 -0.3215  0.4116  0.5253
16361SOL    HW149661   8.254   5.674   9.157 -0.9181  0.5827  0.8992
16361SOL    HW249662   8.359   5.575   9.201 -0.8274  0.2038 -0.1386
16362SOL     OW49663   6.964   7.376   6.045  0.3393 -0.7156  0.4077
16362SOL    HW149664   6.918   7.344   5.967  0.6616  0.5341 -0.3372
16362SOL    HW249665   6.927   7.326   6.117 -0.7700 -1.1267 -0.4144
16363SOL     OW49666   9.710   4.639   1.573  0.2347  0.4620 -0.1775
16363SOL    HW149667   9.712   4.580   1.498 -0.6524 -0.7453  0.6980
16363SOL    HW249668   9.616   4.646   1.594  0.4757  0.7095  0.8490
16364SOL     OW49669   0.365   0.454   1.721 -0.2838 -0.2515  0.0622
16364SOL    HW149670   0.357   0.454   1.626 -2.2886  1.5215  0.1747
16364SOL    HW249671   0.318   0.375   1.749  1.6206 -1.6442 -0.4104
16365SOL     OW49672   6.619   1.089   2.690  0.0114 -0.2964 -0.2935
16365SOL    HW149673   6.580   1.121   2.771 -1.1186 -0.1723 -0.8707
16365SOL    HW249674   6.711   1.073   2.713  0.3500  2.1641  0.3514
16366SOL     OW49675   1.824   3.119   0.645  0.4604 -0.7847  0.7670
16366SOL    HW149676   1.731   3.109   0.667  0.3906 -0.6739  0.5243
16366SOL    HW249677   1.824   3.139   0.552  0.6424  0.7641  1.0756
16367SOL     OW49678   3.464   3.633   5.563 -0.0802 -0.0271  0.1615
16367SOL    HW149679   3.389   3.576   5.577  0.1508 -0.1320  1.1107
16367SOL    HW249680   3.516   3.588   5.496 -0.8003 -0.0026 -0.4284
16368SOL     OW49681   9.495   9.603   5.087  0.3441 -0.0052 -0.1081
16368SOL    HW149682   9.526   9.522   5.127  0.0724  0.2266  0.5832
16368SOL    HW249683   9.520   9.596   4.995  0.6648 -0.7004  0.0312
16369SOL     OW49684   3.512   6.127   2.723 -0.1105 -0.6241 -0.5027
16369SOL    HW149685   3.534   6.098   2.811 -1.7413 -0.0084  0.1365
16369SOL    HW249686   3.578   6.193   2.702 -0.7479  0.5583  1.0156
16370SOL     OW49687   4.802   1.367   2.772  0.0675  0.1330 -0.4415
16370SOL    HW149688   4.743   1.443   2.770 -0.3786 -0.2158 -0.8824
16370SOL    HW249689   4.886   1.401   2.741  0.2291  0.7345  0.6179
16371SOL     OW49690   6.908   5.759   5.358 -0.7625 -0.1035 -0.4094
16371SOL    HW149691   6.975   5.730   5.296 -1.0080  0.0392 -0.7442
16371SOL    HW249692   6.933   5.719   5.441  1.2829  2.0928  0.1378
16372SOL     OW49693   0.364   6.942   9.803 -0.9968 -1.0646 -0.7661
16372SOL    HW149694   0.401   6.866   9.848 -0.0164  0.5432  1.3155
16372SOL    HW249695   0.282   6.959   9.848  0.0187  0.5966  0.5650
16373SOL     OW49696   0.291   3.950   6.466 -0.0506  0.1430 -0.1049
16373SOL    HW149697   0.326   3.895   6.536 -1.4846 -0.7790 -0.0741
16373SOL    HW249698   0.229   4.008   6.511  1.1436  1.5602 -0.2006
16374SOL     OW49699   9.367   8.050   5.209  0.0867  0.1741 -0.0488
16374SOL    HW149700   9.290   8.105   5.196  0.5568  1.1986  1.3178
16374SOL    HW249701   9.441   8.110   5.204  1.0515 -1.0835 -3.4798
16375SOL     OW49702   5.497   6.338   1.730 -0.2361 -0.9957 -0.0696
16375SOL    HW149703   5.559   6.306   1.665  1.2798  1.7566 -0.1313
16375SOL    HW249704   5.552   6.378   1.798 -1.8404  1.6168 -0.1380
16376SOL     OW49705   9.805   0.805   3.388  0.0610  0.3037  0.0996
16376SOL    HW149706   9.862   0.731   3.406 -0.9918  0.0053  2.5073
16376SOL    HW249707   9.723   0.765   3.358  0.5710  0.6921 -2.0333
16377SOL     OW49708   9.186   8.018   3.748  0.0128 -0.3330  0.3101
16377SOL    HW149709   9.274   8.046   3.775 -0.5193 -0.1770  2.0096
16377SOL    HW249710   9.201   7.942   3.692  1.2651  0.3023 -0.2552
16378SOL     OW49711   7.637   6.856   3.779  1.0199 -0.7177  0.2714
16378SOL    HW149712   7.625   6.794   3.707  1.8805  0.2280 -0.7208
16378SOL    HW249713   7.732   6.867   3.784  0.8482  1.4296 -0.3808
16379SOL     OW49714   3.152   7.539   2.951 -0.1787  0.3166 -0.2537
16379SOL    HW149715   3.240   7.538   2.914  1.3389 -1.4769  3.0010
16379SOL    HW249716   3.145   7.625   2.993  0.7464 -0.1482  0.9035
16380SOL     OW49717   9.152   8.183   7.749  0.0387 -0.4414  0.2345
16380SOL    HW149718   9.125   8.135   7.671  1.2873 -1.1600  0.2229
16380SOL    HW249719   9.246   8.196   7.738  0.4544 -1.4876  2.0707
16381SOL     OW49720   6.104   7.331   8.494  0.4358 -0.0390 -0.0712
16381SOL    HW149721   6.123   7.239   8.513 -0.0279  0.3053  2.2626
16381SOL    HW249722   6.024   7.350   8.543  0.5910  1.6608 -0.4206
16382SOL     OW49723   6.031   3.558   0.918  0.3853  0.1788 -0.2590
16382SOL    HW149724   5.937   3.550   0.907  0.0603  1.0908  1.5143
16382SOL    HW249725   6.058   3.475   0.960  0.7377 -0.9247 -2.5334
16383SOL     OW49726   5.405   5.553   5.124  0.4794  0.3734  0.0770
16383SOL    HW149727   5.489   5.599   5.126  0.2023  0.8793  2.2009
16383SOL    HW249728   5.351   5.599   5.188 -0.3881 -1.8670  1.0437
16384SOL     OW49729   4.824   7.140   8.572  0.0682  0.2827 -0.1178
16384SOL    HW149730   4.861   7.058   8.541  1.2945  0.3869  0.9730
16384SOL    HW249731   4.731   7.135   8.550  0.3008 -0.9943 -0.8710
16385SOL     OW49732   5.587   9.396   5.046  0.6821 -0.1332 -0.3832
16385SOL    HW149733   5.511   9.392   5.105  1.2327 -0.4230  0.3140
16385SOL    HW249734   5.548   9.405   4.959 -0.1516  0.0036 -0.0121
16386SOL     OW49735   5.722   2.337   5.508  0.6497 -0.1423 -0.1113
16386SOL    HW149736   5.814   2.313   5.505  0.5094 -0.6280 -0.8592
16386SOL    HW249737   5.694   2.314   5.597  0.2054 -4.1813 -1.0909
16387SOL     OW49738   0.271   4.023   4.046 -0.0845 -0.1835  0.1989
16387SOL    HW149739   0.251   3.957   4.111  0.3063 -0.1721  0.3319
16387SOL    HW249740   0.362   4.008   4.023  0.3085  0.9067  0.9336
16388SOL     OW49741   3.406   1.401   4.249 -0.4341  0.0447  0.1067
16388SOL    HW149742   3.336   1.456   4.286  1.2919  2.9620 -0.6191
16388SOL    HW249743   3.466   1.386   4.321 -0.5066 -0.2241  0.1122
16389SOL     OW49744   3.897   1.353   7.021 -0.4995  0.1697  0.2975
16389SOL    HW149745   3.991   1.363   7.012 -0.3312 -1.6719 -0.4102
16389SOL    HW249746   3.860   1.430   6.978  0.6570  1.0153  0.7621
16390SOL     OW49747   2.817   3.640   4.576  0.8512  0.0180  0.3128
16390SOL    HW149748   2.832   3.664   4.667  0.3968  0.1773  0.3482
16390SOL    HW249749   2.904   3.640   4.537  1.1013 -0.4641  0.8463
16391SOL     OW49750   3.951   9.181   7.481  0.4128  0.3757  0.1583
16391SOL    HW149751   3.977   9.104   7.430 -2.0574  0.6669 -1.6799
16391SOL    HW249752   3.992   9.255   7.435  0.0433  0.4445 -0.0608
16392SOL     OW49753   1.573   2.003   6.663  0.0245 -0.2323 -0.4179
16392SOL    HW149754   1.594   2.053   6.741 -1.4059 -1.9330  1.1439
16392SOL    HW249755   1.595   2.061   6.590  1.4655  1.3763  1.2193
16393SOL     OW49756   6.999   9.722   0.854 -0.1039  0.5017  0.6366
16393SOL    HW149757   7.032   9.717   0.944  1.0713  0.9066  0.2545
16393SOL    HW249758   6.988   9.815   0.838 -2.1171  0.3609  0.9538
16394SOL     OW49759   7.648   5.029   4.395  0.3214 -0.1735  0.2733
16394SOL    HW149760   7.696   5.005   4.475 -0.3336  1.7740  1.3152
16394SOL    HW249761   7.561   4.989   4.407  1.2256 -2.7425 -1.0933
16395SOL     OW49762   1.982   1.281   7.934 -0.0815 -0.0627 -0.1715
16395SOL    HW149763   1.940   1.249   7.855  0.6076 -0.3709 -0.4193
16395SOL    HW249764   1.923   1.350   7.966  0.6435  1.5218 -2.0637
16396SOL     OW49765   5.325   3.603   6.756 -0.0501 -0.4573  0.3872
16396SOL    HW149766   5.404   3.558   6.729 -0.8292 -0.7782 -1.4713
16396SOL    HW249767   5.254   3.540   6.743 -0.6939 -0.0435  1.6309
16397SOL     OW49768   5.018   0.257   6.240 -0.0010 -0.0587  0.6941
16397SOL    HW149769   5.062   0.173   6.228  0.3433  0.0668  1.0740
16397SOL    HW249770   5.030   0.303   6.156  0.5405 -0.0492  0.7748
16398SOL     OW49771   8.504   3.903   0.733  0.8684  0.1736  0.1394
16398SOL    HW149772   8.589   3.927   0.770  1.6637  0.9855 -2.0566
16398SOL    HW249773   8.512   3.810   0.711 -0.4183 -1.0051  3.8860
16399SOL     OW49774   5.886   9.735   8.168 -0.6683  0.3909 -0.1991
16399SOL    HW149775   5.975   9.727   8.135 -0.7619  1.2560 -0.6980
16399SOL    HW249776   5.836   9.669   8.120 -1.0200  2.2861 -2.6528
16400SOL     OW49777   0.404   1.030   5.193  0.2002  0.3719 -0.5006
16400SOL    HW149778   0.360   1.102   5.239  0.6794  0.7163 -0.5673
16400SOL    HW249779   0.339   0.960   5.191 -1.1982  1.6074 -2.5584
16401SOL     OW49780   9.839   4.355   5.217  0.3001 -0.6174  0.3070
16401SOL    HW149781   9.927   4.317   5.212  1.6289  1.9254  2.0161
16401SOL    HW249782   9.820   4.359   5.311 -0.1544  1.8716  0.1801
16402SOL     OW49783   6.867   8.289   1.389  0.2348 -0.0657  0.5656
16402SOL    HW149784   6.902   8.217   1.336 -1.3022 -0.0294 -0.5823
16402SOL    HW249785   6.918   8.365   1.363 -0.2936 -0.1124 -0.6919
16403SOL     OW49786   4.164   1.501   3.775  0.2987  0.4852 -0.3742
16403SOL    HW149787   4.209   1.417   3.765 -1.9467 -1.2839  2.7880
16403SOL    HW249788   4.088   1.494   3.717 -0.4129 -0.1137  0.6142
16404SOL     OW49789   1.460   3.759   5.503  0.1877 -0.5390  0.8128
16404SOL    HW149790   1.464   3.754   5.407  0.8328 -0.4895  0.8315
16404SOL    HW249791   1.438   3.850   5.522  1.6611 -0.1428  0.7343
16405SOL     OW49792   9.213   7.911   6.698  0.5436  0.3622  0.6942
16405SOL    HW149793   9.255   7.992   6.668  3.5225 -0.2480  2.7990
16405SOL    HW249794   9.277   7.842   6.680 -1.5173 -1.4604 -0.1538
16406SOL     OW49795   8.165   1.988   6.028 -0.4720  0.4725 -0.0612
16406SOL    HW149796   8.249   1.942   6.032  0.1969  1.6891  0.5431
16406SOL    HW249797   8.177   2.064   6.085 -1.3173  1.7324 -1.5049
16407SOL     OW49798   2.212   2.843   4.984 -0.2327  0.3108 -0.1528
16407SOL    HW149799   2.169   2.759   5.002  2.3865 -0.8951  1.0358
16407SOL    HW249800   2.142   2.908   4.991 -2.3218 -1.7142 -0.9209
16408SOL     OW49801   0.179   1.177   0.919  0.1603 -0.7691 -0.3185
16408SOL    HW149802   0.212   1.236   0.852  0.6861 -1.5849 -0.8027
16408SOL    HW249803   0.110   1.126   0.875  0.5975 -1.3994 -0.2921
16409SOL     OW49804   8.844   2.265   1.595  0.0922  0.7285  0.0428
16409SOL    HW149805   8.841   2.311   1.512  1.5230  0.0914 -0.4022
16409SOL    HW249806   8.757   2.277   1.633  0.0342  2.7495 -0.5946
16410SOL     OW49807   1.486   6.361   1.141  0.0910  0.6289 -0.4287
16410SOL    HW149808   1.549   6.393   1.206 -0.5496  1.3484 -0.1513
16410SOL    HW249809   1.541   6.327   1.070  0.7969  0.4984  0.1622
16411SOL     OW49810   1.878   7.205   4.846  0.1445 -0.5432  0.2069
16411SOL    HW149811   1.937   7.149   4.795  0.9470  1.4024 -1.1232
16411SOL    HW249812   1.799   7.152   4.857  1.0550 -2.1304 -0.4998
16412SOL     OW49813   3.341   9.836   2.394 -0.7781 -0.5288  0.5200
16412SOL    HW149814   3.388   9.852   2.312 -1.2713 -1.9321 -0.0661
16412SOL    HW249815   3.283   9.912   2.404 -0.3999 -0.1374 -0.2046
16413SOL     OW49816   5.038   4.571   1.543 -0.4392 -0.1814 -0.5125
16413SOL    HW149817   5.073   4.660   1.545 -2.9891  0.8719  0.6891
16413SOL    HW249818   5.096   4.521   1.602  1.4787  0.4143 -1.7915
16414SOL     OW49819   4.794   2.341   9.155 -0.1288 -0.2152  0.4980
16414SOL    HW149820   4.882   2.369   9.179 -0.1823  1.3549 -0.9478
16414SOL    HW249821   4.767   2.284   9.227  1.6691  0.0579  1.4627
16415SOL     OW49822   9.768   7.569   1.363 -0.5024 -0.4298  0.2163
16415SOL    HW149823   9.853   7.612   1.371  0.9685 -2.4455 -2.5794
16415SOL    HW249824   9.719   7.623   1.300 -0.7075 -0.1005  0.6528
16416SOL     OW49825   0.549   8.410   0.442  0.1300 -0.0620  0.7601
16416SOL    HW149826   0.496   8.380   0.369  0.8348 -1.1331  0.6767
16416SOL    HW249827   0.595   8.486   0.408  1.0998 -1.0502 -0.1967
16417SOL     OW49828   4.278   4.884   0.932 -0.0224 -0.1384  0.0318
16417SOL    HW149829   4.277   4.979   0.946 -0.4145 -0.2025  0.4469
16417SOL    HW249830   4.191   4.863   0.898  0.3454 -0.2343 -0.8880
16418SOL     OW49831   9.719   3.681   1.955  0.3478  0.1400 -0.0795
16418SOL    HW149832   9.756   3.608   1.905  0.3540  0.8377 -1.1289
16418SOL    HW249833   9.717   3.649   2.045  1.0228 -0.8885 -0.4025
16419SOL     OW49834   6.736   4.336   3.911  0.0537 -0.3481 -0.0321
16419SOL    HW149835   6.814   4.293   3.877  0.7532 -0.0297  1.1280
16419SOL    HW249836   6.683   4.355   3.833  0.5457 -1.6862 -0.7153
16420SOL     OW49837   7.555   6.968   1.827 -0.4833  0.6007  0.5077
16420SOL    HW149838   7.622   6.981   1.894 -0.1511 -0.9542  0.5141
16420SOL    HW249839   7.484   6.922   1.873 -0.8502  0.7670  0.1137
16421SOL     OW49840   1.476   3.908   6.922  0.5941 -0.0078 -0.3305
16421SOL    HW149841   1.538   3.958   6.869  0.7299  0.8650  0.6135
16421SOL    HW249842   1.518   3.824   6.935  0.4890 -0.3064 -1.7175
16422SOL     OW49843   3.246   6.234   8.257  0.0748 -0.0124 -0.1759
16422SOL    HW149844   3.291   6.167   8.308  2.3624  2.3482  1.1079
16422SOL    HW249845   3.167   6.253   8.308 -0.9344 -2.0666 -0.8761
16423SOL     OW49846   3.216   2.541   0.288 -0.8884 -0.5400  0.5087
16423SOL    HW149847   3.259   2.487   0.223  1.8701  1.0128  0.8800
16423SOL    HW249848   3.167   2.606   0.237  0.0681 -0.2202 -0.0263
16424SOL     OW49849   1.524   0.372   6.826 -0.5933  0.6239 -0.4186
16424SOL    HW149850   1.482   0.457   6.838  0.9920  1.4045 -0.1993
16424SOL    HW249851   1.574   0.381   6.745 -0.6684 -0.2160 -0.5688
16425SOL     OW49852   1.508   4.891   0.465 -0.1778 -0.2715  0.1152
16425SOL    HW149853   1.548   4.833   0.400  0.3543 -0.1233  0.3091
16425SOL    HW249854   1.579   4.913   0.525 -0.6046 -0.1911  0.5974
16426SOL     OW49855   8.759   5.575   4.478 -0.1998 -0.2380 -0.0901
16426SOL    HW149856   8.753   5.497   4.423  0.5766 -0.3970  0.0385
16426SOL    HW249857   8.765   5.647   4.416  0.2855 -0.3866 -0.2244
16427SOL     OW49858   2.100   1.838   2.262 -0.3634 -0.6799  0.4497
16427SOL    HW149859   2.171   1.853   2.199 -1.5352 -0.4501 -0.8651
16427SOL    HW249860   2.101   1.916   2.318  1.9374 -1.7488  2.0250
16428SOL     OW49861   3.269   8.482   3.814  0.2815 -0.6605 -0.0707
16428SOL    HW149862   3.322   8.405   3.793  1.6317  0.5001 -1.1937
16428SOL    HW249863   3.219   8.500   3.735  1.3640  0.6373 -0.5121
16429SOL     OW49864   5.976   4.747   8.112  0.0819  0.4210  0.1091
16429SOL    HW149865   5.963   4.718   8.202 -0.6488 -1.2150 -0.4881
16429SOL    HW249866   5.899   4.716   8.065  2.1648 -2.2166 -1.8498
16430SOL     OW49867   2.136   9.517   4.479  0.2326 -0.3461 -0.0964
16430SOL    HW149868   2.093   9.475   4.405  0.6474 -0.8201 -0.0731
16430SOL    HW249869   2.064   9.554   4.531 -0.0184  0.6528 -1.1134
16431SOL     OW49870   0.330   8.596   5.748  0.0132  0.0293 -0.1536
16431SOL    HW149871   0.396   8.528   5.742 -1.4087 -1.5125  0.7437
16431SOL    HW249872   0.247   8.550   5.732 -1.1568  1.1983  2.1027
16432SOL     OW49873   7.813   8.755   4.804  0.1397 -0.0979  0.6859
16432SOL    HW149874   7.838   8.749   4.712  1.1155  1.4373  0.8112
16432SOL    HW249875   7.802   8.664   4.832  0.8805 -0.6328 -0.6617
16433SOL     OW49876   2.483   4.220   7.306  0.0783 -0.1694  0.6474
16433SOL    HW149877   2.531   4.177   7.377  1.4800  1.8126  0.9892
16433SOL    HW249878   2.493   4.161   7.231  0.7731 -1.0659  1.4290
16434SOL     OW49879   2.771   5.897   2.095 -0.2589  0.6230  0.0896
16434SOL    HW149880   2.796   5.905   2.187 -0.1243 -0.4406  0.1589
16434SOL    HW249881   2.713   5.971   2.079 -0.7383  0.4981  1.1966
16435SOL     OW49882   6.416   1.471   4.053  0.6466  0.2183  0.2491
16435SOL    HW149883   6.346   1.536   4.063  0.8686  0.3438  1.0965
16435SOL    HW249884   6.374   1.387   4.076  1.3127  0.5849  3.2433
16436SOL     OW49885   1.734   0.668   0.730 -0.2009  0.2381 -0.4379
16436SOL    HW149886   1.763   0.577   0.736 -0.4027  0.2002  0.0311
16436SOL    HW249887   1.642   0.662   0.704 -0.3700  0.2835  0.1266
16437SOL     OW49888   4.755   1.225   7.414  0.4941  0.2348 -0.2304
16437SOL    HW149889   4.836   1.272   7.392  0.4330 -0.6413 -2.5686
16437SOL    HW249890   4.771   1.135   7.384 -0.7920 -0.3287  0.7007
16438SOL     OW49891   3.671   2.201   4.697 -0.0479 -0.6133  0.7917
16438SOL    HW149892   3.672   2.202   4.793  0.7065  0.9796  0.7997
16438SOL    HW249893   3.675   2.294   4.672  1.2199 -1.0489 -0.7784
16439SOL     OW49894   0.672   3.037   0.708 -0.3198  0.6111 -0.2189
16439SOL    HW149895   0.674   3.069   0.798  0.6099  0.6760 -0.2490
16439SOL    HW249896   0.744   3.083   0.665 -0.3057  0.0489 -0.8117
16440SOL     OW49897   3.159   0.974   9.552 -0.2305  0.4113 -0.4154
16440SOL    HW149898   3.209   0.979   9.470  0.6059  1.4231  0.1300
16440SOL    HW249899   3.154   0.880   9.570 -2.1540 -0.0129 -2.6181
16441SOL     OW49900   7.022   8.705   8.016  0.8656  0.3322  0.2666
16441SOL    HW149901   7.029   8.643   8.089 -0.8190 -0.4498 -0.1784
16441SOL    HW249902   6.977   8.781   8.054  1.0762  0.4313  0.3203
16442SOL     OW49903   2.089   1.066   1.642  0.0599  0.0062  0.0989
16442SOL    HW149904   2.141   1.133   1.597 -0.4736  0.6290  0.3911
16442SOL    HW249905   2.002   1.074   1.604  0.3793 -1.6844 -1.0792
16443SOL     OW49906   8.819   2.502   8.525  0.5117  0.1465  0.1454
16443SOL    HW149907   8.725   2.485   8.533  0.9082 -1.9619  1.0372
16443SOL    HW249908   8.844   2.540   8.609  0.3917  1.2761 -0.3059
16444SOL     OW49909   9.748   3.303   1.943  0.0295 -0.2185  0.2066
16444SOL    HW149910   9.716   3.256   2.020  1.5494 -2.1195 -0.2485
16444SOL    HW249911   9.730   3.245   1.870 -0.3323  1.0482 -0.7431
16445SOL     OW49912   0.161   5.486   5.301 -0.4182  0.5020  0.1832
16445SOL    HW149913   0.248   5.520   5.281 -0.1989 -0.6374 -0.9197
16445SOL    HW249914   0.101   5.546   5.256 -0.2013  1.1727  0.7816
16446SOL     OW49915   8.256   4.163   3.581 -0.4033 -0.0313 -0.0543
16446SOL    HW149916   8.192   4.178   3.511 -0.2392  3.7701  0.4267
16446SOL    HW249917   8.210   4.184   3.661  0.2528 -1.5137  0.7447
16447SOL     OW49918   5.267   8.401   7.205 -0.2148  0.2200  0.0918
16447SOL    HW149919   5.185   8.412   7.252 -0.0977  4.0523 -0.3518
16447SOL    HW249920   5.255   8.447   7.123  0.6027 -3.8784 -2.6433
16448SOL     OW49921   4.789   6.831   7.863  0.5458 -0.1531 -0.3733
16448SOL    HW149922   4.850   6.804   7.932  0.3508 -0.4650 -0.3251
16448SOL    HW249923   4.767   6.751   7.817 -1.0984 -0.3143  0.6233
16449SOL     OW49924   9.327   7.597   1.160 -0.4571 -0.3236  0.8869
16449SOL    HW149925   9.315   7.585   1.255 -1.7269 -0.6287  0.7020
16449SOL    HW249926   9.257   7.545   1.120 -1.6151  1.8742 -0.1336
16450SOL     OW49927   2.550   8.868   0.336  0.1580  0.3261 -0.4661
16450SOL    HW149928   2.457   8.846   0.325 -0.1072  1.4485 -0.5539
16450SOL    HW249929   2.591   8.840   0.254 -0.2870  0.7782 -0.8415
16451SOL     OW49930   6.115   5.101   6.815  0.0683 -0.2204 -0.1426
16451SOL    HW149931   6.036   5.066   6.856 -0.5225  1.3958  0.1736
16451SOL    HW249932   6.163   5.024   6.785 -0.3033 -1.4027  2.0794
16452SOL     OW49933   8.500   4.084   5.841 -0.0675  0.1900  0.4443
16452SOL    HW149934   8.430   4.028   5.808  0.5433  0.5625 -1.6676
16452SOL    HW249935   8.579   4.052   5.797  0.4646  2.0432 -0.0326
16453SOL     OW49936   8.133   3.760   2.868 -0.7149  0.2743  0.4527
16453SOL    HW149937   8.067   3.694   2.891 -0.3989  0.5325  2.2568
16453SOL    HW249938   8.212   3.709   2.849 -1.0931  0.0297 -0.5312
16454SOL     OW49939   7.280   9.036   0.294  0.8442  0.6300 -0.3088
16454SOL    HW149940   7.305   8.976   0.222  2.7741  1.0178 -0.0299
16454SOL    HW249941   7.364   9.063   0.331 -0.0637  2.2285  0.6407
16455SOL     OW49942   1.595   9.290   2.828  0.0080  0.4319  0.4204
16455SOL    HW149943   1.610   9.241   2.747 -0.8090  0.6713  0.1141
16455SOL    HW249944   1.671   9.347   2.836 -0.8009  1.8136 -1.2261
16456SOL     OW49945   7.602   2.721   2.857  0.2444  0.8777  0.0395
16456SOL    HW149946   7.664   2.653   2.834  0.1240  0.7048  0.2243
16456SOL    HW249947   7.569   2.696   2.943  0.2143  1.1788  0.1172
16457SOL     OW49948   9.993   4.270   5.697  0.1457  0.0582  0.1954
16457SOL    HW149949  10.005   4.283   5.791 -0.8001  0.1326  0.3183
16457SOL    HW249950   9.930   4.198   5.690 -0.5808  0.7221 -0.3512
16458SOL     OW49951   1.314   9.238   6.123 -0.5241  0.0176 -0.0071
16458SOL    HW149952   1.258   9.250   6.046 -1.9900  0.9735  1.1580
16458SOL    HW249953   1.256   9.255   6.198  0.9909 -0.3625  1.3017
16459SOL     OW49954   2.003   2.676   4.358  0.0182 -0.4349  0.5196
16459SOL    HW149955   2.092   2.666   4.391  0.0727 -0.5306  0.3440
16459SOL    HW249956   1.993   2.606   4.294  0.7327  1.1744 -1.4580
16460SOL     OW49957   4.478   9.597   1.501  0.3648 -0.1342  0.0861
16460SOL    HW149958   4.483   9.502   1.502 -0.4070 -0.2626 -2.4239
16460SOL    HW249959   4.566   9.626   1.478  0.3000 -0.3071 -0.3836
16461SOL     OW49960   1.122   8.258   9.511 -0.0933 -0.0897 -0.3482
16461SOL    HW149961   1.063   8.293   9.577 -0.3703 -0.7296 -0.2503
16461SOL    HW249962   1.065   8.218   9.446  0.2327 -0.9984 -0.0899
16462SOL     OW49963   8.638   1.226   5.855 -0.1036 -0.0523 -0.3433
16462SOL    HW149964   8.570   1.254   5.916  0.2520 -0.4346  0.2438
16462SOL    HW249965   8.601   1.149   5.812  0.2622 -0.7500  0.5664
16463SOL     OW49966   5.622   6.347   0.344 -0.5020  0.2064 -0.0920
16463SOL    HW149967   5.649   6.385   0.428 -1.8554  1.0871 -0.0283
16463SOL    HW249968   5.588   6.421   0.294 -0.6013 -0.4722 -1.0598
16464SOL     OW49969   2.245   3.228   3.404  0.1383  1.0057  0.1688
16464SOL    HW149970   2.310   3.165   3.436 -1.2756 -1.0716 -0.8067
16464SOL    HW249971   2.186   3.240   3.479  0.0829  0.7035  0.1766
16465SOL     OW49972   0.496   5.868   6.220  0.1091 -0.0090  0.4560
16465SOL    HW149973   0.404   5.847   6.239 -0.3411 -1.8550 -2.9277
16465SOL    HW249974   0.546   5.800   6.264 -0.2344  0.0983  1.0318
16466SOL     OW49975   2.309   3.679   9.094 -0.1971 -0.0255  0.0176
16466SOL    HW149976   2.317   3.584   9.096 -2.9326 -0.4076 -1.8013
16466SOL    HW249977   2.314   3.702   9.001 -0.2352  1.5351  0.3777
16467SOL     OW49978   8.245   3.605   4.218 -0.3888  0.3819  0.1368
16467SOL    HW149979   8.274   3.688   4.255 -0.2951  1.0124 -1.3173
16467SOL    HW249980   8.157   3.593   4.253 -0.0301  0.5860  1.1418
16468SOL     OW49981   8.116   3.233   1.260  0.1699 -0.1531  0.0048
16468SOL    HW149982   8.041   3.189   1.219  1.8228 -1.8364 -1.3544
16468SOL    HW249983   8.119   3.319   1.218 -1.3082  0.1910  0.5150
16469SOL     OW49984   7.776   2.241   2.645  0.0972 -1.0700 -0.9747
16469SOL    HW149985   7.829   2.299   2.591  0.4573 -0.0469  0.4225
16469SOL    HW249986   7.686   2.270   2.631  0.2861 -0.0731 -0.1876
16470SOL     OW49987   1.766   5.185   9.716 -0.0052 -0.4275  0.1628
16470SOL    HW149988   1.686   5.228   9.685 -0.4328 -0.7610  0.7950
16470SOL    HW249989   1.736   5.105   9.760  0.4440  0.7263  2.7502
16471SOL     OW49990   2.119   5.850   3.352  0.0953  0.1692  0.3288
16471SOL    HW149991   2.143   5.909   3.281 -1.3703  1.3994  0.7947
16471SOL    HW249992   2.166   5.885   3.428  1.2737 -0.8527  0.1025
16472SOL     OW49993   9.274   4.415   6.628 -0.5397 -0.1638 -0.4273
16472SOL    HW149994   9.313   4.381   6.709  0.7946  2.1081 -0.0161
16472SOL    HW249995   9.192   4.368   6.619 -0.7266 -0.5126  2.2538
16473SOL     OW49996   0.851   0.920   0.318 -0.3337 -0.5732 -0.2681
16473SOL    HW149997   0.938   0.904   0.281 -0.2406 -2.4852  0.6312
16473SOL    HW249998   0.799   0.952   0.245  1.1278  0.7605 -0.7999
16474SOL     OW49999   6.747   2.299   0.073  0.8319  0.2324  0.8048
16474SOL    HW150000   6.682   2.274   0.138 -0.4988  1.6009  0.0612
16474SOL    HW250001   6.721   2.252  -0.006  0.8609  0.6358  0.5541
16475SOL     OW50002   8.667   0.371   5.850 -0.6874  0.1787  0.3701
16475SOL    HW150003   8.743   0.318   5.875 -0.5642  0.4039  0.4761
16475SOL    HW250004   8.635   0.407   5.933 -1.6372 -0.8760  0.4829
16476SOL     OW50005   1.569   0.076   5.503 -0.9161 -0.1506  0.2707
16476SOL    HW150006   1.574  -0.020   5.512 -0.3797 -0.0244  1.5470
16476SOL    HW250007   1.509   0.103   5.573 -1.1252  0.4417 -0.1345
16477SOL     OW50008   7.082   5.718   7.207  0.0399  0.0360 -0.0491
16477SOL    HW150009   7.012   5.750   7.151  1.3222 -1.1064 -2.4641
16477SOL    HW250010   7.160   5.720   7.151  1.3098 -1.6950  1.5345
16478SOL     OW50011   0.172   1.424   7.176 -0.2007 -0.3441 -0.0018
16478SOL    HW150012   0.253   1.458   7.213 -0.6323  0.1303  0.5348
16478SOL    HW250013   0.104   1.482   7.211 -0.8662 -1.2538  0.2656
16479SOL     OW50014   6.894   5.571   9.151  0.2458 -0.5232 -0.2338
16479SOL    HW150015   6.868   5.506   9.086  2.7263 -2.1762  0.2891
16479SOL    HW250016   6.990   5.568   9.150  0.4370  2.2380  0.7549
16480SOL     OW50017   3.773   8.867   8.866 -0.1240  0.5352  0.0534
16480SOL    HW150018   3.839   8.917   8.914  1.5727 -0.1401 -1.4352
16480SOL    HW250019   3.750   8.922   8.792  1.0246 -0.4025 -1.0517
16481SOL     OW50020   8.719   8.587   7.123 -0.1212  0.1543  0.1632
16481SOL    HW150021   8.772   8.566   7.046  0.6501  2.8771 -0.1658
16481SOL    HW250022   8.750   8.527   7.191  0.0775 -1.4289 -1.2596
16482SOL     OW50023   7.764   4.545   4.650 -0.0017  0.4837 -0.1037
16482SOL    HW150024   7.682   4.593   4.654 -1.1900 -1.5150  1.3479
16482SOL    HW250025   7.744   4.460   4.689  2.5782 -0.3463 -0.3958
16483SOL     OW50026   5.264   5.237   5.525  0.1354 -0.2611 -0.2223
16483SOL    HW150027   5.278   5.143   5.514 -1.0273 -0.5536  0.5578
16483SOL    HW250028   5.230   5.246   5.614 -0.1720  0.8471 -0.4339
16484SOL     OW50029   6.984   1.336   3.052  0.5645 -0.5958 -0.4278
16484SOL    HW150030   7.066   1.385   3.043 -0.6285  1.8704  0.9700
16484SOL    HW250031   6.996   1.285   3.133  0.6641 -0.0933 -0.1202
16485SOL     OW50032   9.244   0.039   1.984  0.5504 -0.0711  0.2800
16485SOL    HW150033   9.321  -0.012   1.962 -1.0675 -2.5776  0.0429
16485SOL    HW250034   9.241   0.108   1.918  1.9582 -0.6034 -0.3666
16486SOL     OW50035   9.658   0.063   7.862  0.4062  0.1840 -0.4976
16486SOL    HW150036   9.581   0.068   7.804  0.5238  0.4653 -0.6304
16486SOL    HW250037   9.714  -0.003   7.821  1.0934  1.3271 -1.4323
16487SOL     OW50038   2.868   1.890   5.979 -0.4816  0.2225 -0.2858
16487SOL    HW150039   2.956   1.869   5.947 -0.5709  1.2396 -1.2527
16487SOL    HW250040   2.878   1.894   6.074  0.5105  0.2958 -0.3800
16488SOL     OW50041   4.548   2.849   6.327  0.0891  0.2341 -0.2653
16488SOL    HW150042   4.472   2.856   6.384  1.1124  0.9131  1.0512
16488SOL    HW250043   4.515   2.871   6.240 -1.2463  0.3536  0.2547
16489SOL     OW50044   9.901   2.685   2.098 -0.5025  0.0032  0.0202
16489SOL    HW150045   9.870   2.770   2.067  0.2343 -0.2887 -1.6526
16489SOL    HW250046   9.897   2.629   2.020  0.3018 -1.1302  0.7654
16490SOL     OW50047   3.790   9.728   8.386  0.1592 -0.5825  0.1719
16490SOL    HW150048   3.844   9.684   8.320 -1.3082 -1.1888 -0.6844
16490SOL    HW250049   3.781   9.818   8.353  2.1181  0.0581  1.2716
16491SOL     OW50050   5.930   0.630   4.478  0.8835 -0.6862  0.6017
16491SOL    HW150051   5.933   0.578   4.398 -1.1268  0.6910 -0.4873
16491SOL    HW250052   6.008   0.685   4.474  0.2396  0.1763 -1.0742
16492SOL     OW50053   1.412   5.911   1.573  0.0902  0.0252  0.5751
16492SOL    HW150054   1.329   5.877   1.540 -1.9616  2.6328  2.6405
16492SOL    HW250055   1.431   5.858   1.650 -1.7367  1.6848  2.2740
16493SOL     OW50056   8.818   5.047   6.367  0.2393 -0.3239 -0.1825
16493SOL    HW150057   8.731   5.016   6.342 -0.5376 -0.1018  2.0192
16493SOL    HW250058   8.802   5.109   6.438  2.2519 -1.2252  1.1568
16494SOL     OW50059   6.291   9.724   6.579  0.0814  0.4327  0.2399
16494SOL    HW150060   6.311   9.813   6.553  0.4765 -0.0322 -1.1218
16494SOL    HW250061   6.312   9.671   6.502 -0.9447 -0.7373  0.7382
16495SOL     OW50062   0.711   7.639   0.826 -0.1921  0.7864  0.4484
16495SOL    HW150063   0.801   7.657   0.798 -0.4505  1.4769  0.0223
16495SOL    HW250064   0.678   7.578   0.760 -0.3378  1.2952  0.0355
16496SOL     OW50065   0.261   0.504   0.323  0.0904  0.2704 -0.2151
16496SOL    HW150066   0.302   0.577   0.370  1.9782  0.8039 -2.5121
16496SOL    HW250067   0.293   0.512   0.233 -2.1308 -1.5975 -1.2761
16497SOL     OW50068   9.123   5.966   2.420  0.6348  0.1195 -0.3167
16497SOL    HW150069   9.167   6.004   2.344 -0.8161 -0.3975 -1.4518
16497SOL    HW250070   9.170   5.883   2.435  3.0453  1.6858  1.4509
16498SOL     OW50071   2.095   1.761   1.606 -0.2413  0.4582 -0.1268
16498SOL    HW150072   2.063   1.688   1.553 -1.2968 -0.1389  1.2432
16498SOL    HW250073   2.102   1.724   1.695  0.8680  1.5698  0.2686
16499SOL     OW50074   4.855   0.360   4.749 -0.5153  0.2184 -1.0906
16499SOL    HW150075   4.927   0.415   4.782  0.6084 -2.2542  0.9366
16499SOL    HW250076   4.798   0.421   4.703  1.5581  2.7488 -0.5736
16500SOL     OW50077   8.785   8.386   0.937  0.2121  0.1966  0.3683
16500SOL    HW150078   8.737   8.390   0.855  2.0120  3.1490 -0.6983
16500SOL    HW250079   8.759   8.465   0.984  0.5897 -0.5092  1.8341
16501SOL     OW50080   6.771   9.160   8.898  0.4764 -0.3302  1.0584
16501SOL    HW150081   6.756   9.200   8.812  1.6619 -0.1042  0.9402
16501SOL    HW250082   6.720   9.078   8.896 -0.8275  0.4549  0.7747
16502SOL     OW50083   0.066   5.732   5.177  0.0580  0.5289  0.5211
16502SOL    HW150084   0.054   5.738   5.082  1.5152  0.4889  0.3176
16502SOL    HW250085   0.143   5.785   5.195  0.0672  0.1688  1.6382
16503SOL     OW50086   3.155   8.703   5.389  0.0168 -0.3859 -0.8379
16503SOL    HW150087   3.240   8.684   5.350 -0.7646 -0.1442 -2.7488
16503SOL    HW250088   3.094   8.705   5.316 -1.6656 -0.5797  0.4800
16504SOL     OW50089   6.913   6.480   4.806  0.2299  0.9976 -0.1283
16504SOL    HW150090   6.991   6.448   4.759  0.2016  0.5386  0.1411
16504SOL    HW250091   6.938   6.478   4.898 -0.1951  0.5828 -0.0180
16505SOL     OW50092   9.000   0.539   0.677  0.2040 -0.2064 -0.1753
16505SOL    HW150093   8.940   0.481   0.631 -0.2580  0.0045  0.1583
16505SOL    HW250094   8.982   0.626   0.641  0.0224 -0.0817  0.2149
16506SOL     OW50095   1.486   3.372   6.084 -0.4078 -0.1845 -0.2538
16506SOL    HW150096   1.481   3.289   6.038  0.3502  0.5864 -1.8094
16506SOL    HW250097   1.569   3.368   6.132  0.0745 -0.0126 -1.0433
16507SOL     OW50098   0.040   3.681   9.547  0.7455 -0.2590 -0.2070
16507SOL    HW150099   0.116   3.678   9.490  1.4029 -1.1873  0.6898
16507SOL    HW250100  -0.033   3.702   9.488  1.5373 -0.2793 -1.2224
16508SOL     OW50101   3.279   8.140   0.209  0.2731  0.0093 -0.5973
16508SOL    HW150102   3.314   8.067   0.260 -1.5168 -1.4554 -1.3339
16508SOL    HW250103   3.311   8.218   0.254  1.8526 -1.2086  0.5161
16509SOL     OW50104   5.435   7.570   4.631 -0.0309 -0.4664 -0.3153
16509SOL    HW150105   5.391   7.654   4.632 -0.9490 -0.9316 -0.3662
16509SOL    HW250106   5.401   7.524   4.709  1.3137 -0.3697  0.3580
16510SOL     OW50107   5.014   7.457   5.475 -0.2630  0.3100 -0.3428
16510SOL    HW150108   5.052   7.439   5.561 -0.8222 -3.0622 -0.6301
16510SOL    HW250109   5.079   7.511   5.431  1.5718 -0.5590  1.1448
16511SOL     OW50110   7.968   2.233   1.125 -0.5017  0.0850 -0.0209
16511SOL    HW150111   7.920   2.163   1.170 -0.7823 -1.0091 -1.9133
16511SOL    HW250112   7.954   2.311   1.179 -1.8480 -0.8838  1.0915
16512SOL     OW50113   6.154   2.785   4.407  0.4995 -0.3222  0.9103
16512SOL    HW150114   6.120   2.779   4.497  0.6498  1.8163  1.1701
16512SOL    HW250115   6.196   2.871   4.404 -0.9968  0.4293 -1.6868
16513SOL     OW50116   6.459   2.212   7.240  0.9007  0.5266 -0.2560
16513SOL    HW150117   6.470   2.277   7.172  1.5983 -0.0198 -0.6798
16513SOL    HW250118   6.384   2.160   7.212  0.1473  1.3191  0.2386
16514SOL     OW50119   0.099   4.004   0.794  0.5966 -0.2704 -0.3784
16514SOL    HW150120   0.088   3.962   0.709 -1.0944 -1.2482  0.2944
16514SOL    HW250121   0.103   3.932   0.857  0.7436  0.4686  0.4902
16515SOL     OW50122   1.227   7.050   5.517 -0.2048  0.1245 -0.0706
16515SOL    HW150123   1.193   6.973   5.471  0.9812  0.2009 -1.1225
16515SOL    HW250124   1.275   7.014   5.592  0.6728 -0.2105 -0.7726
16516SOL     OW50125   7.720   2.103   3.063 -0.2891 -0.3955 -0.0310
16516SOL    HW150126   7.760   2.022   3.032 -0.6722 -1.0030  1.0029
16516SOL    HW250127   7.792   2.164   3.070 -0.4455  0.7554 -4.7383
16517SOL     OW50128   2.084   9.575   5.495  0.1768  0.2021  0.0992
16517SOL    HW150129   2.168   9.598   5.533  0.8693 -1.4404 -0.3500
16517SOL    HW250130   2.103   9.557   5.403 -1.0841  2.0260 -0.5815
16518SOL     OW50131   7.138   4.475   4.565 -0.0751 -0.0355  0.2414
16518SOL    HW150132   7.049   4.504   4.586  0.0454 -0.6476  1.6870
16518SOL    HW250133   7.133   4.447   4.473 -0.8494  1.9172 -0.3681
16519SOL     OW50134   7.504   1.458   5.517 -0.0319  0.0957  0.3745
16519SOL    HW150135   7.484   1.523   5.585  1.5387 -0.8208  1.7889
16519SOL    HW250136   7.418   1.424   5.492 -0.9968  3.2081 -1.0331
16520SOL     OW50137   1.706   1.286   7.008  0.0512  0.1023 -0.4536
16520SOL    HW150138   1.788   1.319   7.044  1.0706 -0.1755 -2.3790
16520SOL    HW250139   1.722   1.193   6.992 -1.2295 -0.3395  0.6911
16521SOL     OW50140   1.149   5.044   1.952 -0.4019 -0.5649  0.2028
16521SOL    HW150141   1.099   4.986   1.894 -0.4043 -0.3882  0.0276
16521SOL    HW250142   1.182   4.987   2.021  1.6460 -1.2376 -1.2546
16522SOL     OW50143   1.495   2.067   8.365  0.1873 -0.2139  0.6026
16522SOL    HW150144   1.422   2.128   8.349  0.3014 -0.6342 -2.0508
16522SOL    HW250145   1.455   1.994   8.411 -0.9959 -0.1928 -0.3268
16523SOL     OW50146   4.438   8.479   3.532 -0.5969  0.6116  0.3506
16523SOL    HW150147   4.388   8.446   3.457 -0.0410 -0.5198  0.4553
16523SOL    HW250148   4.492   8.549   3.496 -0.4890  0.2191 -0.2744
16524SOL     OW50149   5.019   8.651   1.444 -0.2603 -0.1288 -0.2349
16524SOL    HW150150   4.925   8.654   1.427 -0.0820  2.1038 -1.1467
16524SOL    HW250151   5.030   8.697   1.527 -0.1312 -2.5549  1.2177
16525SOL     OW50152   5.159   0.514   6.977  0.3512  0.4541 -0.6464
16525SOL    HW150153   5.133   0.484   6.890 -0.3505  1.4624 -0.8012
16525SOL    HW250154   5.220   0.585   6.961  0.3120  0.5651 -0.3173
16526SOL     OW50155   0.120   8.824   2.570 -0.2627  0.4468 -0.3341
16526SOL    HW150156   0.193   8.814   2.508 -0.2911 -0.2520 -0.2606
16526SOL    HW250157   0.160   8.811   2.656 -0.2546  1.2529 -0.2067
16527SOL     OW50158   8.461   6.811   3.500 -0.4316  0.0850  0.1109
16527SOL    HW150159   8.498   6.887   3.455 -0.9700  0.3213  0.0601
16527SOL    HW250160   8.406   6.848   3.569  0.4915 -0.2694  1.0704
16528SOL     OW50161   8.334   4.694   2.168 -0.0501 -0.4652 -0.3089
16528SOL    HW150162   8.353   4.652   2.084 -1.7340 -0.4841 -0.7114
16528SOL    HW250163   8.420   4.714   2.205  0.7201 -0.3990 -2.0572
16529SOL     OW50164   1.146   9.624   1.609 -0.3522  0.6323 -0.0679
16529SOL    HW150165   1.175   9.584   1.527 -0.8398  0.6369 -0.2478
16529SOL    HW250166   1.223   9.670   1.642  0.0894 -0.0936 -0.0793
16530SOL     OW50167   3.202   3.916   6.986  0.8286 -0.2118 -1.0231
16530SOL    HW150168   3.176   3.880   7.071 -0.6613  1.5844 -0.6414
16530SOL    HW250169   3.255   3.993   7.007 -2.2865  2.2774 -1.4759
16531SOL     OW50170   0.132   8.553   1.849 -0.2888 -0.5198 -0.2668
16531SOL    HW150171   0.212   8.518   1.810 -0.2595 -1.8253  0.8570
16531SOL    HW250172   0.094   8.478   1.896 -0.8501  0.6893  1.3049
16532SOL     OW50173   2.678   3.212   3.606 -0.0975  0.0187  0.0916
16532SOL    HW150174   2.681   3.228   3.700  4.4666  0.8146  0.0620
16532SOL    HW250175   2.756   3.159   3.589 -1.5219 -1.2673 -3.1219
16533SOL     OW50176   0.241   2.312   3.390  1.0739 -0.2486  0.3049
16533SOL    HW150177   0.319   2.362   3.415  1.0766 -0.3262  0.4523
16533SOL    HW250178   0.188   2.309   3.469  0.8404 -0.0477  0.1546
16534SOL     OW50179   9.651   1.687   2.628  0.0105 -0.1789 -0.2358
16534SOL    HW150180   9.717   1.618   2.630  0.1947 -0.1371 -2.4488
16534SOL    HW250181   9.686   1.752   2.567 -1.7176  0.2029 -0.8788
16535SOL     OW50182   3.215   5.439   7.223 -0.2247 -0.1588 -0.1337
16535SOL    HW150183   3.226   5.431   7.128 -0.1483  0.2488 -0.1577
16535SOL    HW250184   3.260   5.361   7.258  1.0461  0.4502 -0.3451
16536SOL     OW50185   9.950   7.512   4.030  0.0157  0.0817  0.0623
16536SOL    HW150186   9.965   7.598   4.069 -0.4564  0.2571 -0.1361
16536SOL    HW250187   9.869   7.522   3.981 -0.9687 -0.9293  1.4014
16537SOL     OW50188   2.440   2.122   9.085  0.3051 -0.1152  0.1323
16537SOL    HW150189   2.362   2.108   9.139 -0.5698  1.8389 -0.5214
16537SOL    HW250190   2.406   2.126   8.995  1.0227  1.4158 -0.1004
16538SOL     OW50191   3.818   6.341   3.210 -0.2035 -0.2760 -0.3424
16538SOL    HW150192   3.758   6.296   3.269  0.7992 -1.7959 -0.4335
16538SOL    HW250193   3.893   6.363   3.265 -0.1950  0.2660 -0.5653
16539SOL     OW50194   5.458   2.595   8.157  0.2829 -0.0659 -0.1988
16539SOL    HW150195   5.528   2.529   8.149  0.6674  0.3243 -0.0972
16539SOL    HW250196   5.476   2.639   8.240  0.0213  0.1615 -0.2624
16540SOL     OW50197   4.883   6.733   2.148 -0.2267  0.1635  0.4793
16540SOL    HW150198   4.867   6.812   2.200 -1.9369 -1.5028  2.6780
16540SOL    HW250199   4.829   6.746   2.069  0.1197  1.4891  0.4273
16541SOL     OW50200   3.396   3.159   7.256 -0.3983 -0.1606  0.1841
16541SOL    HW150201   3.430   3.159   7.345  0.2693 -0.6132 -0.0617
16541SOL    HW250202   3.474   3.150   7.200 -0.8593 -0.5163 -0.4156
16542SOL     OW50203   4.434   7.926   0.672  0.2353 -0.0184 -0.6507
16542SOL    HW150204   4.466   7.943   0.760 -2.1595 -0.0759  0.3116
16542SOL    HW250205   4.471   7.997   0.619  1.2142  0.3710  0.5115
16543SOL     OW50206   5.511   3.746   1.498  0.6872 -0.2577 -0.3391
16543SOL    HW150207   5.592   3.789   1.526  0.6048 -1.0773  1.2583
16543SOL    HW250208   5.465   3.813   1.448  1.5969  0.7704  0.1568
16544SOL     OW50209   2.669   8.619   8.318 -0.1252 -0.2984  0.2621
16544SOL    HW150210   2.632   8.550   8.263 -0.3615 -0.0379  0.0862
16544SOL    HW250211   2.686   8.577   8.402  0.4906 -0.7676 -0.0927
16545SOL     OW50212   9.218   0.307   8.411  0.1273  0.6217  0.2900
16545SOL    HW150213   9.183   0.306   8.500  0.1433 -1.3415  0.3087
16545SOL    HW250214   9.149   0.268   8.358  0.6698  0.5162 -0.3496
16546SOL     OW50215   6.341   5.799   9.275  0.1276  0.5964 -0.8966
16546SOL    HW150216   6.417   5.770   9.325 -0.3028  0.5414 -0.2593
16546SOL    HW250217   6.280   5.832   9.341 -0.4954  0.4192 -1.3746
16547SOL     OW50218   8.596   7.480   4.433  0.4461  0.0436  0.5395
16547SOL    HW150219   8.666   7.534   4.396 -0.9628  1.8325  0.3197
16547SOL    HW250220   8.582   7.517   4.521 -1.3246  0.8814 -0.0422
16548SOL     OW50221   1.067   3.584   8.612  0.6510  0.7365 -0.3542
16548SOL    HW150222   1.081   3.562   8.520 -3.1216 -0.9759 -0.6784
16548SOL    HW250223   1.101   3.508   8.660  0.0578  0.3317 -0.5611
16549SOL     OW50224   0.546   6.035   1.551  0.5232  0.9300  0.5203
16549SOL    HW150225   0.526   6.074   1.466 -1.5259  1.7081  1.3114
16549SOL    HW250226   0.516   6.100   1.615  0.0595 -0.5485  1.8577
16550SOL     OW50227   6.583   8.214   0.758 -0.2236  0.0408  0.0011
16550SOL    HW150228   6.643   8.194   0.830  0.7782  1.2459 -0.4473
16550SOL    HW250229   6.617   8.164   0.684  0.5226  1.0333 -0.3593
16551SOL     OW50230   8.764   6.903   6.358  0.0558 -0.4598  0.3257
16551SOL    HW150231   8.731   6.947   6.279  1.6322 -0.1712 -0.2043
16551SOL    HW250232   8.857   6.924   6.360  0.3603 -1.7757  1.4194
16552SOL     OW50233   7.527   9.605   0.350  0.0660  0.3222 -0.0882
16552SOL    HW150234   7.486   9.682   0.387 -1.3581  0.0571 -1.0397
16552SOL    HW250235   7.573   9.637   0.272 -1.9963  0.0122 -1.5111
16553SOL     OW50236   5.341   9.535   1.838 -0.3870 -0.2608 -0.5397
16553SOL    HW150237   5.285   9.461   1.862 -0.7961  0.3524  0.4324
16553SOL    HW250238   5.400   9.546   1.913 -0.7836  0.8331 -0.3693
16554SOL     OW50239   9.736   3.275   0.464  0.7743  0.2296  0.4666
16554SOL    HW150240   9.659   3.221   0.485  0.4133  0.6572  0.2468
16554SOL    HW250241   9.706   3.333   0.394  1.0196  1.0289  1.0108
16555SOL     OW50242   0.172   5.015   5.167 -0.0805 -0.0769 -0.2089
16555SOL    HW150243   0.102   5.017   5.232  0.1208 -1.3973  0.0864
16555SOL    HW250244   0.245   4.972   5.212  1.6892  3.0488  0.1804
16556SOL     OW50245   2.082   7.871   9.820  0.1165 -0.0636 -0.2696
16556SOL    HW150246   2.074   7.957   9.779 -0.8510 -0.0289 -0.0296
16556SOL    HW250247   2.158   7.831   9.777  0.4593  0.8305 -0.5098
16557SOL     OW50248   6.098   8.679   5.063 -0.3362 -0.5856  0.6703
16557SOL    HW150249   6.158   8.753   5.068  0.7623 -1.1511 -2.2126
16557SOL    HW250250   6.046   8.696   4.985 -1.6868 -1.7672  1.2662
16558SOL     OW50251   4.257   1.659   5.742 -0.9169 -0.2671 -0.0319
16558SOL    HW150252   4.232   1.744   5.780 -0.7875 -1.2867  2.5789
16558SOL    HW250253   4.351   1.652   5.761 -0.7489 -0.6403 -0.9808
16559SOL     OW50254   0.173   1.218   5.214  0.0812 -0.6665 -0.3454
16559SOL    HW150255   0.122   1.280   5.162  0.2139 -1.2117 -1.1484
16559SOL    HW250256   0.161   1.247   5.305  1.9755  1.9230 -0.8084
16560SOL     OW50257   6.347   1.890   7.554 -0.2557  0.0663  0.3248
16560SOL    HW150258   6.327   1.983   7.541 -1.2130 -0.1432  0.2394
16560SOL    HW250259   6.339   1.851   7.467  0.0604 -0.1144  0.3741
16561SOL     OW50260   6.072   5.789   4.976  0.1681 -0.3176 -0.4112
16561SOL    HW150261   5.993   5.834   5.007  0.9224  0.4520  0.4490
16561SOL    HW250262   6.069   5.798   4.881 -1.6362 -1.7804 -0.5410
16562SOL     OW50263   4.143   8.021   5.378  0.2699 -0.4803  0.6346
16562SOL    HW150264   4.227   8.068   5.379  0.6223 -1.0116  3.3278
16562SOL    HW250265   4.164   7.935   5.415 -1.1340 -1.3129 -0.4374
16563SOL     OW50266   1.800   2.115   9.666  0.1633  0.4101 -0.6733
16563SOL    HW150267   1.850   2.135   9.587  0.8675  2.3128  0.2041
16563SOL    HW250268   1.847   2.160   9.736 -2.1960  1.4011  0.3626
16564SOL     OW50269   3.844   8.052   3.139  0.6534  0.1441  0.0476
16564SOL    HW150270   3.868   8.101   3.060 -0.5869  0.3410 -0.2343
16564SOL    HW250271   3.840   7.961   3.111 -0.9835  0.3354 -0.4626
16565SOL     OW50272   1.182   8.022   7.466  0.0362 -0.0392  0.3091
16565SOL    HW150273   1.140   8.042   7.382 -2.0804  0.3592  1.3959
16565SOL    HW250274   1.246   8.093   7.478  0.9970 -0.5854 -1.3360
16566SOL     OW50275   2.677   7.212   6.717 -0.7480 -0.7607  0.0303
16566SOL    HW150276   2.763   7.175   6.698  0.0480  0.6818  0.6390
16566SOL    HW250277   2.676   7.296   6.670 -1.1451 -0.0175  1.3011
16567SOL     OW50278   8.504   0.978   9.440 -0.2081  0.1893 -0.3512
16567SOL    HW150279   8.519   0.906   9.379  0.0032 -0.1883  0.1404
16567SOL    HW250280   8.553   0.954   9.518 -1.0196  0.3479  0.2179
16568SOL     OW50281   5.668   6.349   6.008  1.1754  0.4329 -0.2437
16568SOL    HW150282   5.674   6.425   5.950  0.2931  0.6520 -0.0619
16568SOL    HW250283   5.741   6.293   5.981  1.6437  1.1869 -0.5971
16569SOL     OW50284   2.248   2.334   9.866 -0.1016  0.4747 -0.1783
16569SOL    HW150285   2.213   2.423   9.877 -1.6395 -0.1251 -0.0531
16569SOL    HW250286   2.213   2.305   9.783  0.5783  0.0431 -0.3219
16570SOL     OW50287   8.900   7.934   6.198  0.3074 -0.8742  0.1303
16570SOL    HW150288   8.982   7.966   6.162 -0.5445 -0.0369 -1.1162
16570SOL    HW250289   8.909   7.838   6.197  1.0571 -0.8037 -0.4453
16571SOL     OW50290   8.618   1.528   6.344 -0.8739  0.5100 -0.1975
16571SOL    HW150291   8.609   1.467   6.417  0.4541 -0.4494 -0.8055
16571SOL    HW250292   8.593   1.477   6.267  0.4782  0.6358 -0.7478
16572SOL     OW50293   3.578   9.299   2.035 -0.1495 -0.7156  1.0951
16572SOL    HW150294   3.600   9.208   2.051 -1.2472 -0.9614  1.3159
16572SOL    HW250295   3.652   9.334   1.985 -0.5182 -2.2090 -0.5946
16573SOL     OW50296   1.052   9.504   3.712 -0.0416  0.1527 -0.0576
16573SOL    HW150297   1.116   9.457   3.658  0.8000  2.1276 -0.8751
16573SOL    HW250298   1.104   9.544   3.782 -0.5199  1.0121 -0.1826
16574SOL     OW50299   4.626   6.099   6.432 -0.1925  0.1993  0.2073
16574SOL    HW150300   4.695   6.127   6.491 -0.4363  0.0977  0.5434
16574SOL    HW250301   4.608   6.175   6.377  0.7020 -0.0013 -0.3873
16575SOL     OW50302   9.920   1.298   9.772 -0.1303 -0.1929  0.3910
16575SOL    HW150303   9.963   1.380   9.747 -1.8947  0.6771  0.0810
16575SOL    HW250304   9.913   1.303   9.867 -2.4108  1.2183  0.2178
16576SOL     OW50305   3.534   2.774   6.941  0.8141  0.1327  0.0204
16576SOL    HW150306   3.455   2.828   6.930  0.9864  0.3456 -0.1663
16576SOL    HW250307   3.504   2.685   6.924  0.0057 -0.1474  2.5249
16577SOL     OW50308   9.172   9.794   4.557  0.1380  0.1831  0.4502
16577SOL    HW150309   9.156   9.869   4.614  0.7842 -0.1958  1.1524
16577SOL    HW250310   9.127   9.815   4.476  1.6535  2.0952  0.0211
16578SOL     OW50311   2.410   5.163   8.379 -0.5995 -0.3235 -0.0429
16578SOL    HW150312   2.461   5.241   8.358  0.7888 -0.4625  2.4401
16578SOL    HW250313   2.321   5.196   8.395 -0.3630  0.5226 -0.3934
16579SOL     OW50314   6.307   8.282   7.170 -0.4201  0.3743  0.0766
16579SOL    HW150315   6.224   8.249   7.202  0.7251 -0.8331  1.9954
16579SOL    HW250316   6.308   8.259   7.077 -1.8784 -0.2514  0.1933
16580SOL     OW50317   5.622   3.398   2.873 -0.6552 -0.5107 -0.4485
16580SOL    HW150318   5.708   3.437   2.862 -1.0221  0.4062 -0.1448
16580SOL    HW250319   5.626   3.317   2.823 -0.1208  0.2705 -1.7102
16581SOL     OW50320   1.411   4.170   2.664  0.1536  0.1225 -0.3954
16581SOL    HW150321   1.344   4.175   2.596  0.0845  0.8720 -0.2753
16581SOL    HW250322   1.480   4.229   2.634  0.8828 -0.8307 -0.6417
16582SOL     OW50323   4.917   8.615   0.170  0.3918 -0.3236 -0.0413
16582SOL    HW150324   4.871   8.654   0.096 -1.4806 -0.1185  1.1622
16582SOL    HW250325   4.968   8.687   0.208 -1.4693  0.5131  0.9733
16583SOL     OW50326   5.847   0.210   6.889 -0.1380 -0.1726 -0.2784
16583SOL    HW150327   5.867   0.128   6.845 -0.8858 -0.0523 -0.8673
16583SOL    HW250328   5.862   0.277   6.822  2.6553  0.4252  0.8076
16584SOL     OW50329   8.239   7.501   2.918 -0.0192  0.4331 -0.1851
16584SOL    HW150330   8.263   7.470   3.005 -1.6005 -1.0575 -0.2232
16584SOL    HW250331   8.321   7.533   2.880  1.0831 -0.7454  1.1127
16585SOL     OW50332   2.472   0.089   4.426 -0.2658  0.3252  0.8153
16585SOL    HW150333   2.545   0.097   4.487  1.3933 -0.6172 -0.9403
16585SOL    HW250334   2.481   0.164   4.367  0.9440 -1.1500 -1.0002
16586SOL     OW50335   9.368   8.682   6.782  0.4768 -0.2998  0.5394
16586SOL    HW150336   9.464   8.678   6.780  0.4403 -1.1337 -0.2838
16586SOL    HW250337   9.341   8.591   6.769 -0.4521  0.3149 -2.5172
16587SOL     OW50338   4.862   4.066   1.531  0.1477 -1.0541 -0.4492
16587SOL    HW150339   4.920   4.097   1.461  0.8758 -0.0382  0.5421
16587SOL    HW250340   4.911   3.995   1.573 -0.0476 -1.3054 -0.6547
16588SOL     OW50341   2.833   4.633   7.651 -0.2490 -0.3163 -0.0115
16588SOL    HW150342   2.809   4.712   7.699 -1.3108 -0.6912  0.1005
16588SOL    HW250343   2.810   4.651   7.560 -1.4227 -0.8247  0.1576
16589SOL     OW50344   0.437   3.654   4.815 -0.0533  0.5001 -0.1977
16589SOL    HW150345   0.391   3.642   4.732  0.5291 -1.3466 -0.2929
16589SOL    HW250346   0.514   3.706   4.792 -0.5390  1.0792 -0.5613
16590SOL     OW50347   9.560   0.784   8.650 -0.3700 -0.0259  0.2926
16590SOL    HW150348   9.478   0.795   8.602 -1.0819  3.8736  2.0028
16590SOL    HW250349   9.619   0.850   8.611  2.0454 -2.6429 -0.8309
16591SOL     OW50350   1.797   0.263   1.659  0.1370 -0.0100 -0.4725
16591SOL    HW150351   1.828   0.354   1.666 -0.6186  0.3487 -1.5672
16591SOL    HW250352   1.737   0.264   1.585 -0.3674 -1.2823 -0.1045
16592SOL     OW50353   3.971   7.905   2.735  0.4863 -0.5376  0.0003
16592SOL    HW150354   3.930   7.905   2.648 -0.1477 -1.3472  0.2898
16592SOL    HW250355   3.913   7.958   2.790  1.1299  0.3646 -0.1634
16593SOL     OW50356   4.667   7.213   2.140 -0.0789  0.1920 -0.2920
16593SOL    HW150357   4.646   7.261   2.221 -0.2420 -0.3563 -0.0034
16593SOL    HW250358   4.652   7.276   2.070  0.8078  0.9222  0.1513
16594SOL     OW50359   0.997   1.015   9.118  0.2091  0.2737 -0.1312
16594SOL    HW150360   0.944   1.095   9.121  1.0922  0.8937 -0.5074
16594SOL    HW250361   1.020   1.006   9.025  1.4215  0.4750  0.1364
16595SOL     OW50362   4.668   9.339   4.436 -0.0267  0.3684  0.5335
16595SOL    HW150363   4.753   9.384   4.441 -0.1080  0.7905 -1.2508
16595SOL    HW250364   4.609   9.404   4.399 -0.0652 -1.2390 -2.4573
16596SOL     OW50365   5.247   2.708   3.388  0.1990 -0.4746  0.4054
16596SOL    HW150366   5.291   2.654   3.454  1.0125 -1.2383 -0.7281
16596SOL    HW250367   5.310   2.715   3.316 -1.4645 -1.5270 -1.2501
16597SOL     OW50368   1.352   1.615   6.563 -0.0859  0.1960  0.1001
16597SOL    HW150369   1.263   1.596   6.595 -0.8257  1.6947 -0.9662
16597SOL    HW250370   1.386   1.680   6.624 -0.7401  1.5675 -0.9574
16598SOL     OW50371   7.128   4.181   0.357  0.3712  0.0600  0.0985
16598SOL    HW150372   7.040   4.215   0.344  0.4234  1.4608  2.7214
16598SOL    HW250373   7.158   4.156   0.270 -2.3315  0.2280 -0.9470
16599SOL     OW50374   8.430   1.710   8.727 -0.2038  0.0700  0.1930
16599SOL    HW150375   8.500   1.659   8.766  2.6117  2.9026 -0.7082
16599SOL    HW250376   8.381   1.747   8.801  0.8036 -0.0199  0.9075
16600SOL     OW50377   6.710   5.334   5.542 -0.6396  0.5224 -0.3740
16600SOL    HW150378   6.625   5.356   5.578 -1.9027  1.5393 -3.5794
16600SOL    HW250379   6.695   5.254   5.492  0.6707 -0.0855  0.1564
16601SOL     OW50380   3.126   4.363   6.227 -0.5868  1.1675  0.9455
16601SOL    HW150381   3.049   4.405   6.264 -0.7113  0.6226  1.3270
16601SOL    HW250382   3.187   4.357   6.301 -1.2253 -0.8596  1.3674
16602SOL     OW50383   2.071   4.713   0.576 -0.0222  0.3820 -0.1509
16602SOL    HW150384   2.054   4.721   0.482 -0.6618 -1.2605 -0.2164
16602SOL    HW250385   2.045   4.623   0.597  1.6491  0.1934  1.2835
16603SOL     OW50386   6.944   0.787   0.804 -0.4632  0.3041  0.8748
16603SOL    HW150387   7.032   0.753   0.784 -0.7523 -1.2640  2.1044
16603SOL    HW250388   6.948   0.879   0.777  1.5782  0.3017  0.9715
16604SOL     OW50389   9.783   4.538   4.627 -0.5884  0.1067 -0.0507
16604SOL    HW150390   9.842   4.497   4.691 -1.5668  0.2020  0.9463
16604SOL    HW250391   9.786   4.481   4.551 -0.8870 -1.0992  0.8148
16605SOL     OW50392   8.239   4.177   9.012 -0.0510 -0.4825  0.4376
16605SOL    HW150393   8.310   4.139   8.960 -0.3592  0.4898 -0.7513
16605SOL    HW250394   8.198   4.241   8.954 -0.0401  1.1170  2.0757
16606SOL     OW50395   0.532   6.448   1.446  0.4255 -0.3574 -0.3087
16606SOL    HW150396   0.543   6.543   1.454  1.2757 -0.4868  0.1381
16606SOL    HW250397   0.441   6.432   1.472  0.4394  0.2708  0.1417
16607SOL     OW50398   8.063   7.777   0.391 -0.0721  0.0500  0.2042
16607SOL    HW150399   8.027   7.689   0.397  0.8541 -0.2598  2.0482
16607SOL    HW250400   7.991   7.835   0.418 -0.6857 -0.1191 -1.0258
16608SOL     OW50401   4.213   3.198   6.210  0.1707 -0.3821 -0.4413
16608SOL    HW150402   4.147   3.194   6.279 -0.4226 -0.8638 -1.0329
16608SOL    HW250403   4.284   3.141   6.242  0.5030  0.4550  0.3787
16609SOL     OW50404   6.189   6.351   8.455 -0.0884 -0.6315  0.2137
16609SOL    HW150405   6.112   6.400   8.484  0.4045  0.5552 -0.3866
16609SOL    HW250406   6.260   6.384   8.510 -0.1438 -2.3625  1.3772
16610SOL     OW50407   3.791   9.780   0.852  0.1915  0.0305  0.8572
16610SOL    HW150408   3.814   9.784   0.944  3.6313  2.3066  0.0691
16610SOL    HW250409   3.859   9.724   0.812  0.4550  1.3398 -0.6444
16611SOL     OW50410   2.630   8.869   5.660  0.3305  0.1563  0.0000
16611SOL    HW150411   2.601   8.930   5.592 -1.5885 -0.6324  0.0638
16611SOL    HW250412   2.720   8.897   5.679  1.4895 -0.3913 -3.7550
16612SOL     OW50413   0.689   3.662   3.328 -0.1500 -0.1659  0.6736
16612SOL    HW150414   0.658   3.574   3.348  0.7777 -0.9827 -1.1971
16612SOL    HW250415   0.692   3.665   3.232  2.1103  1.0586  0.7132
16613SOL     OW50416   7.131   3.306   0.089 -0.2567  0.0685  0.1827
16613SOL    HW150417   7.155   3.288  -0.001 -2.0403  0.0429 -0.3206
16613SOL    HW250418   7.073   3.234   0.114 -2.1148  1.5325  0.3539
16614SOL     OW50419   1.102   5.278   8.590 -0.2279  0.2133  0.0030
16614SOL    HW150420   1.184   5.229   8.583 -0.4465 -0.1905  0.2180
16614SOL    HW250421   1.113   5.334   8.667 -0.2558 -0.0395  0.1909
16615SOL     OW50422   8.378   1.547   4.041  0.2676 -0.0751 -0.1392
16615SOL    HW150423   8.322   1.599   4.098  1.6883 -0.5584  1.8239
16615SOL    HW250424   8.467   1.571   4.066  0.9541 -1.4644 -1.0703
16616SOL     OW50425   4.128   8.643   2.901 -0.3355 -0.5550  0.3859
16616SOL    HW150426   4.163   8.595   2.976  0.6212 -0.3152  0.1041
16616SOL    HW250427   4.172   8.604   2.825 -0.6859 -0.2416  0.0157
16617SOL     OW50428   1.317   2.101   5.125 -0.2044 -0.3134  0.1486
16617SOL    HW150429   1.363   2.178   5.090 -2.2264  0.0468 -2.0030
16617SOL    HW250430   1.351   2.028   5.074  0.6071 -0.6503  1.1387
16618SOL     OW50431   0.780   8.660   5.302 -0.5515  0.3450 -0.2156
16618SOL    HW150432   0.805   8.579   5.256 -1.9965 -0.0200 -0.4105
16618SOL    HW250433   0.827   8.729   5.256  0.3830 -0.3361 -0.3130
16619SOL     OW50434   7.152   7.250   5.039  0.4286 -0.1056  0.0907
16619SOL    HW150435   7.181   7.159   5.031 -0.3501 -0.6065  2.1291
16619SOL    HW250436   7.211   7.287   5.105 -0.4641  0.2887  0.6781
16620SOL     OW50437   1.973   1.361   1.156  0.0829 -0.2479 -0.1851
16620SOL    HW150438   2.046   1.320   1.110 -0.7707 -2.5049  0.3240
16620SOL    HW250439   1.903   1.367   1.091 -0.0366 -0.2919 -0.0621
16621SOL     OW50440   2.477   1.332   6.093  0.3517  0.1323 -0.6828
16621SOL    HW150441   2.510   1.416   6.126 -0.0428 -0.5987  1.7801
16621SOL    HW250442   2.400   1.315   6.146 -2.1895  0.1980 -4.0559
16622SOL     OW50443   3.656   8.952   3.449  0.1900  0.0111  0.2706
16622SOL    HW150444   3.745   8.986   3.449  0.3970 -0.5020 -0.3414
16622SOL    HW250445   3.608   9.010   3.390 -0.0109  0.5857  0.9824
16623SOL     OW50446   7.118   9.044   8.153  0.4901 -0.3858  0.2029
16623SOL    HW150447   7.156   9.046   8.066  0.1376  0.2769  0.0578
16623SOL    HW250448   7.027   9.019   8.139  0.1769  0.6507  0.2694
16624SOL     OW50449   8.699   4.835   2.140 -0.2613  0.3880  0.7200
16624SOL    HW150450   8.732   4.913   2.185 -0.3732  1.1972 -0.5354
16624SOL    HW250451   8.678   4.774   2.210 -0.0311  1.4343  1.7376
16625SOL     OW50452   4.026   0.215   0.392 -0.1169 -0.2292 -0.0016
16625SOL    HW150453   3.999   0.296   0.348  1.8798  0.8874  0.6927
16625SOL    HW250454   4.079   0.245   0.465  0.4038 -2.1874  0.4645
16626SOL     OW50455   2.789   9.021   1.323 -0.0995  0.0091  0.0962
16626SOL    HW150456   2.856   8.993   1.385  0.5527 -0.7299 -0.9206
16626SOL    HW250457   2.759   9.106   1.357  0.6419 -0.1165  1.0997
16627SOL     OW50458   1.298   0.170   6.083  0.9234 -0.2759 -0.2949
16627SOL    HW150459   1.380   0.216   6.065  0.3839  0.4249 -1.0463
16627SOL    HW250460   1.253   0.169   5.999 -0.3540  0.4023  0.3606
16628SOL     OW50461   6.934   4.577   4.854  0.5015 -0.2784  0.0454
16628SOL    HW150462   6.892   4.651   4.896 -0.0044 -0.2000 -0.5811
16628SOL    HW250463   6.869   4.543   4.793  1.1532 -0.4813 -0.5619
16629SOL     OW50464   8.977   6.634   5.253  0.3828  0.1150  0.3644
16629SOL    HW150465   8.986   6.626   5.348  3.3177  1.5716  0.3422
16629SOL    HW250466   8.883   6.624   5.236 -0.5648  1.8742  3.6630
16630SOL     OW50467   4.189   5.254   0.891 -0.2924 -0.2078 -0.5366
16630SOL    HW150468   4.174   5.338   0.848  1.0256  1.2804  1.7051
16630SOL    HW250469   4.283   5.238   0.882 -0.2634 -0.6458  0.3601
16631SOL     OW50470   7.657   3.814   6.257  0.3213  0.0834 -0.5502
16631SOL    HW150471   7.603   3.888   6.285  2.0441  0.8865  0.7916
16631SOL    HW250472   7.701   3.785   6.337  1.5247 -0.8619 -1.5235
16632SOL     OW50473   0.221   8.387   0.538  0.2411  0.1800  0.3470
16632SOL    HW150474   0.183   8.421   0.620  1.0657 -1.5353  1.4963
16632SOL    HW250475   0.251   8.465   0.492 -1.8022  1.3384  0.8490
16633SOL     OW50476   4.821   2.250   5.066  0.3242 -0.6376 -0.6877
16633SOL    HW150477   4.766   2.186   5.110 -3.0207  0.8426 -2.3614
16633SOL    HW250478   4.807   2.235   4.973  1.2253  1.0776 -1.1469
16634SOL     OW50479   5.156   0.563   4.622 -0.3812  0.1156 -0.3092
16634SOL    HW150480   5.127   0.602   4.540 -0.1778  0.9422 -0.0027
16634SOL    HW250481   5.214   0.629   4.661  0.2172 -0.6246  0.0862
16635SOL     OW50482   2.842   0.026   9.555 -0.2908 -0.0120  0.6150
16635SOL    HW150483   2.847  -0.047   9.493 -0.0157 -0.9541  1.7018
16635SOL    HW250484   2.750   0.050   9.558 -0.1917  0.6480 -0.8053
16636SOL     OW50485   3.902   7.798   1.898  0.0164 -0.3699 -0.3654
16636SOL    HW150486   3.881   7.843   1.816 -0.3788 -1.6996 -1.0247
16636SOL    HW250487   3.820   7.758   1.926  0.2902 -0.4567  0.3466
16637SOL     OW50488   1.773   6.313   1.635  0.6073 -0.0955 -0.3372
16637SOL    HW150489   1.684   6.317   1.670 -0.6052  1.6415 -3.2273
16637SOL    HW250490   1.778   6.229   1.591 -0.3214  0.5289 -1.6988
16638SOL     OW50491   8.283   5.854   9.390  0.3267  0.3940 -0.5285
16638SOL    HW150492   8.279   5.772   9.340 -1.7192 -0.5647  1.0611
16638SOL    HW250493   8.254   5.830   9.478  1.5906  2.4779  0.5325
16639SOL     OW50494   8.763   9.074   8.714  0.3635  0.1330 -0.0109
16639SOL    HW150495   8.708   9.151   8.728  0.5025  0.1485  0.4554
16639SOL    HW250496   8.807   9.091   8.631  0.9734  0.9055  0.4567
16640SOL     OW50497   9.284   2.245   6.123  0.6186 -0.5039  0.1862
16640SOL    HW150498   9.248   2.264   6.210 -0.3320 -1.0101 -0.0841
16640SOL    HW250499   9.328   2.326   6.098  0.7454 -0.2874  1.0618
16641SOL     OW50500   1.244   7.565   2.150  0.0513  0.9129  0.1684
16641SOL    HW150501   1.309   7.558   2.080  1.2457 -0.7992  1.3801
16641SOL    HW250502   1.163   7.589   2.105  1.1761  1.7357 -1.5493
16642SOL     OW50503   0.043   1.087   9.647  0.5410  0.2542 -0.0693
16642SOL    HW150504   0.126   1.094   9.694  0.6015  0.9928 -0.2622
16642SOL    HW250505  -0.011   1.158   9.682  1.0927  1.7508 -2.0385
16643SOL     OW50506   1.876   2.306   8.282 -0.0221  0.3487  0.7588
16643SOL    HW150507   1.939   2.356   8.334  0.5287  2.4027 -1.6862
16643SOL    HW250508   1.790   2.338   8.309  0.1914  0.6212  1.1199
16644SOL     OW50509   9.211   2.245   4.967 -0.4531  0.2612 -0.3125
16644SOL    HW150510   9.286   2.207   5.013  0.6560 -0.6326 -2.7289
16644SOL    HW250511   9.190   2.324   5.017  0.1797 -1.0160  2.1188
16645SOL     OW50512   6.252   9.701   2.038 -0.7143  0.2756  0.4257
16645SOL    HW150513   6.225   9.781   1.992  1.3560  0.6030 -0.3270
16645SOL    HW250514   6.289   9.733   2.121  1.2630  0.2576 -0.4086
16646SOL     OW50515   4.432   9.349   0.842 -0.2052 -0.4049 -0.5815
16646SOL    HW150516   4.486   9.299   0.902 -2.0704 -1.2858  0.4597
16646SOL    HW250517   4.458   9.318   0.755  2.2910  0.6469 -0.2835
16647SOL     OW50518   1.733   0.968   9.447 -0.0303 -0.1044  0.0701
16647SOL    HW150519   1.736   1.044   9.505  0.3727 -0.5364  0.6291
16647SOL    HW250520   1.818   0.968   9.402 -0.2631  0.1136 -0.3808
16648SOL     OW50521   2.907   2.153   3.209 -0.0711 -0.3564  0.5350
16648SOL    HW150522   2.912   2.066   3.247  1.1158  0.0141  1.2656
16648SOL    HW250523   2.923   2.213   3.282 -1.4148  0.5189  0.1635
16649SOL     OW50524   4.445   2.134   8.025  0.0732 -0.3793 -0.2576
16649SOL    HW150525   4.389   2.211   8.036 -0.2964 -0.4896 -1.2816
16649SOL    HW250526   4.523   2.166   7.979  1.3902 -0.0168  2.0523
16650SOL     OW50527   5.846   1.032   1.638 -0.7833 -0.3874  0.3519
16650SOL    HW150528   5.904   0.956   1.633  0.2013  0.3929 -0.3026
16650SOL    HW250529   5.760   0.994   1.658 -0.1527 -1.5942  0.9018
16651SOL     OW50530   4.680   0.045   0.491 -0.8455  0.2980 -0.5920
16651SOL    HW150531   4.597   0.056   0.445 -2.0499 -0.8102  1.1552
16651SOL    HW250532   4.714  -0.039   0.460 -0.4354  0.6821 -1.1982
16652SOL     OW50533   2.195   6.660   9.666  0.2381 -0.6410  0.3375
16652SOL    HW150534   2.232   6.598   9.604  0.8795 -1.5197  1.5535
16652SOL    HW250535   2.223   6.629   9.752  0.2201  1.0915  1.0277
16653SOL     OW50536   4.004   9.735   2.451 -0.1535  0.4077  0.4101
16653SOL    HW150537   3.974   9.775   2.369  1.9369 -2.0965 -1.7411
16653SOL    HW250538   3.924   9.723   2.502 -1.9465 -0.1943 -2.3330
16654SOL     OW50539   1.648   7.326   7.570 -0.0689  0.3774  0.2697
16654SOL    HW150540   1.727   7.286   7.534 -0.7865  1.2161 -2.4127
16654SOL    HW250541   1.680   7.395   7.628  1.1418 -0.3449  0.4885
16655SOL     OW50542   3.606   8.543   5.787 -1.0866  0.0791  0.1512
16655SOL    HW150543   3.554   8.486   5.843 -1.7465 -0.1033 -0.6231
16655SOL    HW250544   3.544   8.575   5.721 -0.0983 -0.6394 -1.1751
16656SOL     OW50545   3.874   3.911   9.820 -0.4556  0.7164  0.5072
16656SOL    HW150546   3.903   3.939   9.907 -2.0753  1.1124  0.9540
16656SOL    HW250547   3.876   3.815   9.825  0.7543  0.7216  0.4978
16657SOL     OW50548   1.294   7.984   0.916  0.5228  0.1625  0.2356
16657SOL    HW150549   1.353   8.035   0.972  0.7562 -0.4306  0.5372
16657SOL    HW250550   1.207   8.007   0.947  0.5416  1.6438 -0.7292
16658SOL     OW50551   7.772   3.971   5.183 -0.3511 -0.4287 -0.0229
16658SOL    HW150552   7.859   4.006   5.199 -1.2827  1.6208  0.8999
16658SOL    HW250553   7.754   3.915   5.259 -0.7571  1.1364  1.0886
16659SOL     OW50554   0.865   3.143   3.842  0.2976 -0.0863 -0.1505
16659SOL    HW150555   0.837   3.172   3.929  1.0454 -1.2058  0.4909
16659SOL    HW250556   0.871   3.224   3.790 -1.7334  0.4380  0.3466
16660SOL     OW50557   8.160   3.033   9.330  0.4016  0.6475  0.5822
16660SOL    HW150558   8.163   3.037   9.426  0.7459 -0.5786  0.6357
16660SOL    HW250559   8.198   2.948   9.308  0.8622  1.1509 -0.6793
16661SOL     OW50560   2.243   0.756   8.907 -0.2517  0.0616 -0.4365
16661SOL    HW150561   2.152   0.729   8.898 -0.0998  0.3023 -4.4307
16661SOL    HW250562   2.239   0.850   8.925 -0.8583  0.3145 -1.7880
16662SOL     OW50563   5.911   5.211   4.619  0.1818 -0.4550  0.1134
16662SOL    HW150564   5.826   5.167   4.614  1.0231 -2.2201  0.6252
16662SOL    HW250565   5.924   5.226   4.713 -0.0162  0.7697 -0.0459
16663SOL     OW50566   4.669   5.601   0.618 -0.2106 -0.2685  0.3526
16663SOL    HW150567   4.577   5.625   0.613  0.0305  0.5310 -0.9971
16663SOL    HW250568   4.690   5.567   0.531  0.6459 -0.9427  0.7995
16664SOL     OW50569   1.920   1.943   1.607 -0.0566  0.0710 -0.4949
16664SOL    HW150570   1.936   1.969   1.698  0.2288  0.8249 -0.7479
16664SOL    HW250571   1.973   1.865   1.594 -0.4919 -0.3315  0.1308
16665SOL     OW50572   7.419   9.249   5.750 -0.2728  0.3015 -0.0526
16665SOL    HW150573   7.416   9.276   5.842  0.7899  0.8589 -0.1665
16665SOL    HW250574   7.347   9.186   5.741 -0.7728  0.7010  1.0061
16666SOL     OW50575   9.230   7.106   7.795 -0.0358  0.6971  0.6139
16666SOL    HW150576   9.196   7.133   7.880  0.4173  2.5034  0.2579
16666SOL    HW250577   9.279   7.182   7.763  2.2168 -0.9001 -0.0104
16667SOL     OW50578   0.251   4.701   8.627  0.7889  0.4018 -0.4593
16667SOL    HW150579   0.307   4.664   8.558 -0.0489  0.5108 -1.2107
16667SOL    HW250580   0.288   4.667   8.708  1.9566  0.4765 -0.9326
16668SOL     OW50581   8.334   4.987   0.364  0.1609  0.3203  0.3250
16668SOL    HW150582   8.275   5.062   0.359  1.2897  1.1469 -2.8092
16668SOL    HW250583   8.378   4.984   0.279  3.2546 -1.4084  1.7728
16669SOL     OW50584   5.352   3.919   6.266  0.1189  0.5412 -0.0136
16669SOL    HW150585   5.404   3.851   6.223 -0.6569 -0.6779  0.9037
16669SOL    HW250586   5.397   4.001   6.245  2.8758 -0.4901  1.4270
16670SOL     OW50587   2.025   2.185   0.871  0.6581 -0.4251  0.3656
16670SOL    HW150588   1.993   2.274   0.886 -2.6659 -1.0211 -2.1435
16670SOL    HW250589   2.093   2.195   0.804 -0.4597  0.1912 -0.7182
16671SOL     OW50590   6.219   1.663   4.107 -0.6135  0.3082 -0.2056
16671SOL    HW150591   6.141   1.704   4.143  0.0082  0.3571  1.1789
16671SOL    HW250592   6.284   1.733   4.105 -0.9880  0.6724 -2.8310
16672SOL     OW50593   7.470   5.329   0.054 -0.4593 -0.2046  0.5510
16672SOL    HW150594   7.445   5.258   0.112  0.4361 -2.2599 -1.4385
16672SOL    HW250595   7.536   5.378   0.104  0.7525 -2.2707  1.1146
16673SOL     OW50596   4.402   6.716   3.639  0.0900  0.5927  0.1542
16673SOL    HW150597   4.445   6.798   3.614  0.7272  0.7754  1.7817
16673SOL    HW250598   4.471   6.651   3.638 -0.5307 -0.1051 -1.7357
16674SOL     OW50599   5.784   6.903   7.804  0.3217  0.1930  0.2993
16674SOL    HW150600   5.708   6.960   7.797  0.1779  0.0333  0.5638
16674SOL    HW250601   5.845   6.937   7.738 -1.0682 -1.3605 -1.9328
16675SOL     OW50602   6.605   9.807   0.353  0.0561  0.0589 -0.2072
16675SOL    HW150603   6.617   9.867   0.279 -1.0339 -0.2265 -0.6321
16675SOL    HW250604   6.540   9.849   0.409 -1.7082 -1.2544 -1.1575
16676SOL     OW50605   8.051   2.287   4.610 -0.7659 -0.2949  0.3310
16676SOL    HW150606   7.999   2.227   4.663 -0.6473 -1.7643 -1.1292
16676SOL    HW250607   7.999   2.298   4.530 -1.2987  2.4401  0.9632
16677SOL     OW50608   9.910   0.062   0.428  0.2645 -0.4893 -0.4442
16677SOL    HW150609   9.929   0.068   0.521 -0.8829 -1.3536 -0.1267
16677SOL    HW250610   9.822   0.099   0.420  1.8290  3.4431 -1.8370
16678SOL     OW50611   3.712   7.168   0.619  0.8534 -0.0928 -0.2479
16678SOL    HW150612   3.659   7.147   0.542 -0.1678 -0.4497  0.5243
16678SOL    HW250613   3.777   7.098   0.624  0.0897 -0.7977 -0.0472
16679SOL     OW50614   5.109   5.796   5.789 -0.4213 -0.3006 -0.3941
16679SOL    HW150615   5.104   5.766   5.698 -1.7012  1.0658 -0.8226
16679SOL    HW250616   5.134   5.888   5.782 -0.3986 -0.2202  0.6521
16680SOL     OW50617   3.432   4.921   3.405 -0.1510 -0.4842 -0.3889
16680SOL    HW150618   3.470   4.850   3.354  2.6568 -1.1235  2.2561
16680SOL    HW250619   3.505   4.979   3.424 -1.5780  1.0343  0.8140
16681SOL     OW50620   7.161   7.368   9.748 -0.5740  0.4602 -0.2306
16681SOL    HW150621   7.077   7.322   9.750 -0.2246 -0.1832  1.1175
16681SOL    HW250622   7.226   7.299   9.739 -0.0802  0.6933  1.2163
16682SOL     OW50623   7.874   6.467   6.049 -0.2922 -0.0639 -0.2447
16682SOL    HW150624   7.785   6.504   6.046 -0.9719 -1.6014  0.0966
16682SOL    HW250625   7.919   6.508   5.975 -1.0042  1.4091  0.1025
16683SOL     OW50626   3.874   9.370   2.385 -0.0008 -0.0464  0.0301
16683SOL    HW150627   3.893   9.276   2.384 -1.1921 -0.3102  0.1904
16683SOL    HW250628   3.860   9.391   2.478 -1.9185 -0.2150 -0.1776
16684SOL     OW50629   9.936   1.775   7.080  0.2329 -0.3429 -0.5103
16684SOL    HW150630   9.967   1.743   6.995  0.7835 -1.4862  0.1139
16684SOL    HW250631  10.006   1.833   7.111  0.7680 -1.1779 -0.1222
16685SOL     OW50632   8.436   3.925   9.788  0.1796  0.2024  0.5590
16685SOL    HW150633   8.510   3.871   9.759 -1.5018 -1.9207 -0.0034
16685SOL    HW250634   8.429   3.908   9.881 -0.0758 -0.2201  0.4650
16686SOL     OW50635   1.859   7.896   0.453  0.3306  0.3364  0.0856
16686SOL    HW150636   1.795   7.860   0.513  1.4109  0.9939  1.6868
16686SOL    HW250637   1.919   7.824   0.433 -0.2946 -0.0032 -0.5911
16687SOL     OW50638   1.138   3.068   0.887 -0.0692  0.8874 -0.0146
16687SOL    HW150639   1.231   3.080   0.907  0.2655  2.1073 -1.9875
16687SOL    HW250640   1.137   3.035   0.797 -1.4895 -2.5077  1.0882
16688SOL     OW50641   6.881   0.244   6.880  0.0198 -0.4106 -0.5049
16688SOL    HW150642   6.971   0.268   6.856  0.8840 -0.2286  2.4797
16688SOL    HW250643   6.888   0.156   6.915 -1.2947 -1.0138 -1.6884
16689SOL     OW50644   0.172   5.595   2.207  0.0377  0.1635 -0.4094
16689SOL    HW150645   0.143   5.685   2.192 -0.8704 -0.0243  0.1028
16689SOL    HW250646   0.264   5.603   2.230 -0.2846  1.0802  0.6586
16690SOL     OW50647   0.238   9.746   2.078  0.3459  0.0268  0.1240
16690SOL    HW150648   0.225   9.721   1.986 -1.0168  0.4646  0.1825
16690SOL    HW250649   0.156   9.789   2.103  1.5822  2.1024  0.8351
16691SOL     OW50650   7.898   9.132   6.973 -0.3707 -0.3134  0.0249
16691SOL    HW150651   7.916   9.222   6.999  0.3831 -0.5330  0.2944
16691SOL    HW250652   7.855   9.139   6.888 -0.2214  0.2911 -0.0014
16692SOL     OW50653   0.579   1.878   8.074 -0.1564 -0.0193 -0.0680
16692SOL    HW150654   0.527   1.948   8.114  0.6070  0.1633  0.6526
16692SOL    HW250655   0.669   1.898   8.101  0.1732 -0.8030 -0.5721
16693SOL     OW50656   6.017   2.319   2.233 -0.1119  0.1608 -0.2504
16693SOL    HW150657   6.085   2.254   2.212  0.3030  0.1143  1.1482
16693SOL    HW250658   5.938   2.267   2.245 -0.6113  0.2778 -2.5857
16694SOL     OW50659   6.313   8.687   0.449 -0.1598  0.2699  0.0097
16694SOL    HW150660   6.230   8.645   0.473 -0.2422 -0.5549 -1.5454
16694SOL    HW250661   6.304   8.777   0.479 -2.7489  0.9325 -2.2985
16695SOL     OW50662   8.917   3.453   8.908 -0.3205 -0.0194  0.4917
16695SOL    HW150663   8.930   3.480   8.817 -0.5927  0.1679  0.5048
16695SOL    HW250664   8.908   3.536   8.957 -1.7993 -0.1209  0.4336
16696SOL     OW50665   7.608   0.524   9.109 -0.0345 -0.0134 -0.1211
16696SOL    HW150666   7.690   0.571   9.102  0.1831 -0.2142  0.9072
16696SOL    HW250667   7.620   0.445   9.056 -0.0822  0.6261 -1.1131
16697SOL     OW50668   1.269   2.027   1.488 -0.0366 -0.6241  0.9487
16697SOL    HW150669   1.349   1.983   1.456  0.9225  0.2761  2.0183
16697SOL    HW250670   1.258   2.101   1.429  0.7824  0.0903  1.6699
16698SOL     OW50671   3.719   9.357   5.635 -0.0659 -0.6251  0.2193
16698SOL    HW150672   3.739   9.419   5.705 -2.0078  1.2220 -0.7430
16698SOL    HW250673   3.629   9.377   5.610 -0.5661 -3.4466 -0.6150
16699SOL     OW50674   6.442   5.048   9.238 -0.3462  0.1156 -0.8794
16699SOL    HW150675   6.392   5.059   9.319  0.6306 -0.6498 -0.1442
16699SOL    HW250676   6.462   5.137   9.210  0.3335  0.4104  0.4066
16700SOL     OW50677   8.365   2.704   8.556  0.1387 -0.8669  0.8330
16700SOL    HW150678   8.330   2.786   8.521 -0.0597 -1.3925 -0.2424
16700SOL    HW250679   8.438   2.731   8.612  0.1080  0.0468  0.4460
16701SOL     OW50680   8.710   9.969   8.347  0.1328  0.8563  0.0093
16701SOL    HW150681   8.642  10.032   8.371 -0.4788 -0.4136  1.9081
16701SOL    HW250682   8.705   9.902   8.415  1.9720 -0.3109 -0.9178
16702SOL     OW50683   5.991   6.470   8.590  0.0178  0.5430 -0.2377
16702SOL    HW150684   5.904   6.434   8.575 -0.1692  0.9125 -0.0529
16702SOL    HW250685   5.986   6.510   8.676  0.5546  0.0287  0.0344
16703SOL     OW50686   5.878   4.510   7.870  0.1238 -0.2091 -0.1384
16703SOL    HW150687   5.799   4.553   7.836  0.7978  0.9294 -0.3362
16703SOL    HW250688   5.845   4.441   7.927 -1.0374  1.0458  0.7955
16704SOL     OW50689   6.962   4.947   4.897  0.0737 -0.5199  0.1324
16704SOL    HW150690   7.023   4.877   4.918  1.8649  0.9867  0.1368
16704SOL    HW250691   6.938   4.930   4.805  1.1648 -0.6586 -0.1381
16705SOL     OW50692   3.884   7.801   9.574  0.0394 -0.3300  0.0097
16705SOL    HW150693   3.799   7.774   9.537 -0.1873  0.2429  0.0978
16705SOL    HW250694   3.938   7.819   9.497 -0.7717  1.9338 -0.1225
16706SOL     OW50695   6.242   1.286   2.775 -0.0252 -0.0359 -0.3027
16706SOL    HW150696   6.329   1.271   2.810  0.2110 -0.2137 -0.9582
16706SOL    HW250697   6.192   1.209   2.802 -0.5056  0.8878  1.6535
16707SOL     OW50698   1.772   2.050   8.552  0.1188 -0.0348  0.1922
16707SOL    HW150699   1.719   1.989   8.604 -0.2891 -0.6131 -0.8912
16707SOL    HW250700   1.713   2.124   8.536  0.2231  0.1139  0.4818
16708SOL     OW50701   0.147   7.686   6.149 -0.2248 -0.3939 -0.4647
16708SOL    HW150702   0.153   7.717   6.058  0.4381  2.2236  0.3816
16708SOL    HW250703   0.151   7.766   6.201 -0.8668 -1.8141  1.8874
16709SOL     OW50704   1.351   1.040   2.409 -0.0991  0.2327  0.0453
16709SOL    HW150705   1.368   0.946   2.399 -1.5680 -0.1393  0.8341
16709SOL    HW250706   1.282   1.059   2.346 -2.0397  0.0629  1.9954
16710SOL     OW50707   6.557   7.365   0.672  0.5490  0.0118  0.3306
16710SOL    HW150708   6.564   7.456   0.644 -2.9586 -0.1411 -1.5945
16710SOL    HW250709   6.567   7.368   0.767  3.1111  1.9428  0.1163
16711SOL     OW50710   5.012   4.832   9.311 -0.2816  0.0588 -0.1289
16711SOL    HW150711   5.084   4.819   9.372 -0.2532  1.0751  0.0748
16711SOL    HW250712   4.974   4.916   9.336  0.6860  1.2757 -2.4302
16712SOL     OW50713   5.391   6.311   7.772  0.5648 -0.4866  0.5479
16712SOL    HW150714   5.486   6.324   7.776  0.7995 -2.0559  0.7183
16712SOL    HW250715   5.379   6.248   7.702 -0.5390  0.9443 -0.6178
16713SOL     OW50716   3.950   6.853   9.276 -0.7629 -0.4727 -0.4204
16713SOL    HW150717   3.994   6.769   9.268  1.6316  0.7774 -1.3657
16713SOL    HW250718   3.992   6.895   9.351  0.0701  0.9715 -1.6619
16714SOL     OW50719   4.923   8.223   4.663  0.6314 -0.0066 -0.6017
16714SOL    HW150720   4.970   8.299   4.628  0.6926 -0.5553 -1.7733
16714SOL    HW250721   4.839   8.258   4.692  1.9360  1.1353  2.2214
16715SOL     OW50722   0.633   1.799   5.761 -0.3090  0.4211 -0.0789
16715SOL    HW150723   0.710   1.849   5.786 -0.5000  1.0968 -0.7972
16715SOL    HW250724   0.627   1.730   5.826  1.5449 -0.3245 -0.6341
16716SOL     OW50725   1.997   8.437   6.473 -0.1641  0.1847  0.0688
16716SOL    HW150726   2.011   8.347   6.445  2.4430  0.8251 -1.0020
16716SOL    HW250727   1.902   8.447   6.475 -0.5290 -1.8466 -2.3181
16717SOL     OW50728   5.021   8.478   3.803 -0.1756 -0.2910 -0.4477
16717SOL    HW150729   5.103   8.429   3.814  0.3005 -0.1624 -2.7861
16717SOL    HW250730   5.010   8.526   3.885  1.6394 -0.9698  0.2462
16718SOL     OW50731   9.786   6.955   9.618 -0.4871  0.2955 -0.0192
16718SOL    HW150732   9.713   6.902   9.585 -0.4920 -1.7761  2.9393
16718SOL    HW250733   9.744   7.036   9.649 -1.7645 -1.1046  2.1856
16719SOL     OW50734   0.279   9.216   8.038  0.0454 -0.2686 -0.5617
16719SOL    HW150735   0.190   9.183   8.022  0.8005 -1.9486 -1.5528
16719SOL    HW250736   0.298   9.271   7.962 -0.4046  0.7643  0.0423
16720SOL     OW50737   1.105   0.437   2.617 -0.4448 -0.2937  0.0364
16720SOL    HW150738   1.199   0.457   2.618 -0.4742 -0.1373  1.0048
16720SOL    HW250739   1.090   0.388   2.698 -0.5568 -3.5395 -1.7594
16721SOL     OW50740   9.085   1.011   1.042 -0.1923 -0.0643  0.3179
16721SOL    HW150741   8.996   1.046   1.045 -0.0523  0.2652  0.6330
16721SOL    HW250742   9.096   0.981   0.952 -1.2717 -1.8131  0.7125
16722SOL     OW50743   8.862   2.686   9.764 -0.5830 -0.6098 -0.0871
16722SOL    HW150744   8.836   2.596   9.744  1.1334 -1.6705  2.0364
16722SOL    HW250745   8.951   2.678   9.799 -0.1150  2.0134 -0.4548
16723SOL     OW50746   4.932   0.911   8.975  0.0583  0.3442 -0.9452
16723SOL    HW150747   4.994   0.982   8.989  0.0204  0.0015  1.2018
16723SOL    HW250748   4.980   0.847   8.923  1.5826  0.0555  0.7302
16724SOL     OW50749   0.945   2.374   4.354  0.2078 -0.6265 -0.2404
16724SOL    HW150750   1.028   2.392   4.310  0.8355 -0.0297  1.1505
16724SOL    HW250751   0.904   2.460   4.363  0.0030 -0.7681  0.1838
16725SOL     OW50752   8.604   0.439   7.436  0.0742  0.1710 -0.0317
16725SOL    HW150753   8.581   0.503   7.502  0.2873 -0.2564  0.4660
16725SOL    HW250754   8.673   0.480   7.385  2.1095 -0.6085  1.9157
16726SOL     OW50755   9.711   7.218   9.660 -0.1235  0.2879 -0.5316
16726SOL    HW150756   9.795   7.257   9.685 -0.3588  0.7266 -0.4104
16726SOL    HW250757   9.679   7.274   9.590 -1.1124  1.1542  0.5754
16727SOL     OW50758   2.291   0.155   1.182  0.0729 -0.2728  0.1046
16727SOL    HW150759   2.358   0.209   1.223  1.1506 -1.0991 -0.5051
16727SOL    HW250760   2.210   0.180   1.226  0.6601  1.2381  0.3971
16728SOL     OW50761   2.624   4.356   6.485  0.3090 -0.2932  0.6539
16728SOL    HW150762   2.668   4.293   6.428 -0.9769  0.0079 -0.7259
16728SOL    HW250763   2.692   4.384   6.547  1.2299 -2.0526  0.4872
16729SOL     OW50764   7.370   7.869   8.276 -0.0333  0.4282 -0.3947
16729SOL    HW150765   7.306   7.798   8.268 -0.5837  0.9583 -0.8537
16729SOL    HW250766   7.452   7.831   8.245 -0.3359  0.0122 -0.7005
16730SOL     OW50767   5.825   8.629   1.718  0.7075 -0.3196 -0.2634
16730SOL    HW150768   5.850   8.538   1.736  3.0363  0.3078 -0.0745
16730SOL    HW250769   5.896   8.664   1.665 -0.8583  1.0138 -1.5673
16731SOL     OW50770   1.586   7.140   1.854 -0.0445 -0.0290 -0.2111
16731SOL    HW150771   1.661   7.149   1.912 -0.9136  0.3697  0.8851
16731SOL    HW250772   1.616   7.176   1.770  1.4135 -1.1634 -0.2103
16732SOL     OW50773   1.937   4.110   7.498 -0.7022  0.0977  1.0678
16732SOL    HW150774   1.900   4.197   7.515 -2.0460  0.2549 -2.0839
16732SOL    HW250775   2.031   4.120   7.517 -0.5165  2.7787 -0.7616
16733SOL     OW50776   5.401   1.603   5.474  0.7685 -0.6652  0.5264
16733SOL    HW150777   5.346   1.616   5.551  1.6745  3.4553  0.6808
16733SOL    HW250778   5.364   1.661   5.407  1.6201 -2.1039 -1.2910
16734SOL     OW50779   2.563   5.830   5.366 -0.0975 -0.4030  0.2468
16734SOL    HW150780   2.518   5.830   5.281 -1.3725  2.9287  0.7937
16734SOL    HW250781   2.496   5.801   5.428  0.1367 -0.5561  0.4289
16735SOL     OW50782   8.887   2.703   7.686  0.0502  0.2586 -0.2455
16735SOL    HW150783   8.887   2.711   7.781  2.2260  0.4558 -0.2282
16735SOL    HW250784   8.802   2.663   7.666  0.2374 -1.3915  1.9100
16736SOL     OW50785   0.677   4.625   0.220 -0.6723  0.5267  0.0709
16736SOL    HW150786   0.584   4.609   0.229 -0.8575  0.9131 -0.9779
16736SOL    HW250787   0.694   4.702   0.275 -1.3486  1.5858 -1.1457
16737SOL     OW50788   9.602   8.649   3.188 -0.5416 -0.3647  0.0789
16737SOL    HW150789   9.550   8.581   3.230  0.5580 -2.1556 -1.3395
16737SOL    HW250790   9.609   8.622   3.097  0.2477  1.4745 -0.4608
16738SOL     OW50791   9.168   8.172   1.632  0.5043 -0.0721 -0.0464
16738SOL    HW150792   9.249   8.159   1.584 -0.5309 -1.6827 -1.4743
16738SOL    HW250793   9.173   8.263   1.663  2.0837  0.4242 -1.5805
16739SOL     OW50794   4.390   0.992   1.845 -0.8662 -0.1766 -0.2780
16739SOL    HW150795   4.460   0.927   1.841 -1.0622 -0.4948  1.0226
16739SOL    HW250796   4.371   1.002   1.938 -0.1258  2.5506 -0.3201
16740SOL     OW50797   7.064   7.013   0.176  0.2544 -0.0071 -0.2171
16740SOL    HW150798   7.078   7.104   0.151 -0.2306  0.1941  0.2113
16740SOL    HW250799   7.152   6.978   0.190  0.4121  0.9437  1.4842
16741SOL     OW50800   2.339   5.283   2.669 -0.1905 -0.1536  0.2385
16741SOL    HW150801   2.397   5.269   2.594 -1.2737  2.2617 -1.1712
16741SOL    HW250802   2.279   5.209   2.668  0.2921 -0.5452 -0.7935
16742SOL     OW50803   4.289   6.491   9.331 -0.3349  0.2204 -0.6002
16742SOL    HW150804   4.318   6.501   9.422  2.1010  1.6642 -1.4235
16742SOL    HW250805   4.307   6.399   9.311 -0.5752 -0.0261  0.2615
16743SOL     OW50806   6.862   6.182   3.481  0.5554 -0.3651 -0.1442
16743SOL    HW150807   6.927   6.171   3.550  1.8554 -0.9049 -1.4143
16743SOL    HW250808   6.894   6.129   3.408 -2.5510 -2.6553 -0.0389
16744SOL     OW50809   3.612   3.142   1.696  0.0913  0.6921 -0.1898
16744SOL    HW150810   3.631   3.235   1.684  1.5315  0.6721  1.4076
16744SOL    HW250811   3.698   3.100   1.696 -0.4978 -0.5610 -0.3071
16745SOL     OW50812   9.232   1.492   5.935  0.1242  0.5001  0.7865
16745SOL    HW150813   9.168   1.521   5.870  0.5032  0.2583  0.2973
16745SOL    HW250814   9.216   1.398   5.944  1.2656  0.1547 -0.3479
16746SOL     OW50815   5.794   9.233   7.917 -0.1713 -0.1699  0.3975
16746SOL    HW150816   5.716   9.190   7.952  0.8139 -0.7999  1.8824
16746SOL    HW250817   5.840   9.267   7.993  0.2768  1.5475 -0.5665
16747SOL     OW50818   4.143   7.160   9.837 -0.6348  0.4683 -0.5158
16747SOL    HW150819   4.056   7.170   9.797  0.1868  1.6026 -2.1175
16747SOL    HW250820   4.153   7.237   9.893 -0.6493  0.3234 -0.3107
16748SOL     OW50821   7.816   6.124   1.255  0.0416 -0.3679 -0.0853
16748SOL    HW150822   7.739   6.113   1.312 -1.3510  1.9651 -1.4005
16748SOL    HW250823   7.781   6.122   1.166  1.9750 -2.3124 -0.9072
16749SOL     OW50824   3.132   9.639   5.124 -0.0265 -0.1457 -0.3366
16749SOL    HW150825   3.095   9.551   5.116  0.4233 -0.3799  0.1779
16749SOL    HW250826   3.223   9.629   5.097 -0.3026  0.4204 -1.5340
16750SOL     OW50827   4.692   2.593   5.843 -0.1078  0.3282 -0.1221
16750SOL    HW150828   4.742   2.675   5.848  0.3992  0.0258 -0.1051
16750SOL    HW250829   4.660   2.578   5.931  3.0378 -1.4557  0.8986
16751SOL     OW50830   5.456   3.936   8.932  0.0364  0.2353  0.2939
16751SOL    HW150831   5.410   3.918   9.014  0.9842 -1.9862  0.4104
16751SOL    HW250832   5.388   3.936   8.865 -0.6744  1.5555  0.9715
16752SOL     OW50833   9.008   5.339   1.740 -0.0687 -0.3613 -0.2939
16752SOL    HW150834   8.995   5.427   1.704 -0.9314 -0.7413 -0.9712
16752SOL    HW250835   8.924   5.317   1.782  0.0142 -0.9828 -0.4363
16753SOL     OW50836   0.343   1.074   3.738  0.0384  0.0252 -0.5268
16753SOL    HW150837   0.386   1.072   3.652 -0.3853 -2.6252 -0.7520
16753SOL    HW250838   0.393   1.014   3.792 -0.9259  0.0659  0.4511
16754SOL     OW50839   9.145   6.431   6.732  0.3979 -0.0582 -0.0818
16754SOL    HW150840   9.126   6.462   6.821  2.2132  1.4607 -0.1811
16754SOL    HW250841   9.230   6.468   6.711  0.4611 -1.2243 -2.1067
16755SOL     OW50842   9.554   1.387   5.121  0.0590 -0.1268  0.2004
16755SOL    HW150843   9.500   1.401   5.198 -2.0456 -0.8042 -1.0615
16755SOL    HW250844   9.596   1.471   5.105 -2.6077  1.2531 -0.1492
16756SOL     OW50845   7.423   6.414   9.846 -0.2089  0.5765  0.1225
16756SOL    HW150846   7.511   6.377   9.858  0.8548  2.2613 -1.9780
16756SOL    HW250847   7.412   6.474   9.920  0.0442 -0.1864  0.8073
16757SOL     OW50848   0.699   0.985   0.112 -0.5365  0.1643  0.3723
16757SOL    HW150849   0.645   1.053   0.073 -1.6406 -0.2940  1.0329
16757SOL    HW250850   0.701   0.915   0.047 -0.4531  0.3239  0.2041
16758SOL     OW50851   4.494   9.969   2.478  0.3939  0.4392 -0.0493
16758SOL    HW150852   4.585   9.991   2.458  0.2506  0.0354 -1.2283
16758SOL    HW250853   4.494   9.948   2.571  1.6633 -0.3487 -0.2065
16759SOL     OW50854   4.396   0.503   5.418  0.4385  0.1562 -0.1011
16759SOL    HW150855   4.362   0.414   5.413  0.0186  0.1349  1.9838
16759SOL    HW250856   4.321   0.555   5.447  0.8507  1.0670 -0.6415
16760SOL     OW50857   4.238   6.349   1.072  0.2907  0.0985 -0.4492
16760SOL    HW150858   4.249   6.253   1.073 -1.2554 -0.1033 -0.2589
16760SOL    HW250859   4.200   6.369   1.157  2.0002  1.1057  0.1238
16761SOL     OW50860   8.951   4.344   8.182  0.1724  0.5331 -0.0918
16761SOL    HW150861   8.936   4.392   8.100 -1.3825  3.8478  1.9194
16761SOL    HW250862   8.880   4.280   8.185 -1.2561  2.0385 -0.2840
16762SOL     OW50863   7.708   8.336   0.455 -0.5427 -0.1345  0.0866
16762SOL    HW150864   7.619   8.361   0.433 -0.7063 -1.3920 -0.7562
16762SOL    HW250865   7.699   8.286   0.537 -0.6347 -0.4059 -0.0883
16763SOL     OW50866   6.135   4.511   7.841 -0.2274  0.5355  0.4399
16763SOL    HW150867   6.173   4.580   7.787 -1.6332 -0.9953 -2.7498
16763SOL    HW250868   6.046   4.542   7.859  0.1242  0.8800  1.6811
16764SOL     OW50869   2.287   5.835   7.896 -0.3294  0.0315  0.1130
16764SOL    HW150870   2.251   5.920   7.923 -1.9298 -0.0835 -1.3913
16764SOL    HW250871   2.276   5.778   7.972 -1.7886  0.4954  0.2871
16765SOL     OW50872   4.356   9.841   9.314  0.1695 -0.1824 -1.0259
16765SOL    HW150873   4.450   9.827   9.313  0.1237 -0.7250  0.1957
16765SOL    HW250874   4.320   9.764   9.268  0.2951 -0.3438 -0.8565
16766SOL     OW50875   9.536   1.076   2.969  0.0344 -0.1881 -0.5048
16766SOL    HW150876   9.605   1.053   3.031 -0.0952 -1.8163 -0.9209
16766SOL    HW250877   9.568   1.156   2.926  0.8582  0.0462  0.4976
16767SOL     OW50878   1.245   2.156   6.240  0.4079 -0.6072 -0.3330
16767SOL    HW150879   1.216   2.225   6.299 -0.2396  0.1113 -1.4440
16767SOL    HW250880   1.275   2.203   6.162 -1.4059 -1.6137 -1.6993
16768SOL     OW50881   4.105   5.029   2.627 -0.8950 -0.0201  0.8800
16768SOL    HW150882   4.042   5.076   2.682 -1.9314 -1.9491  1.4212
16768SOL    HW250883   4.105   4.940   2.661  1.9555 -0.1615  0.7009
16769SOL     OW50884   9.919   0.700   9.144  0.2622  0.3399  0.9510
16769SOL    HW150885   9.830   0.732   9.134 -0.1379 -0.9835  0.0183
16769SOL    HW250886   9.966   0.737   9.069  0.1638 -0.0255  0.7051
16770SOL     OW50887   5.657   0.866   0.424  0.2400 -0.1105  0.2032
16770SOL    HW150888   5.585   0.923   0.399  1.7506  2.0096  0.4724
16770SOL    HW250889   5.635   0.836   0.512 -1.7160 -1.9807 -0.8272
16771SOL     OW50890   1.489   3.003   7.833 -0.3481 -0.2930 -0.1432
16771SOL    HW150891   1.584   3.007   7.831 -0.0927 -3.2203  1.4789
16771SOL    HW250892   1.465   2.963   7.749  0.0909 -1.8311  0.4326
16772SOL     OW50893   6.910   9.239   0.150 -0.6935 -0.0990  0.6935
16772SOL    HW150894   6.978   9.174   0.132 -0.3100  0.2560  0.8581
16772SOL    HW250895   6.897   9.285   0.067  0.7161  1.1978  1.1553
16773SOL     OW50896   0.254   6.782   3.089  0.1184 -0.0237 -0.1435
16773SOL    HW150897   0.283   6.843   3.022 -0.0379 -0.5479 -0.7023
16773SOL    HW250898   0.174   6.743   3.054  0.4862 -0.9155 -0.0325
16774SOL     OW50899   0.805   3.910   4.676  0.0686 -0.8054  0.2687
16774SOL    HW150900   0.731   3.967   4.695  1.0223  0.1204  1.2928
16774SOL    HW250901   0.837   3.940   4.591  0.9026  0.5824  1.0431
16775SOL     OW50902   0.585   2.499   3.230  0.4461  0.1105  0.4010
16775SOL    HW150903   0.511   2.439   3.245  1.2450 -1.4437 -1.3988
16775SOL    HW250904   0.660   2.456   3.270  0.4418  1.7522  2.3412
16776SOL     OW50905   8.228   8.737   2.279  0.3202  0.0533 -0.3240
16776SOL    HW150906   8.271   8.763   2.197 -2.7634 -0.2274 -2.1838
16776SOL    HW250907   8.222   8.818   2.330 -0.0994  0.8568 -1.5985
16777SOL     OW50908   5.238   7.747   2.857 -0.3207 -0.2010 -0.1613
16777SOL    HW150909   5.248   7.782   2.946  0.9602 -2.2518  0.5586
16777SOL    HW250910   5.255   7.822   2.800  1.3385  0.5935  1.2956
16778SOL     OW50911   3.524   4.710   6.017  0.4968  0.6595 -0.4773
16778SOL    HW150912   3.590   4.641   6.030  0.6735  1.1830  2.0052
16778SOL    HW250913   3.565   4.789   6.053 -0.9966  1.2712 -0.0662
16779SOL     OW50914   4.403   5.637   2.960  0.1007 -0.4472  0.1163
16779SOL    HW150915   4.383   5.549   2.991 -0.4150 -0.3785 -0.0133
16779SOL    HW250916   4.366   5.695   3.026  1.6489 -0.3278  0.9257
16780SOL     OW50917   2.390   3.719   1.193 -0.2166  0.0486 -0.6634
16780SOL    HW150918   2.319   3.731   1.129 -1.0538  1.3582  0.4731
16780SOL    HW250919   2.459   3.779   1.165 -1.1965  1.7745  0.4812
16781SOL     OW50920   1.489   0.180   3.910  0.3173 -0.2098  0.3537
16781SOL    HW150921   1.560   0.239   3.935  1.1428 -0.4659 -1.2858
16781SOL    HW250922   1.416   0.239   3.890  0.5538  0.1384  0.4992
16782SOL     OW50923   2.931   1.558   4.095  0.3519  0.0641 -0.5032
16782SOL    HW150924   2.852   1.611   4.085 -0.0986 -0.8444 -2.1162
16782SOL    HW250925   2.899   1.471   4.118  1.0445  0.2545  1.3463
16783SOL     OW50926   1.900   3.661   5.404  0.2664  0.1801  0.1865
16783SOL    HW150927   1.979   3.621   5.440  0.5233 -0.2771 -0.8514
16783SOL    HW250928   1.831   3.639   5.466  0.6641 -0.7576  0.3103
16784SOL     OW50929   2.042   2.613   2.536  0.1664  0.3822  0.4631
16784SOL    HW150930   1.948   2.612   2.549 -0.0772  0.1458 -1.1155
16784SOL    HW250931   2.070   2.524   2.559 -0.0539  0.3447  0.5860
16785SOL     OW50932   2.149   6.710   7.142 -0.4160  0.6216  0.4864
16785SOL    HW150933   2.114   6.629   7.180  0.2079 -0.3129 -0.8297
16785SOL    HW250934   2.080   6.775   7.155 -0.8999 -0.1017  1.6444
16786SOL     OW50935   3.431   7.252   3.889  0.0708 -0.0087  0.1740
16786SOL    HW150936   3.365   7.290   3.831 -0.4479 -1.5315 -0.2979
16786SOL    HW250937   3.500   7.220   3.831  0.1471 -0.4178  0.4794
16787SOL     OW50938   3.550   4.527   7.956  0.0021 -0.4426 -0.1328
16787SOL    HW150939   3.461   4.491   7.954 -0.6291  0.6681  2.5512
16787SOL    HW250940   3.564   4.548   8.049  2.5194  0.8055 -0.7241
16788SOL     OW50941   3.314   2.286   3.226 -0.4410  0.5315  0.1809
16788SOL    HW150942   3.265   2.348   3.279 -1.1770  0.0038  0.1365
16788SOL    HW250943   3.256   2.210   3.219 -0.4296  0.6449 -1.4944
16789SOL     OW50944   3.838   9.963   8.252  0.3166  0.2573 -0.4262
16789SOL    HW150945   3.847  10.018   8.330 -2.0251 -0.6236  0.5565
16789SOL    HW250946   3.928   9.946   8.224  1.2482  0.5007  2.1548
16790SOL     OW50947   9.243   5.184   6.747  0.4084  0.1369 -0.5291
16790SOL    HW150948   9.213   5.273   6.764  0.9224  0.3123 -0.5020
16790SOL    HW250949   9.320   5.196   6.691 -0.9766 -0.3817 -2.6800
16791SOL     OW50950   5.962   2.513   7.570 -0.4000  0.0842 -0.3811
16791SOL    HW150951   6.004   2.510   7.484 -0.5178  0.9176 -0.4721
16791SOL    HW250952   5.891   2.576   7.560 -0.2940  0.3409  0.3808
16792SOL     OW50953   1.046   4.333   3.189 -0.3099  0.9935  0.0489
16792SOL    HW150954   1.073   4.414   3.146 -1.5120  0.9774 -0.7710
16792SOL    HW250955   1.012   4.279   3.118 -1.8671  0.7673  0.9376
16793SOL     OW50956   2.854   4.442   9.972  0.4146  0.4559  1.3974
16793SOL    HW150957   2.893   4.355   9.979 -0.4549  0.1225  2.3383
16793SOL    HW250958   2.760   4.427   9.980 -0.1906  1.0294 -2.6382
16794SOL     OW50959   3.803   2.212   9.628 -0.7030  1.0404  0.1359
16794SOL    HW150960   3.785   2.265   9.705 -2.2274  0.5099  0.1723
16794SOL    HW250961   3.895   2.185   9.639 -1.1802  0.0341  2.3821
16795SOL     OW50962   9.867   6.373   2.497 -0.3497  0.2895  0.6264
16795SOL    HW150963   9.800   6.348   2.561 -0.0199  1.0462  1.2810
16795SOL    HW250964   9.873   6.297   2.438 -0.9099 -0.2780  1.2806
16796SOL     OW50965   3.986   6.040   0.403 -0.4461  0.0475  0.1498
16796SOL    HW150966   3.967   6.001   0.489 -0.5139 -1.6278 -0.5820
16796SOL    HW250967   3.940   6.124   0.404 -0.8889 -0.1817  1.5452
16797SOL     OW50968   1.547   4.758   9.568 -0.1764 -0.4809 -0.8649
16797SOL    HW150969   1.522   4.696   9.499 -2.7406 -1.7395  1.0030
16797SOL    HW250970   1.517   4.716   9.649  3.2241  0.6320  1.1616
16798SOL     OW50971   3.014   8.611   5.702 -0.0027 -0.0468 -0.4450
16798SOL    HW150972   2.921   8.595   5.687  0.4125 -1.4167 -1.7622
16798SOL    HW250973   3.045   8.653   5.622  0.6615 -0.3031 -0.3281
16799SOL     OW50974   6.394   0.909   4.028  0.2749  0.8059  0.3513
16799SOL    HW150975   6.467   0.958   3.991  1.0506  0.2954  1.1357
16799SOL    HW250976   6.428   0.820   4.037 -0.6874  0.4005  0.0895
16800SOL     OW50977   9.692   5.047   9.313 -0.5413  0.0782 -0.1977
16800SOL    HW150978   9.604   5.049   9.275 -0.6306 -0.6733 -0.0507
16800SOL    HW250979   9.680   5.004   9.398 -0.1773  0.8280  0.2378
16801SOL     OW50980   0.841   5.122   3.956 -0.2515 -0.2511  0.3898
16801SOL    HW150981   0.839   5.212   3.926 -1.0728 -0.4832 -0.2719
16801SOL    HW250982   0.895   5.124   4.036 -2.2362  1.2431  1.7688
16802SOL     OW50983   1.726   1.596   6.355  1.0128 -0.0582  0.5241
16802SOL    HW150984   1.813   1.597   6.393  1.0450 -0.3378  0.4615
16802SOL    HW250985   1.733   1.649   6.276  1.1931 -0.2919  0.3797
16803SOL     OW50986   2.117   3.611   0.655 -0.2300 -0.6709  0.5740
16803SOL    HW150987   2.087   3.670   0.586  0.1531  0.1032  1.0532
16803SOL    HW250988   2.087   3.525   0.627 -1.3490 -0.1739  0.1720
16804SOL     OW50989   0.887   4.237   4.486  0.3123  0.3863  0.7615
16804SOL    HW150990   0.969   4.275   4.519  1.8592 -1.6859 -0.4388
16804SOL    HW250991   0.832   4.229   4.564  1.8175  0.4842  1.8905
16805SOL     OW50992   7.523   5.435   0.346  0.1568 -0.1518 -0.8193
16805SOL    HW150993   7.434   5.463   0.366 -0.6637 -1.3600 -2.4659
16805SOL    HW250994   7.554   5.498   0.282  0.1449 -0.2214 -0.8943
16806SOL     OW50995   4.491   3.330   9.674 -0.2491  0.0161  0.4169
16806SOL    HW150996   4.500   3.312   9.580 -1.4833  0.2898  0.2277
16806SOL    HW250997   4.414   3.387   9.680 -2.0846 -2.4275  1.8599
16807SOL     OW50998   1.603   5.661   1.409 -0.4116  0.4269  0.5186
16807SOL    HW150999   1.569   5.642   1.497 -0.5676 -2.3648 -0.0660
16807SOL    HW251000   1.542   5.727   1.374 -1.6458 -0.0155  1.7200
16808SOL     OW51001   4.280   2.934   6.378  0.3552 -0.6453 -0.0966
16808SOL    HW151002   4.211   2.909   6.317 -0.0860 -0.0918  0.1607
16808SOL    HW251003   4.234   2.948   6.461  0.6107  0.6559 -0.1492
16809SOL     OW51004   3.241   6.204   7.047  0.0087  0.5014 -0.7891
16809SOL    HW151005   3.195   6.249   6.976  0.1173  1.3779 -0.3084
16809SOL    HW251006   3.199   6.118   7.052 -0.8524  0.8968 -1.0783
16810SOL     OW51007   7.102   5.011   2.988  0.3067  0.6822 -0.2694
16810SOL    HW151008   7.120   5.103   3.006 -1.9375  1.4787 -1.6883
16810SOL    HW251009   7.187   4.974   2.963  1.5539  1.9197  1.8564
16811SOL     OW51010   3.914   5.961   3.507  0.2131 -0.5836  0.3690
16811SOL    HW151011   3.909   5.884   3.450  0.5878 -0.5737  0.3250
16811SOL    HW251012   3.930   5.926   3.594 -2.5195 -0.7686  0.8964
16812SOL     OW51013   5.361   4.422   3.753  0.5677  0.1016  0.3215
16812SOL    HW151014   5.443   4.442   3.797 -0.1749  2.4377  0.7695
16812SOL    HW251015   5.299   4.487   3.787 -1.0548 -0.5850 -1.1895
16813SOL     OW51016   6.644   6.541   7.810 -0.5312 -0.2094  0.5852
16813SOL    HW151017   6.591   6.480   7.758  0.7331 -0.7798 -0.0650
16813SOL    HW251018   6.734   6.511   7.799  0.0452  1.3088  0.8960
16814SOL     OW51019   0.764   1.853   0.519  0.0370  0.0973  0.4246
16814SOL    HW151020   0.724   1.776   0.557 -1.1378 -0.0681 -1.0542
16814SOL    HW251021   0.767   1.917   0.590  1.9906 -1.5859  1.9689
16815SOL     OW51022   7.073   0.784   9.155 -0.3734  0.0845  0.0059
16815SOL    HW151023   6.983   0.812   9.174 -0.3511 -0.7705  1.6242
16815SOL    HW251024   7.125   0.824   9.225  0.6969  1.3276 -1.4317
16816SOL     OW51025   3.966   6.017   7.341 -0.1671 -0.0202 -0.0393
16816SOL    HW151026   3.879   6.037   7.377 -0.5501 -1.5360 -0.0585
16816SOL    HW251027   3.979   5.924   7.359  1.9084  0.3854  0.8441
16817SOL     OW51028   7.707   6.405   1.563  0.6613  0.6458  0.5101
16817SOL    HW151029   7.793   6.415   1.604  1.1859  1.4698 -0.7343
16817SOL    HW251030   7.665   6.490   1.575  0.9296  0.9985 -0.8312
16818SOL     OW51031   5.319   6.223   3.626  0.7043 -0.1167 -0.5041
16818SOL    HW151032   5.226   6.203   3.628  0.5428  0.6004 -0.3441
16818SOL    HW251033   5.358   6.155   3.572  0.1999 -0.8584  0.0423
16819SOL     OW51034   6.020   9.497   3.530 -0.0711 -0.0746 -0.3277
16819SOL    HW151035   5.981   9.584   3.532 -1.1284 -0.5032 -1.1436
16819SOL    HW251036   5.965   9.448   3.469  1.2973 -0.9448 -0.8988
16820SOL     OW51037   3.446   9.895   4.832 -0.3326  0.3408 -0.4466
16820SOL    HW151038   3.357   9.887   4.797 -0.9379 -3.1744  1.3666
16820SOL    HW251039   3.503   9.882   4.756 -1.3723  1.0158 -1.3732
16821SOL     OW51040   0.045   6.546   5.964  0.0326 -0.1548 -0.2990
16821SOL    HW151041   0.044   6.469   5.907  0.6939 -1.1260  0.9544
16821SOL    HW251042   0.138   6.560   5.982 -0.1853 -0.1139  0.8380
16822SOL     OW51043   1.416   5.896   0.473 -0.1112 -0.3011  0.2650
16822SOL    HW151044   1.510   5.899   0.460 -0.2061 -0.6401 -0.5536
16822SOL    HW251045   1.390   5.987   0.480  0.1785 -0.1631 -0.3408
16823SOL     OW51046   0.029   6.026   9.447  0.4998 -0.2435  0.4168
16823SOL    HW151047  -0.020   6.108   9.454 -0.6824 -0.8449 -0.5053
16823SOL    HW251048   0.042   5.997   9.537  2.4982  1.8119  0.8886
16824SOL     OW51049   0.179   2.614   9.135  0.4171  0.4844  0.7728
16824SOL    HW151050   0.086   2.592   9.131 -0.2130  2.8788  0.7865
16824SOL    HW251051   0.196   2.630   9.228  1.0843 -0.6998  0.8819
16825SOL     OW51052   6.067   5.092   7.901  0.3037 -0.0211 -0.2528
16825SOL    HW151053   6.143   5.137   7.864  1.3275 -0.9940  0.5603
16825SOL    HW251054   6.105   5.019   7.951 -1.1766 -0.5483  0.1607
16826SOL     OW51055   3.672   5.838   1.638  0.4127 -0.3952 -0.4293
16826SOL    HW151056   3.634   5.813   1.554 -0.8031 -0.2077  0.0427
16826SOL    HW251057   3.711   5.923   1.622 -0.0353 -0.2451 -0.7513
16827SOL     OW51058   1.024   2.780   2.118 -0.0510  0.7234  0.0290
16827SOL    HW151059   0.971   2.751   2.191  0.4498 -1.8940 -0.5449
16827SOL    HW251060   1.114   2.773   2.149  0.1536 -0.1376 -0.7136
16828SOL     OW51061   3.802   6.397   5.866  0.1028  0.4980 -0.6514
16828SOL    HW151062   3.840   6.344   5.796 -1.2006 -1.5680  0.1135
16828SOL    HW251063   3.712   6.366   5.874  0.5777 -0.4000  2.8390
16829SOL     OW51064   2.829   6.939   4.087 -0.4875 -0.0682 -0.6616
16829SOL    HW151065   2.746   6.974   4.055  0.5166  1.4104 -1.8094
16829SOL    HW251066   2.887   6.941   4.011  0.7917 -0.4668  0.2601
16830SOL     OW51067   2.913   2.734   0.302  0.0410 -0.4563 -0.2416
16830SOL    HW151068   2.893   2.770   0.216 -0.5134 -0.8910 -0.2995
16830SOL    HW251069   2.839   2.677   0.322 -0.0042 -0.0909  0.6807
16831SOL     OW51070   7.690   5.420   7.997 -0.0480  0.2985  0.1103
16831SOL    HW151071   7.742   5.344   8.022 -1.4023 -0.5375  0.4778
16831SOL    HW251072   7.678   5.410   7.903 -1.0450 -0.4873  0.3110
16832SOL     OW51073   6.306   3.764   8.085  0.2911 -0.2791 -0.6944
16832SOL    HW151074   6.222   3.799   8.058  0.9221  0.6508 -1.5437
16832SOL    HW251075   6.288   3.714   8.165 -0.9213  0.5571 -0.4336
16833SOL     OW51076   8.152   5.206   0.317  0.3143 -0.1852  0.0829
16833SOL    HW151077   8.097   5.150   0.371  1.4482 -1.7783 -0.3205
16833SOL    HW251078   8.097   5.229   0.242 -0.4872  0.0795  0.7394
16834SOL     OW51079   3.495   1.681   8.436 -0.4238 -0.3450  0.2431
16834SOL    HW151080   3.556   1.734   8.488  0.7566 -1.2855 -0.1268
16834SOL    HW251081   3.410   1.693   8.478 -0.0785  1.3204  0.5468
16835SOL     OW51082   9.021   6.971   9.880  0.0709  0.5460 -0.2914
16835SOL    HW151083   8.929   6.960   9.905  0.2801  0.3086  0.3949
16835SOL    HW251084   9.068   6.978   9.963  0.6730  0.6898 -0.6386
16836SOL     OW51085   3.991   8.573   7.869 -0.1045  0.0492  0.1125
16836SOL    HW151086   3.988   8.482   7.899 -1.6806  0.3449  0.9177
16836SOL    HW251087   3.926   8.578   7.799 -0.6129  0.7463  0.6250
16837SOL     OW51088   5.966   1.098   9.558  0.4320 -0.0203 -0.2448
16837SOL    HW151089   5.956   1.020   9.613 -0.4779  0.0352 -0.3142
16837SOL    HW251090   5.943   1.068   9.470  1.0017  0.1070 -0.4419
16838SOL     OW51091   0.336   6.075   9.233 -0.7901 -0.0676 -0.2649
16838SOL    HW151092   0.413   6.132   9.236 -0.2514 -0.7955  0.3858
16838SOL    HW251093   0.269   6.126   9.187  0.0254  0.6485 -0.6835
16839SOL     OW51094   8.510   8.536   9.538 -0.0041 -0.3525  0.0175
16839SOL    HW151095   8.420   8.556   9.512 -0.0228 -0.4657 -0.0028
16839SOL    HW251096   8.503   8.507   9.629  0.0520 -0.0344  0.1259
16840SOL     OW51097   9.641   2.418   0.189 -0.9149  0.1230 -0.0963
16840SOL    HW151098   9.612   2.509   0.185 -0.3067  0.3166 -3.6438
16840SOL    HW251099   9.704   2.415   0.260 -1.4121  2.2973  0.5019
16841SOL     OW51100   9.347   8.535   3.048  0.5237  0.2241  0.5219
16841SOL    HW151101   9.368   8.483   2.971 -0.1449  1.9548 -0.8805
16841SOL    HW251102   9.325   8.470   3.115  4.5365 -1.5227  0.4440
16842SOL     OW51103   1.620   0.566   9.147  0.2599 -0.1503  0.0409
16842SOL    HW151104   1.622   0.622   9.225  1.4752  1.1318 -0.8551
16842SOL    HW251105   1.712   0.554   9.124 -0.0912  0.8637 -2.1207
16843SOL     OW51106   4.251   7.455   6.787 -0.6168  0.6904  0.3648
16843SOL    HW151107   4.253   7.550   6.777 -0.2613  0.6139 -0.3714
16843SOL    HW251108   4.221   7.440   6.876  1.8271  1.5558  1.4066
16844SOL     OW51109   3.764   1.162   3.252 -0.5870 -0.4438  0.2221
16844SOL    HW151110   3.683   1.213   3.253 -0.7391 -0.6465 -0.6819
16844SOL    HW251111   3.743   1.083   3.303 -0.6597 -0.0699  0.7787
16845SOL     OW51112   2.234   3.245   5.335  0.5400 -0.0066 -0.5470
16845SOL    HW151113   2.265   3.238   5.425  0.8229  0.2613 -0.6225
16845SOL    HW251114   2.219   3.154   5.308  0.3260 -0.0810 -0.1878
16846SOL     OW51115   8.096   7.366   4.895 -0.6579  0.6447 -0.0160
16846SOL    HW151116   8.166   7.306   4.869 -0.7309  0.4918  0.1403
16846SOL    HW251117   8.071   7.337   4.983 -1.5345  0.1417 -0.4283
16847SOL     OW51118   8.793   9.381   4.661  0.3386  0.1945 -0.0425
16847SOL    HW151119   8.814   9.457   4.608  1.0738 -0.8772 -1.3738
16847SOL    HW251120   8.878   9.348   4.691 -0.0782  1.1724  2.4784
16848SOL     OW51121   6.594   9.511   5.361 -0.1859 -0.3974 -1.2776
16848SOL    HW151122   6.549   9.445   5.308 -0.5836 -1.8743  0.7859
16848SOL    HW251123   6.626   9.463   5.437 -0.9984  1.8627  0.6341
16849SOL     OW51124   2.894   6.538   4.247 -0.1092  0.2724  0.1362
16849SOL    HW151125   2.802   6.556   4.226 -0.4112  0.3894  1.4743
16849SOL    HW251126   2.892   6.453   4.292  0.3075  0.7171  1.0192
16850SOL     OW51127   8.021   4.594   7.876  0.0763 -0.8406 -0.0706
16850SOL    HW151128   8.099   4.552   7.842  0.0689 -2.4340  1.7266
16850SOL    HW251129   8.054   4.670   7.925  0.2369  0.1063 -1.5696
16851SOL     OW51130   0.850   0.366   0.744 -0.2828 -0.1887 -0.0232
16851SOL    HW151131   0.867   0.360   0.838 -0.2499 -0.4100 -0.0436
16851SOL    HW251132   0.822   0.278   0.719  2.3646 -0.9086 -0.7563
16852SOL     OW51133   7.490   6.488   7.005 -0.6203  0.0396 -0.3523
16852SOL    HW151134   7.462   6.578   6.993  0.6979  0.6923  1.0325
16852SOL    HW251135   7.532   6.464   6.923 -2.5658  0.0286 -1.3850
16853SOL     OW51136   5.201   4.708   6.881 -0.2186  0.0625 -0.2528
16853SOL    HW151137   5.212   4.706   6.976  1.8390 -4.0944 -0.3738
16853SOL    HW251138   5.122   4.657   6.865 -1.0049  1.3917 -0.8446
16854SOL     OW51139   6.946   3.352   7.171 -0.3849 -0.3219  0.2258
16854SOL    HW151140   7.004   3.338   7.096 -1.8397  1.1804 -1.2697
16854SOL    HW251141   6.887   3.422   7.143 -3.2605 -2.0866  1.4726
16855SOL     OW51142   3.775   5.408   7.371 -0.4504 -0.0648  0.2180
16855SOL    HW151143   3.852   5.351   7.366 -1.2519 -1.2574  0.8003
16855SOL    HW251144   3.760   5.436   7.281 -0.5901 -1.5987 -0.2746
16856SOL     OW51145   5.517   4.134   8.142  0.0328 -0.7191 -0.2774
16856SOL    HW151146   5.427   4.150   8.115  0.1454  1.3223  0.3808
16856SOL    HW251147   5.514   4.139   8.238  0.7971 -0.9284 -0.2374
16857SOL     OW51148   8.146   9.022   0.524  0.4933  0.4396 -0.5210
16857SOL    HW151149   8.154   9.002   0.430 -1.2740  2.4050 -1.1567
16857SOL    HW251150   8.236   9.025   0.555  1.2671  1.7388 -2.6455
16858SOL     OW51151   2.440   5.193   0.193 -0.1244  0.6413  0.0884
16858SOL    HW151152   2.488   5.114   0.219 -0.5959  0.5498  0.7256
16858SOL    HW251153   2.484   5.224   0.114 -1.7020 -1.8926 -1.9451
16859SOL     OW51154   8.373   8.861   7.339  0.3978 -0.3186 -0.1132
16859SOL    HW151155   8.464   8.858   7.310 -0.1996  0.0548 -2.2562
16859SOL    HW251156   8.332   8.785   7.298 -0.3099 -0.3384  0.5988
16860SOL     OW51157   9.800   5.620   5.240 -0.1175 -0.0211  0.1433
16860SOL    HW151158   9.840   5.538   5.208 -1.1139 -0.8920  1.0707
16860SOL    HW251159   9.874   5.681   5.247  1.0128 -1.4332  1.3199
16861SOL     OW51160   6.793   7.300   8.223  0.0288  0.1341 -0.1804
16861SOL    HW151161   6.773   7.244   8.298 -2.3091  2.4723  1.0989
16861SOL    HW251162   6.878   7.338   8.243 -0.6402  0.8598  1.4619
16862SOL     OW51163   9.501   8.139   9.610 -0.1941 -0.5875  0.0448
16862SOL    HW151164   9.590   8.116   9.585 -0.1727 -0.9808  0.4733
16862SOL    HW251165   9.493   8.232   9.589  0.3863 -0.4989  0.2096
16863SOL     OW51166   2.247   6.107   5.716  0.5815  0.2648  0.3522
16863SOL    HW151167   2.241   6.021   5.757  0.5971  0.4868  0.8212
16863SOL    HW251168   2.258   6.088   5.622  0.2378 -0.2339  0.4118
16864SOL     OW51169   3.271   2.323   2.296 -0.2851 -0.6457 -0.1710
16864SOL    HW151170   3.277   2.354   2.205 -0.3291 -1.2662 -0.3891
16864SOL    HW251171   3.204   2.379   2.335  0.1950  0.0623 -0.3303
16865SOL     OW51172   2.567   8.107   1.322  0.8687  0.1531 -0.4138
16865SOL    HW151173   2.658   8.083   1.302  0.4389 -1.6715 -0.3291
16865SOL    HW251174   2.561   8.101   1.417  1.1665  2.2867 -0.2281
16866SOL     OW51175   5.669   9.505   1.783 -0.0162  0.0575  0.5975
16866SOL    HW151176   5.655   9.586   1.735 -0.8941 -0.3818  0.0825
16866SOL    HW251177   5.696   9.442   1.716 -4.7923 -1.5641 -0.2047
16867SOL     OW51178   2.426   9.728   6.989 -0.1122 -0.5465  0.0081
16867SOL    HW151179   2.436   9.759   7.079 -0.1715  0.0611 -0.1925
16867SOL    HW251180   2.387   9.641   6.998 -0.2761 -0.4224  0.5612
16868SOL     OW51181   0.971   7.654   9.454  0.9011  0.2006  0.2167
16868SOL    HW151182   1.064   7.643   9.432  0.6614 -1.0003 -0.3087
16868SOL    HW251183   0.956   7.590   9.523  0.0509 -0.9799 -1.0030
16869SOL     OW51184   5.606   1.453   1.472 -0.3383  0.1171  0.9671
16869SOL    HW151185   5.647   1.449   1.385 -1.3933 -0.0513  0.4529
16869SOL    HW251186   5.663   1.401   1.528 -0.7143 -1.5219 -0.0920
16870SOL     OW51187   3.427   9.003   0.582  0.3067  0.0685  0.3018
16870SOL    HW151188   3.381   9.082   0.611  1.6860  0.8890  0.3430
16870SOL    HW251189   3.448   8.956   0.663  0.9610  0.5292  0.4108
16871SOL     OW51190   0.747   1.524   8.902  0.2538 -0.1835  0.3260
16871SOL    HW151191   0.667   1.574   8.920  0.4961  0.9946 -1.5858
16871SOL    HW251192   0.783   1.564   8.823  1.2928 -2.4279 -0.4299
16872SOL     OW51193   0.648   0.086   4.745 -0.3556 -0.1091  0.0219
16872SOL    HW151194   0.695   0.169   4.754 -1.6784  0.9215 -1.8749
16872SOL    HW251195   0.565   0.100   4.789 -1.3303  0.2806 -1.8189
16873SOL     OW51196   4.745   6.996   6.901  0.0487 -0.3943 -0.2437
16873SOL    HW151197   4.740   6.941   6.823 -0.8824  0.0476 -0.5020
16873SOL    HW251198   4.816   7.058   6.882  1.4374 -1.7736  0.2464
16874SOL     OW51199   3.281   5.456   3.045  0.4889 -0.5009  0.2370
16874SOL    HW151200   3.308   5.411   2.965  1.7587  1.0747 -0.2735
16874SOL    HW251201   3.187   5.471   3.033  0.4588 -1.1823 -0.4976
16875SOL     OW51202   3.769   0.070   0.768 -0.0109  0.0553 -0.4508
16875SOL    HW151203   3.864   0.069   0.755  0.3270  1.1243  1.5405
16875SOL    HW251204   3.752  -0.002   0.829 -0.2391  0.8505  0.4419
16876SOL     OW51205   7.252   5.997   0.125  0.0208  0.3469  0.4462
16876SOL    HW151206   7.278   5.908   0.150  1.4677 -1.3240 -5.4560
16876SOL    HW251207   7.159   5.989   0.104 -0.8394  1.3893  3.4101
16877SOL     OW51208   4.603   2.543   8.038 -0.0260 -0.5179 -0.3598
16877SOL    HW151209   4.674   2.525   7.976  0.5283 -0.3588  0.2206
16877SOL    HW251210   4.647   2.577   8.116 -0.8057  0.3813 -0.2919
16878SOL     OW51211   7.104   3.181   3.603 -0.1622 -0.6366 -0.0778
16878SOL    HW151212   7.122   3.088   3.586 -0.9800 -0.3634 -2.8593
16878SOL    HW251213   7.008   3.185   3.608 -0.2324  0.2563 -1.6268
16879SOL     OW51214   6.244   1.692   0.613  0.0952  0.4496  0.5322
16879SOL    HW151215   6.180   1.680   0.683  0.5646 -0.7809  0.7784
16879SOL    HW251216   6.233   1.616   0.557  1.2007  0.3044  0.4838
16880SOL     OW51217   9.551   0.287   9.660  0.2922 -0.2390 -0.2064
16880SOL    HW151218   9.560   0.369   9.710  1.0659  0.7326 -1.8610
16880SOL    HW251219   9.622   0.231   9.692 -0.1492 -0.2332  0.8322
16881SOL     OW51220   8.028   6.307   4.992 -0.0219 -0.2703  0.5296
16881SOL    HW151221   7.997   6.390   4.954 -2.9718 -0.2024  2.7381
16881SOL    HW251222   8.087   6.334   5.062 -0.9244 -0.0254  1.2020
16882SOL     OW51223   9.186   6.086   2.147  0.1422 -0.1931 -0.2848
16882SOL    HW151224   9.156   6.161   2.198  0.1015 -0.4033  0.0100
16882SOL    HW251225   9.281   6.094   2.146  0.0960  0.2509 -0.8665
16883SOL     OW51226   5.193   0.041   6.266 -0.1184  0.5576  0.2535
16883SOL    HW151227   5.247   0.093   6.325 -0.4800 -0.8928  1.9761
16883SOL    HW251228   5.150  -0.023   6.323 -0.6003 -0.8663 -1.5923
16884SOL     OW51229   0.029   6.584   4.059  0.6054  0.2008  0.3490
16884SOL    HW151230  -0.040   6.638   4.096 -0.9033 -1.6890  0.4203
16884SOL    HW251231   0.041   6.618   3.970 -0.1250  0.8128  0.4760
16885SOL     OW51232   8.608   7.611   9.064  0.3896 -0.0917  0.0380
16885SOL    HW151233   8.536   7.674   9.063  0.3123 -0.1533  0.8213
16885SOL    HW251234   8.633   7.602   8.972 -0.3345  0.2371 -0.2043
16886SOL     OW51235   0.640   9.613   9.664  0.3872 -0.6213 -0.2154
16886SOL    HW151236   0.684   9.622   9.749 -2.2126 -0.8757  1.2745
16886SOL    HW251237   0.613   9.702   9.642 -0.2308 -0.7543 -0.0102
16887SOL     OW51238   5.780   7.772   1.487  0.7789  0.0722  0.3087
16887SOL    HW151239   5.761   7.850   1.434  1.4010  0.3339  0.4652
16887SOL    HW251240   5.843   7.802   1.553  1.0562 -0.5709  0.3467
16888SOL     OW51241   9.744   2.477   3.676  0.1653 -0.0905 -0.2677
16888SOL    HW151242   9.656   2.473   3.638 -0.3746 -0.1393  0.9569
16888SOL    HW251243   9.794   2.413   3.625 -1.0542 -1.6237  0.3912
16889SOL     OW51244   8.588   4.465   7.543 -0.8412 -0.3109  0.3390
16889SOL    HW151245   8.592   4.552   7.503  0.9686 -0.5999 -0.2289
16889SOL    HW251246   8.509   4.425   7.508 -0.8332  0.5282 -0.6690
16890SOL     OW51247   4.587   7.686   4.513  0.0310  1.1783  0.4623
16890SOL    HW151248   4.650   7.662   4.446 -1.2700  2.7279 -1.4225
16890SOL    HW251249   4.532   7.752   4.472 -1.8817  1.0010  2.5344
16891SOL     OW51250   0.556   4.311   1.010 -0.1111 -0.0075 -0.5296
16891SOL    HW151251   0.486   4.259   1.050 -2.3878  2.5236 -0.9145
16891SOL    HW251252   0.599   4.355   1.083 -1.0720  0.8528 -0.4513
16892SOL     OW51253   6.130   5.281   7.035  0.1482 -0.6121  0.4071
16892SOL    HW151254   6.042   5.286   7.071 -0.2208 -0.9950 -0.4168
16892SOL    HW251255   6.118   5.247   6.946  0.9027  1.4981 -0.5581
16893SOL     OW51256   3.560   1.569   2.487  0.3521 -0.1444  0.6551
16893SOL    HW151257   3.614   1.501   2.527  1.2425  0.9657  1.3970
16893SOL    HW251258   3.562   1.641   2.549 -0.2911  0.6958 -0.2692
16894SOL     OW51259   6.033   0.039   9.546  0.3966 -0.4174  0.0823
16894SOL    HW151260   6.079   0.088   9.614 -0.3559  0.3899  0.0293
16894SOL    HW251261   5.949   0.016   9.586  0.3770 -0.8666 -0.2102
16895SOL     OW51262   9.771   6.343   6.649  0.4850 -0.5098 -0.0652
16895SOL    HW151263   9.740   6.361   6.737 -0.3379 -0.9561 -0.2512
16895SOL    HW251264   9.835   6.412   6.631 -0.2538  0.3138  0.4153
16896SOL     OW51265   8.514   7.780   4.091  0.0065 -0.1249 -0.2472
16896SOL    HW151266   8.584   7.720   4.066 -1.2294 -1.9900  0.5298
16896SOL    HW251267   8.513   7.845   4.022  3.0957  0.5577  0.1726
16897SOL     OW51268   2.161   2.738   1.574 -0.2744  0.4589  0.9174
16897SOL    HW151269   2.068   2.717   1.570 -0.4303  1.3086 -0.7147
16897SOL    HW251270   2.196   2.682   1.644 -1.3776 -2.2582 -0.5697
16898SOL     OW51271   4.236   3.597   8.533  0.2912 -0.7224  0.2707
16898SOL    HW151272   4.192   3.579   8.616  2.0997  0.6182  1.5986
16898SOL    HW251273   4.320   3.552   8.540  1.0747  0.6227 -0.2024
16899SOL     OW51274   1.834   1.025   8.525  0.0093  0.4151  0.4555
16899SOL    HW151275   1.764   1.021   8.460  1.3319 -0.7504 -1.0003
16899SOL    HW251276   1.866   1.115   8.521  0.1180  0.3379 -0.5717
16900SOL     OW51277   8.953   1.443   0.999  0.3086 -0.1573  0.0103
16900SOL    HW151278   8.876   1.471   1.049  0.6983  1.3935 -0.2173
16900SOL    HW251279   8.946   1.489   0.916  0.5748 -1.3801 -0.7120
16901SOL     OW51280   5.779   5.991   3.261  0.2378 -0.3117 -0.4152
16901SOL    HW151281   5.807   6.060   3.201  0.1904 -0.2630 -0.3821
16901SOL    HW251282   5.683   5.997   3.261  0.2747  1.0410  1.2209
16902SOL     OW51283   3.797   0.580   3.356 -0.3511 -0.2977 -0.0649
16902SOL    HW151284   3.844   0.623   3.284 -0.3162 -0.1807  0.0282
16902SOL    HW251285   3.727   0.641   3.379 -0.5751 -0.4905 -0.2307
16903SOL     OW51286   2.450   7.924   7.094  0.2005  0.3672  0.3452
16903SOL    HW151287   2.488   7.963   7.172 -1.7085  0.1358  1.4320
16903SOL    HW251288   2.463   7.990   7.026  0.9602  1.0044  1.0813
16904SOL     OW51289   0.177   2.849   8.101  0.2132 -0.3175 -0.0743
16904SOL    HW151290   0.211   2.760   8.089  2.5215  0.5867 -0.8684
16904SOL    HW251291   0.227   2.883   8.175 -2.1870 -0.3335  1.6583
16905SOL     OW51292   1.335   5.865   2.218  0.6578 -0.5907 -0.1698
16905SOL    HW151293   1.415   5.889   2.173 -0.3343 -2.8422 -3.5471
16905SOL    HW251294   1.357   5.785   2.266  0.6596 -0.7675 -0.4601
16906SOL     OW51295   2.115   5.769   5.489 -0.1540  0.4968  0.1006
16906SOL    HW151296   2.020   5.776   5.484 -0.0582  1.9063 -0.0476
16906SOL    HW251297   2.143   5.753   5.399 -0.1453  1.6325 -0.1024
16907SOL     OW51298   1.611   2.999   6.653  0.0995  0.5231  1.1344
16907SOL    HW151299   1.634   2.922   6.705  0.9335  1.4027  2.1154
16907SOL    HW251300   1.621   3.072   6.713 -1.3079  1.3524  0.4018
16908SOL     OW51301   6.750   2.517   5.185 -0.9658 -0.2281  0.3486
16908SOL    HW151302   6.845   2.512   5.173 -0.8932  1.4741  0.0034
16908SOL    HW251303   6.723   2.425   5.193  0.6906 -0.7537  0.4305
16909SOL     OW51304   4.720   6.717   8.818  0.0870 -0.2866 -1.2023
16909SOL    HW151305   4.665   6.751   8.889 -0.2912  0.3713 -1.7998
16909SOL    HW251306   4.749   6.632   8.850 -0.5799 -0.2723 -0.5103
16910SOL     OW51307   1.833   0.089   1.076 -0.3107  0.1636 -0.0840
16910SOL    HW151308   1.837   0.095   1.171  0.6398 -1.5926  0.0343
16910SOL    HW251309   1.830  -0.005   1.058 -2.2782  0.4525 -1.7594
16911SOL     OW51310   6.739   5.876   1.117  0.5304  0.3402 -0.2607
16911SOL    HW151311   6.711   5.904   1.030  0.7728 -1.3661 -0.9222
16911SOL    HW251312   6.687   5.928   1.178 -0.2665  0.9334 -1.4295
16912SOL     OW51313   1.345   0.950   8.075 -0.2721 -0.3859 -0.0285
16912SOL    HW151314   1.339   1.018   8.142  0.9739  0.8970 -1.1561
16912SOL    HW251315   1.365   0.997   7.994 -1.2117 -1.9398 -1.2287
16913SOL     OW51316   8.282   8.136   1.304  0.2715 -0.2730 -0.7743
16913SOL    HW151317   8.368   8.099   1.284 -0.1076  0.0416 -3.2861
16913SOL    HW251318   8.301   8.220   1.347  1.1958 -0.3647 -0.9988
16914SOL     OW51319   4.481   4.303   7.438  0.2897 -0.1347  0.2188
16914SOL    HW151320   4.467   4.259   7.522  1.2359  0.2431  0.5841
16914SOL    HW251321   4.536   4.243   7.388  1.5386  0.5751  0.6979
16915SOL     OW51322   9.072   4.598   8.597 -0.3910 -0.1443  0.4357
16915SOL    HW151323   9.064   4.693   8.604 -1.5822 -0.3500  2.9020
16915SOL    HW251324   9.161   4.579   8.625  0.0835  0.2513 -0.7298
16916SOL     OW51325   1.689   3.955   6.065  0.3627  0.1030 -0.4443
16916SOL    HW151326   1.660   3.872   6.104 -0.7487  0.7941  0.2719
16916SOL    HW251327   1.634   3.965   5.987  0.9520 -0.1319 -0.9018
16917SOL     OW51328   3.274   5.382   7.591  0.3912 -0.1005 -0.3408
16917SOL    HW151329   3.334   5.311   7.571  1.9745  1.5116 -1.6305
16917SOL    HW251330   3.221   5.391   7.512 -1.3876 -1.2677  0.6516
16918SOL     OW51331   0.866   2.281   8.748  0.3141 -0.3213 -0.9086
16918SOL    HW151332   0.826   2.337   8.681 -0.3756 -0.3378 -0.5159
16918SOL    HW251333   0.835   2.193   8.726  0.5638 -0.4091 -0.9105
16919SOL     OW51334   1.696   1.683   2.659  0.1937  0.1999 -0.7134
16919SOL    HW151335   1.701   1.681   2.563 -0.3109 -0.9902 -0.7392
16919SOL    HW251336   1.640   1.758   2.678 -0.0358  0.2116 -1.3796
16920SOL     OW51337   5.499   0.542   9.597 -0.3160 -0.3074  0.2503
16920SOL    HW151338   5.474   0.482   9.667 -0.8700  0.2908  0.5750
16920SOL    HW251339   5.544   0.614   9.642  0.7573 -0.6859 -0.1799
16921SOL     OW51340   8.100   8.130   6.230 -0.3746 -0.2162 -0.4703
16921SOL    HW151341   8.023   8.079   6.255  0.2304 -1.1081 -0.3423
16921SOL    HW251342   8.173   8.067   6.238  0.7309  1.2128  1.8171
16922SOL     OW51343   7.153   7.609   8.741 -0.1298  0.4779 -0.3830
16922SOL    HW151344   7.161   7.553   8.818  0.9883  1.3615  0.1836
16922SOL    HW251345   7.243   7.621   8.710 -0.4857  0.7911 -1.3535
16923SOL     OW51346   5.116   0.578   3.344  0.1238 -0.1434 -0.2659
16923SOL    HW151347   5.176   0.537   3.406  1.2211  1.3123 -0.3154
16923SOL    HW251348   5.030   0.569   3.384  0.9022  1.5137  1.9551
16924SOL     OW51349   9.681   3.541   3.136  0.0790  0.4237  0.3725
16924SOL    HW151350   9.656   3.478   3.068  1.2376  0.5328 -0.1815
16924SOL    HW251351   9.694   3.489   3.214  0.6106  0.0295  0.0234
16925SOL     OW51352   1.965   4.135   8.652  0.0766 -0.7000  0.3380
16925SOL    HW151353   2.046   4.137   8.704  0.6545  2.2931 -0.4697
16925SOL    HW251354   1.995   4.117   8.563 -0.6705 -3.5138  0.5533
16926SOL     OW51355   1.800   0.638   4.208 -0.2719  0.2557  0.2865
16926SOL    HW151356   1.843   0.716   4.243 -2.3680  2.2860 -1.3084
16926SOL    HW251357   1.742   0.609   4.279  2.4412 -1.6798  1.9241
16927SOL     OW51358   9.907   4.462   1.742 -0.8506 -0.3033 -0.6530
16927SOL    HW151359   9.836   4.450   1.679 -1.2335  1.6680 -0.6751
16927SOL    HW251360   9.982   4.416   1.704 -2.0382 -2.2826 -0.7065
16928SOL     OW51361   9.510   7.547   3.819 -0.1749 -0.2977 -0.1702
16928SOL    HW151362   9.565   7.574   3.892  3.0136 -0.3556 -2.3341
16928SOL    HW251363   9.522   7.452   3.812  0.0422 -0.2200 -1.0711
16929SOL     OW51364   4.887   2.821   7.142 -0.2515 -0.4367 -0.0275
16929SOL    HW151365   4.845   2.905   7.162  1.1851  1.0406 -2.6805
16929SOL    HW251366   4.958   2.814   7.205  0.4189  1.0295 -0.5814
16930SOL     OW51367   0.823   7.416   0.192  0.1929 -0.5522  0.2348
16930SOL    HW151368   0.788   7.343   0.243  0.4751 -1.5504 -0.9662
16930SOL    HW251369   0.876   7.375   0.124 -0.0318  0.7544 -0.7606
16931SOL     OW51370   3.692   1.362   2.968  0.5514  0.5641  0.2153
16931SOL    HW151371   3.606   1.402   2.977  0.7248  0.8471  0.6819
16931SOL    HW251372   3.753   1.436   2.972  0.7555  0.5300 -1.5481
16932SOL     OW51373   8.456   4.617   9.449  0.5072 -0.1448 -0.6538
16932SOL    HW151374   8.489   4.705   9.464  1.5624 -0.2248 -2.3397
16932SOL    HW251375   8.362   4.628   9.436  0.7147  0.8039 -1.3923
16933SOL     OW51376   4.207   3.390   0.777 -0.1353  0.1448  0.5875
16933SOL    HW151377   4.181   3.410   0.866  1.2257  3.2421  0.4123
16933SOL    HW251378   4.302   3.380   0.781 -0.2449 -1.5955 -0.2493
16934SOL     OW51379   2.186   4.636   4.770  0.1188 -0.2460  0.2043
16934SOL    HW151380   2.163   4.660   4.860 -0.4355  0.9992 -0.2532
16934SOL    HW251381   2.162   4.712   4.718 -0.0458 -1.1561 -1.0826
16935SOL     OW51382   6.701   7.870   1.040  0.2524  0.2451  0.2770
16935SOL    HW151383   6.655   7.860   1.123  1.4155  0.3130  0.9562
16935SOL    HW251384   6.793   7.854   1.061  0.5299 -0.0868 -1.0719
16936SOL     OW51385   4.774   5.491   5.016  0.2148 -0.6348 -0.0266
16936SOL    HW151386   4.810   5.406   4.992  0.5556  0.0367 -2.1701
16936SOL    HW251387   4.681   5.486   4.994  0.4789 -0.0908 -1.3578
16937SOL     OW51388   3.617   5.525   2.793  0.6516 -0.3672  0.1307
16937SOL    HW151389   3.546   5.462   2.781  0.7689 -0.5243  0.2657
16937SOL    HW251390   3.613   5.548   2.886  1.1685 -0.8403  0.2709
16938SOL     OW51391   7.035   8.964   6.745 -0.0663 -0.1403 -0.5581
16938SOL    HW151392   7.052   8.878   6.784 -1.2511 -0.1904 -0.0956
16938SOL    HW251393   7.119   9.010   6.750 -0.2861  0.1131  2.7569
16939SOL     OW51394   9.841   9.401   3.471 -0.6981 -0.4391  0.5678
16939SOL    HW151395   9.931   9.429   3.451 -0.7806 -0.3936  0.2488
16939SOL    HW251396   9.846   9.367   3.560 -1.1601  3.1491  2.0932
16940SOL     OW51397   4.416   4.217   1.863  0.0955  0.3511  0.2987
16940SOL    HW151398   4.489   4.180   1.813 -0.2890  0.6399 -0.4806
16940SOL    HW251399   4.441   4.308   1.878 -0.9373  0.9958 -1.6289
16941SOL     OW51400   1.987   2.240   8.632 -0.4538  0.1430  0.5969
16941SOL    HW151401   1.995   2.297   8.555 -1.0961  0.4793  0.7713
16941SOL    HW251402   1.931   2.168   8.604  3.6451 -2.8298 -0.9703
16942SOL     OW51403   1.862   4.516   3.921  0.2106 -0.2853  0.1403
16942SOL    HW151404   1.874   4.548   3.831  0.0522  0.1955  0.2883
16942SOL    HW251405   1.937   4.459   3.936  0.2149 -0.4098 -0.3176
16943SOL     OW51406   0.628   9.781   0.498  0.1783 -0.9240 -0.4779
16943SOL    HW151407   0.582   9.846   0.552  0.8112 -0.3105 -0.6546
16943SOL    HW251408   0.650   9.828   0.418 -0.9991 -1.9078 -1.4129
16944SOL     OW51409   8.253   5.503   8.457  0.3182  0.2176  0.2185
16944SOL    HW151410   8.210   5.554   8.526  0.3093  0.8428 -0.2361
16944SOL    HW251411   8.346   5.512   8.475  0.3329  0.7061 -0.0590
16945SOL     OW51412   0.478   6.068   4.549 -0.5877  0.1574  0.0434
16945SOL    HW151413   0.461   6.158   4.578  0.3217  0.0135  1.0593
16945SOL    HW251414   0.556   6.076   4.494 -0.5179 -0.0157  0.1191
16946SOL     OW51415   6.302   8.661   9.709  0.7814 -0.8679  0.3771
16946SOL    HW151416   6.270   8.581   9.668  0.5404 -0.6544  0.1388
16946SOL    HW251417   6.249   8.731   9.669  0.8250 -0.6166  0.7525
16947SOL     OW51418   6.680   2.991   4.531 -0.1634  0.1188  0.4826
16947SOL    HW151419   6.618   3.062   4.514 -1.3444 -0.3968  2.3116
16947SOL    HW251420   6.762   3.035   4.551  0.1765  0.8175 -2.0723
16948SOL     OW51421   7.607   6.510   5.986  0.1174  0.3267 -0.4832
16948SOL    HW151422   7.602   6.469   5.900  0.7751  2.6372 -1.7155
16948SOL    HW251423   7.515   6.522   6.011 -0.0911  0.1037 -1.1070
16949SOL     OW51424   5.274   1.674   2.548 -0.3671 -0.1808  0.2409
16949SOL    HW151425   5.285   1.614   2.622 -0.6825  0.3355  0.7071
16949SOL    HW251426   5.357   1.667   2.499 -0.4973 -1.1813  0.1484
16950SOL     OW51427   5.754   3.731   2.823  0.0302 -0.9476 -0.6674
16950SOL    HW151428   5.750   3.827   2.819  0.8804 -0.9319 -1.4643
16950SOL    HW251429   5.795   3.712   2.907  0.3657 -0.5898 -0.7465
16951SOL     OW51430   4.778   6.179   0.705  0.2263 -0.1883  0.6374
16951SOL    HW151431   4.820   6.146   0.625 -1.1480  1.1971 -0.7430
16951SOL    HW251432   4.774   6.104   0.763  1.1599 -1.2839 -0.6549
16952SOL     OW51433   6.580   6.921   4.472  0.1141 -0.1603  0.4346
16952SOL    HW151434   6.581   6.831   4.503  1.4997 -0.2996  0.0304
16952SOL    HW251435   6.643   6.967   4.528  0.2679  0.2996 -0.1084
16953SOL     OW51436   7.555   3.657   3.900  0.3333 -0.2954 -0.0866
16953SOL    HW151437   7.509   3.647   3.983 -1.0511 -0.9663 -0.8920
16953SOL    HW251438   7.498   3.614   3.836  1.4605  0.0285 -1.3526
16954SOL     OW51439   9.467   3.001   2.791  0.3642  0.0573  0.4454
16954SOL    HW151440   9.545   3.010   2.846  1.9463 -2.3859 -1.2142
16954SOL    HW251441   9.493   3.037   2.707 -0.9083  0.7089  0.3022
16955SOL     OW51442   8.360   2.032   3.552  0.2453 -0.0064  0.3441
16955SOL    HW151443   8.299   2.105   3.559  1.5263  1.3487 -1.6104
16955SOL    HW251444   8.312   1.966   3.501 -0.6304 -0.2665  1.4468
16956SOL     OW51445   1.821   5.835   3.937 -0.3844 -0.4906  0.2149
16956SOL    HW151446   1.726   5.840   3.950 -0.1967 -1.7979  2.8217
16956SOL    HW251447   1.835   5.863   3.846 -2.9407  2.6958  0.5975
16957SOL     OW51448   7.874   1.504   8.124  0.1150  0.4114 -0.0339
16957SOL    HW151449   7.886   1.411   8.106  0.5950  0.1800  1.3342
16957SOL    HW251450   7.799   1.507   8.184  0.6622  0.8177  0.6405
16958SOL     OW51451   5.072   0.906   2.733 -0.4220 -0.6364 -0.6487
16958SOL    HW151452   5.001   0.846   2.758 -1.2066  0.3131 -0.5321
16958SOL    HW251453   5.042   0.992   2.763  1.0240 -0.2871 -0.1162
16959SOL     OW51454   3.594   2.070   7.125  0.1962 -0.1894 -0.2635
16959SOL    HW151455   3.665   2.066   7.060  1.2015 -2.3481  0.8716
16959SOL    HW251456   3.628   2.023   7.201 -2.9209 -2.5236 -0.1179
16960SOL     OW51457   2.148   0.959   2.275  0.4333  0.2508  0.6880
16960SOL    HW151458   2.055   0.983   2.270  0.7875  1.6958  0.6590
16960SOL    HW251459   2.165   0.913   2.193 -0.1119  0.5021  0.4290
16961SOL     OW51460   4.591   3.297   6.403  0.5738  0.6203  0.3407
16961SOL    HW151461   4.502   3.283   6.436 -0.1749  0.7673 -1.4745
16961SOL    HW251462   4.642   3.226   6.440 -0.1026  0.9677  2.0324
16962SOL     OW51463   9.466   3.084   2.537  0.9109 -0.2711  0.2768
16962SOL    HW151464   9.525   3.127   2.476 -0.2048 -0.9429 -1.3372
16962SOL    HW251465   9.378   3.105   2.506  0.3129 -0.9353  1.4304
16963SOL     OW51466   3.804   8.539   7.690 -0.6679  0.5308  0.0550
16963SOL    HW151467   3.753   8.603   7.641 -0.6657 -0.8112 -1.8026
16963SOL    HW251468   3.742   8.466   7.705  0.4307 -0.8428 -1.6729
16964SOL     OW51469   2.943   3.655   4.830 -0.3990  0.3464  0.0717
16964SOL    HW151470   2.869   3.634   4.888 -0.5597 -2.1222 -0.9283
16964SOL    HW251471   3.018   3.664   4.890 -1.0461  0.5129  0.8834
16965SOL     OW51472   5.274   3.575   2.678  0.5073  0.7067  0.5729
16965SOL    HW151473   5.368   3.569   2.666  0.2605  1.1418 -2.7368
16965SOL    HW251474   5.244   3.629   2.604 -2.4113 -0.0107  1.0895
16966SOL     OW51475   1.570   3.377   3.981  0.2313 -0.3451  0.7159
16966SOL    HW151476   1.543   3.319   3.909  0.8984  0.0896  0.1065
16966SOL    HW251477   1.509   3.450   3.977 -0.5588 -0.9460  1.4323
16967SOL     OW51478   6.047   4.423   2.067 -0.1700 -0.0828 -0.7730
16967SOL    HW151479   5.991   4.346   2.078 -1.5038  0.8921 -0.4905
16967SOL    HW251480   6.042   4.443   1.974  0.0545 -0.2284 -0.8192
16968SOL     OW51481   6.039   1.684   1.079  0.3225 -0.1692 -0.1407
16968SOL    HW151482   6.056   1.599   1.039  2.0804  0.2978 -0.4946
16968SOL    HW251483   5.982   1.665   1.153  0.6363 -1.6436 -0.2419
16969SOL     OW51484   6.289   4.092   8.058  0.8604  0.1026  0.2801
16969SOL    HW151485   6.325   4.074   7.971  0.8915 -1.6683  0.6171
16969SOL    HW251486   6.358   4.067   8.118  0.3204 -0.0489  0.8481
16970SOL     OW51487   0.514   5.002   2.508 -0.2246  0.5492 -0.3633
16970SOL    HW151488   0.589   5.012   2.450 -0.2235 -1.0739 -0.6870
16970SOL    HW251489   0.439   5.033   2.456 -0.2181 -0.8606 -1.2462
16971SOL     OW51490   1.390   4.641   0.113  0.0495 -0.0855 -0.2470
16971SOL    HW151491   1.412   4.587   0.037  1.4430  1.5590 -1.0714
16971SOL    HW251492   1.474   4.663   0.153 -0.2917  2.5679 -0.7785
16972SOL     OW51493   6.361   9.473   7.841  0.3291 -0.6492  0.2399
16972SOL    HW151494   6.384   9.546   7.784  1.0623 -0.9070  0.2017
16972SOL    HW251495   6.291   9.427   7.793  0.1482 -0.2144  0.0814
16973SOL     OW51496   9.877   7.241   7.089  0.7863 -0.2107  0.2660
16973SOL    HW151497   9.891   7.179   7.160  0.9194  1.3512  1.6788
16973SOL    HW251498   9.864   7.325   7.133 -0.7728  0.5504 -1.4988
16974SOL     OW51499   6.835   8.265   5.256 -0.1375  0.0784 -0.4511
16974SOL    HW151500   6.743   8.252   5.279 -0.5422  1.6780 -1.0293
16974SOL    HW251501   6.834   8.283   5.162  1.1529 -3.1816 -1.2085
16975SOL     OW51502   4.344   7.165   7.893  0.1382  0.3905 -0.2056
16975SOL    HW151503   4.430   7.208   7.885  1.0858 -1.1754  0.9519
16975SOL    HW251504   4.356   7.080   7.851 -0.8727  0.1622 -0.0529
16976SOL     OW51505   4.823   7.399   7.464  0.0025  0.1678 -0.3875
16976SOL    HW151506   4.880   7.365   7.533  1.1016  0.0153 -1.3483
16976SOL    HW251507   4.873   7.471   7.425 -0.5823  0.2225 -1.0533
16977SOL     OW51508   6.397   7.958   6.824 -0.3916  0.0221  0.5442
16977SOL    HW151509   6.483   7.935   6.789 -0.4566  0.1338  0.3112
16977SOL    HW251510   6.410   8.042   6.868 -0.0642 -0.6230  1.7381
16978SOL     OW51511   0.991   2.988   3.325 -0.0512  0.2403 -0.2582
16978SOL    HW151512   0.961   2.951   3.408  0.2613 -0.6215 -0.5146
16978SOL    HW251513   0.925   2.960   3.261 -0.0581  0.5246 -0.3750
16979SOL     OW51514   0.724   2.425   9.436  0.3338  0.2012  0.5792
16979SOL    HW151515   0.773   2.406   9.516  0.8656  0.1064  0.2411
16979SOL    HW251516   0.766   2.504   9.401  0.9422 -0.4752 -0.2616
16980SOL     OW51517   0.749   4.848   0.346  0.2265 -0.0907  0.2528
16980SOL    HW151518   0.827   4.858   0.401  0.8860  0.6866 -0.7778
16980SOL    HW251519   0.726   4.938   0.320 -0.4475 -0.3895 -0.2225
16981SOL     OW51520   6.368   3.825   6.065 -0.1938 -0.1550 -0.1600
16981SOL    HW151521   6.362   3.803   6.158 -0.4026  0.1010 -0.1120
16981SOL    HW251522   6.280   3.812   6.032 -0.0901 -0.3679 -0.3496
16982SOL     OW51523   8.128   2.349   8.479 -0.2477 -0.4781 -0.1962
16982SOL    HW151524   8.117   2.405   8.556 -0.2281 -2.1184  1.0819
16982SOL    HW251525   8.067   2.276   8.495  0.8196 -1.5827 -1.0034
16983SOL     OW51526   1.950   6.890   6.979  0.1757 -0.8146  0.0568
16983SOL    HW151527   1.893   6.934   6.916 -0.0717  0.6206  1.2186
16983SOL    HW251528   2.026   6.862   6.928 -0.0859  0.1799 -0.9126
16984SOL     OW51529   2.518   1.234   0.940  0.1088 -0.0283  0.1528
16984SOL    HW151530   2.475   1.149   0.936 -0.3594  0.2186 -0.2880
16984SOL    HW251531   2.516   1.266   0.850  1.8372 -0.2926 -0.0128
16985SOL     OW51532   4.757   6.647   1.339 -0.1054 -0.2485  0.5710
16985SOL    HW151533   4.848   6.675   1.347  0.1036 -0.9640  0.7526
16985SOL    HW251534   4.744   6.632   1.246  0.3941 -1.5344  0.6912
16986SOL     OW51535   1.249   2.248   0.323 -0.4593  0.4829  0.2307
16986SOL    HW151536   1.303   2.276   0.397  0.3283  2.4106 -0.9982
16986SOL    HW251537   1.311   2.210   0.261 -1.0748 -0.8464  0.3944
16987SOL     OW51538   3.114   4.638   7.728 -0.0747 -0.3366  0.0990
16987SOL    HW151539   3.133   4.726   7.760  1.6022 -1.1400  1.5025
16987SOL    HW251540   3.033   4.648   7.678  0.9040  2.2931 -1.1782
16988SOL     OW51541   1.000   3.905   7.675 -0.5756 -0.3470  0.5150
16988SOL    HW151542   0.953   3.940   7.750 -2.2099  0.4821 -0.8059
16988SOL    HW251543   0.932   3.886   7.610  0.8092 -0.1626 -1.0900
16989SOL     OW51544   7.105   6.338   9.921  0.4270 -0.2389 -0.3232
16989SOL    HW151545   7.119   6.363  10.012 -1.2509 -2.7012  0.7295
16989SOL    HW251546   7.192   6.341   9.882  1.0656  1.7005  1.0796
16990SOL     OW51547   1.237   8.350   4.851 -0.1158 -0.8117  0.1313
16990SOL    HW151548   1.153   8.388   4.824 -0.3718 -0.7012  1.0468
16990SOL    HW251549   1.303   8.405   4.810 -0.4853 -0.4611 -0.0019
16991SOL     OW51550   0.983   8.581   0.555  0.6837 -0.9728  0.1169
16991SOL    HW151551   0.960   8.498   0.513  2.8486 -2.8434  2.3436
16991SOL    HW251552   0.924   8.587   0.631 -0.3765  0.2916 -0.7509
16992SOL     OW51553   0.925   7.435   5.179 -0.4987  0.2280  0.2029
16992SOL    HW151554   0.989   7.504   5.197 -1.4463  1.1964 -0.0095
16992SOL    HW251555   0.915   7.436   5.084 -1.9021  1.1458  0.3182
16993SOL     OW51556   3.344   9.953   9.657  1.0100 -0.3483 -0.1543
16993SOL    HW151557   3.302   9.929   9.739 -0.1064  0.7177 -0.3849
16993SOL    HW251558   3.342   9.874   9.603 -1.5338 -0.1361 -0.4826
16994SOL     OW51559   5.972   9.149   8.245  0.2097  0.1304  0.3024
16994SOL    HW151560   5.973   9.054   8.255  0.4246 -0.1256 -1.8425
16994SOL    HW251561   6.060   9.177   8.269  0.3243 -0.2802  0.3543
16995SOL     OW51562   0.697   2.189   5.820  0.4843 -0.2631  0.3888
16995SOL    HW151563   0.709   2.205   5.727 -2.0583 -1.2955 -0.2004
16995SOL    HW251564   0.739   2.264   5.863  1.5578  0.3113 -1.5597
16996SOL     OW51565   9.817   6.748   4.196 -0.0724  0.3297 -0.2276
16996SOL    HW151566   9.771   6.690   4.258 -1.9248  1.7664 -0.1639
16996SOL    HW251567   9.872   6.803   4.252 -0.6950  0.7004  0.0350
16997SOL     OW51568   4.998   5.433   0.102  0.2161 -0.0565 -0.0425
16997SOL    HW151569   5.086   5.397   0.108  0.3480  0.2438 -0.1616
16997SOL    HW251570   4.940   5.357   0.112  0.4811 -0.2020  0.4203
16998SOL     OW51571   2.034   3.417   4.168 -0.1737 -0.1216  0.0482
16998SOL    HW151572   1.954   3.429   4.117 -0.9149 -0.9930  0.9615
16998SOL    HW251573   2.062   3.506   4.191 -1.7771  0.1613  1.0460
16999SOL     OW51574   2.271   7.834   0.300 -0.0399  0.2167 -0.4683
16999SOL    HW151575   2.207   7.895   0.263  1.0444  0.9221 -1.2349
16999SOL    HW251576   2.307   7.879   0.376  1.5493  1.0406 -1.6630
17000SOL     OW51577   9.763   1.645   1.936 -0.3182 -0.5737 -0.5403
17000SOL    HW151578   9.731   1.730   1.907  0.5236 -0.8436 -2.4492
17000SOL    HW251579   9.730   1.635   2.025 -0.5361  1.6802 -0.3254
17001SOL     OW51580   2.418   0.624   0.679 -0.0084  0.2580  1.2962
17001SOL    HW151581   2.470   0.571   0.739 -0.3568 -0.1902  1.2112
17001SOL    HW251582   2.380   0.560   0.618  0.1265  0.6781  0.7630
17002SOL     OW51583   5.452   6.706   1.799 -0.0801 -0.1415 -0.1381
17002SOL    HW151584   5.466   6.687   1.892 -1.7321 -1.6874 -0.1474
17002SOL    HW251585   5.358   6.725   1.793  0.5039  2.8858 -1.0662
17003SOL     OW51586   2.689   4.055   8.980 -0.4676 -0.3915 -0.2474
17003SOL    HW151587   2.738   4.107   8.916  1.3494 -1.9777 -0.2441
17003SOL    HW251588   2.598   4.067   8.956  0.0198  1.2030 -1.4451
17004SOL     OW51589   0.227   4.058   9.201  0.3053 -0.1379  0.0507
17004SOL    HW151590   0.242   3.996   9.129 -2.1062 -0.7278 -0.0302
17004SOL    HW251591   0.137   4.088   9.189 -0.0098  0.1512  2.5254
17005SOL     OW51592   3.402   5.118   1.380 -1.2186 -0.2175  0.1169
17005SOL    HW151593   3.310   5.093   1.372 -1.3644  0.6558 -1.6402
17005SOL    HW251594   3.446   5.039   1.410 -2.6181 -0.4694  1.6143
17006SOL     OW51595   6.588   5.359   5.170 -0.1853  0.0188  0.0887
17006SOL    HW151596   6.571   5.430   5.232  0.8420  0.5746 -0.2439
17006SOL    HW251597   6.521   5.293   5.190 -0.0623  0.3051  1.5976
17007SOL     OW51598   6.916   2.092   7.825  0.0756  0.0005 -0.1742
17007SOL    HW151599   6.961   2.008   7.819 -1.2320 -0.8743  1.5160
17007SOL    HW251600   6.913   2.124   7.735  1.3677 -1.3331 -0.7286
17008SOL     OW51601   9.197   3.356   1.103  0.4860 -0.8469 -0.9039
17008SOL    HW151602   9.180   3.441   1.062 -0.3440 -0.9837 -0.8566
17008SOL    HW251603   9.116   3.307   1.091  0.1399 -0.8302  1.0402
17009SOL     OW51604   2.837   8.764   3.766  0.0014 -0.2470 -0.0021
17009SOL    HW151605   2.886   8.697   3.717 -1.2790  0.5032 -2.4734
17009SOL    HW251606   2.809   8.719   3.846  0.1015 -2.3596 -1.0729
17010SOL     OW51607   4.370   7.489   1.558  0.0923 -0.0841 -0.1776
17010SOL    HW151608   4.310   7.431   1.604 -1.3238 -0.2742 -2.1082
17010SOL    HW251609   4.366   7.460   1.467  2.6745  0.3165 -0.4948
17011SOL     OW51610   9.280   8.257   8.071  0.0061  0.4752 -0.0171
17011SOL    HW151611   9.186   8.254   8.090 -0.1652  1.4557 -0.6377
17011SOL    HW251612   9.286   8.246   7.976  0.4384  1.5230 -0.1198
17012SOL     OW51613   7.659   2.561   7.751  0.8871  0.3661 -0.5970
17012SOL    HW151614   7.612   2.632   7.795 -1.3325 -0.4589 -1.4828
17012SOL    HW251615   7.737   2.602   7.716 -0.9765  2.7711 -2.2623
17013SOL     OW51616   5.084   0.660   8.079  0.6570  0.3126  0.0685
17013SOL    HW151617   5.026   0.603   8.129  2.4898 -2.6575 -0.8842
17013SOL    HW251618   5.040   0.672   7.995  0.2210  0.3355  0.2997
17014SOL     OW51619   7.969   6.170   7.085 -0.0786  0.5594  0.6516
17014SOL    HW151620   7.970   6.209   7.173 -0.7930  1.0799  0.4387
17014SOL    HW251621   7.898   6.106   7.088  0.7215 -0.3284  0.8269
17015SOL     OW51622   1.965   1.019   4.539 -0.3061  0.0700 -0.3814
17015SOL    HW151623   1.959   1.081   4.612  0.2779 -0.2434 -0.0625
17015SOL    HW251624   1.998   0.938   4.578  1.0386  0.2045 -1.1544
17016SOL     OW51625   5.508   6.678   2.584 -0.5623  0.0171  0.2615
17016SOL    HW151626   5.474   6.643   2.666  2.0055 -3.1099  0.2140
17016SOL    HW251627   5.597   6.708   2.606  0.1835 -0.9006 -1.3051
17017SOL     OW51628   8.016   6.857   6.449 -0.5169  0.1341  0.4059
17017SOL    HW151629   7.929   6.831   6.420 -0.3669 -0.9318  0.8513
17017SOL    HW251630   8.006   6.876   6.543 -0.0880 -0.9617  0.6871
17018SOL     OW51631   9.461   9.581   7.160  0.4113 -0.2191 -0.0633
17018SOL    HW151632   9.402   9.510   7.186 -1.1212  1.9577  3.0832
17018SOL    HW251633   9.402   9.652   7.134  1.7859  0.7312 -0.6948
17019SOL     OW51634   6.681   0.647   4.801  0.3200 -0.1999  0.1643
17019SOL    HW151635   6.607   0.653   4.862  0.4501  1.3722  0.2270
17019SOL    HW251636   6.755   0.684   4.851  0.2209  2.0275 -1.1874
17020SOL     OW51637   2.876   2.867   4.108 -0.0332  1.2032 -0.0321
17020SOL    HW151638   2.965   2.903   4.111  0.0246  1.0648 -0.0590
17020SOL    HW251639   2.838   2.903   4.028 -0.3671  2.1044  0.5122
17021SOL     OW51640   3.439   4.968   5.702 -0.0172  0.0855 -0.3456
17021SOL    HW151641   3.533   4.966   5.719  0.0191 -1.6147 -0.5775
17021SOL    HW251642   3.401   5.002   5.783  0.6653 -0.9464  0.4269
17022SOL     OW51643   4.621   0.947   4.834 -0.7119 -0.0909  0.1290
17022SOL    HW151644   4.664   1.030   4.854 -0.9503 -0.5910  3.0513
17022SOL    HW251645   4.527   0.966   4.839 -0.7719 -0.4097  0.2406
17023SOL     OW51646   9.794   9.312   8.877 -0.7043  0.6731  0.3041
17023SOL    HW151647   9.803   9.224   8.914 -0.5874  1.4951  2.3656
17023SOL    HW251648   9.874   9.326   8.827  0.1917  0.3335  1.6098
17024SOL     OW51649   1.894   0.187   6.396 -0.1993  0.0035  1.0127
17024SOL    HW151650   1.984   0.219   6.393 -0.1713  0.2832  3.3346
17024SOL    HW251651   1.867   0.199   6.487 -2.1369 -1.3443  0.6758
17025SOL     OW51652   7.250   6.081   5.199 -0.4147  1.2764  0.5901
17025SOL    HW151653   7.163   6.045   5.210 -0.8927  1.5429 -1.8080
17025SOL    HW251654   7.236   6.170   5.166  0.7593  1.4913  0.6071
17026SOL     OW51655   0.568   0.923   8.241 -0.3882 -0.7347  0.7595
17026SOL    HW151656   0.511   0.967   8.179 -1.7020 -0.6507  1.9595
17026SOL    HW251657   0.643   0.981   8.251 -1.0699  0.1814  0.6733
17027SOL     OW51658   0.293   7.836   2.785  0.0594  0.3611 -0.3717
17027SOL    HW151659   0.201   7.861   2.777  0.1027  0.1813 -1.5107
17027SOL    HW251660   0.295   7.777   2.860 -0.6115  1.0137  0.1787
17028SOL     OW51661   7.557   1.671   3.574  0.4716  0.2746 -0.4906
17028SOL    HW151662   7.506   1.591   3.587 -1.0102  1.2897  0.2839
17028SOL    HW251663   7.515   1.735   3.632  2.1650  1.3814 -0.4428
17029SOL     OW51664   2.281   8.023   9.198 -0.3564  0.2346 -0.6053
17029SOL    HW151665   2.352   8.087   9.207 -0.9868  0.7570  1.0052
17029SOL    HW251666   2.214   8.053   9.259  0.0678 -2.9486  1.6680
17030SOL     OW51667   0.290   8.448   8.682 -0.0287  0.2128 -0.8030
17030SOL    HW151668   0.372   8.413   8.647 -0.4619 -1.2947 -0.3924
17030SOL    HW251669   0.237   8.371   8.701 -0.8288  1.0739  0.6840
17031SOL     OW51670   6.618   9.502   4.412 -0.2227  0.0538 -0.2904
17031SOL    HW151671   6.576   9.586   4.434 -0.1987 -0.4313  1.8118
17031SOL    HW251672   6.546   9.439   4.416 -0.2079 -0.0885 -1.7125
17032SOL     OW51673   3.351   5.218   3.745  0.7990  0.3060 -0.0334
17032SOL    HW151674   3.381   5.141   3.793 -0.9899 -0.1501  0.4451
17032SOL    HW251675   3.426   5.245   3.691  2.0634 -0.6122  1.2200
17033SOL     OW51676   8.431   9.786   3.649  0.1688  0.1671 -0.1408
17033SOL    HW151677   8.350   9.735   3.642  0.0667  0.5249 -2.1575
17033SOL    HW251678   8.498   9.721   3.672 -0.4113 -0.3957  0.0066
17034SOL     OW51679   1.159   8.094   3.547 -0.2794  0.0624  0.4889
17034SOL    HW151680   1.148   8.184   3.578  0.1943  0.8606 -1.4749
17034SOL    HW251681   1.141   8.099   3.453 -0.3202 -1.9291  0.3480
17035SOL     OW51682   8.709   2.536   4.597  0.0876  0.2619  0.2268
17035SOL    HW151683   8.660   2.506   4.674  0.4805 -1.2621 -0.0764
17035SOL    HW251684   8.773   2.597   4.632  0.2805 -0.4258  1.1343
17036SOL     OW51685   2.459   7.704   0.699 -0.1735  0.0838  0.3710
17036SOL    HW151686   2.366   7.703   0.723  0.3052  0.7574  2.4580
17036SOL    HW251687   2.486   7.795   0.711  0.8318 -0.1511  0.0320
17037SOL     OW51688   2.396   6.477   0.303 -0.6252 -0.4818  0.8142
17037SOL    HW151689   2.358   6.430   0.228  1.0432  0.1737 -0.4961
17037SOL    HW251690   2.484   6.441   0.311  0.3110  1.6205  0.4604
17038SOL     OW51691   8.065   7.232   6.541 -0.2807  0.0609  0.2090
17038SOL    HW151692   8.017   7.209   6.461 -0.3903 -0.0616  0.3075
17038SOL    HW251693   8.072   7.327   6.539 -1.7286  0.2084  0.8655
17039SOL     OW51694   4.227   1.218   8.881 -0.5604  0.2458  0.9120
17039SOL    HW151695   4.240   1.269   8.961 -1.0364  0.1859  1.0265
17039SOL    HW251696   4.299   1.246   8.824 -0.0857  0.1153  1.4433
17040SOL     OW51697   5.500   6.589   7.820 -0.2633  0.0458 -0.4850
17040SOL    HW151698   5.422   6.564   7.770  1.6664 -2.2490 -2.6084
17040SOL    HW251699   5.553   6.638   7.759 -0.1945  2.0981  1.1211
17041SOL     OW51700   8.379   5.675   2.686 -0.0921 -0.0552 -0.2134
17041SOL    HW151701   8.313   5.612   2.715 -0.0514 -0.4129 -0.8896
17041SOL    HW251702   8.332   5.758   2.678 -0.5582 -0.3947 -1.0933
17042SOL     OW51703   4.870   8.149   8.109  0.0531 -0.1112  0.1243
17042SOL    HW151704   4.957   8.172   8.142  0.6788  0.8727 -2.0131
17042SOL    HW251705   4.829   8.234   8.089 -0.1406 -0.6179 -1.8362
17043SOL     OW51706   4.911   2.549   4.734 -0.3748  0.6843 -0.3119
17043SOL    HW151707   4.933   2.597   4.814 -0.0678  0.4581 -0.2570
17043SOL    HW251708   4.874   2.615   4.675 -2.5836  0.4733  0.7762
17044SOL     OW51709   5.659   9.538   7.408  0.0978 -0.5901  0.6499
17044SOL    HW151710   5.747   9.516   7.439 -0.6769 -1.8307  2.1245
17044SOL    HW251711   5.617   9.581   7.482 -0.1151  1.2937 -0.5119
17045SOL     OW51712   5.995   8.432   3.132 -0.1625 -0.6040  0.4095
17045SOL    HW151713   5.994   8.346   3.175  1.4567 -1.2855 -0.8331
17045SOL    HW251714   6.086   8.461   3.139 -0.7998  1.3380  1.3489
17046SOL     OW51715   7.083   7.345   1.080 -0.2096  0.0021  0.1018
17046SOL    HW151716   7.082   7.289   1.158  1.0578 -0.9916 -0.5481
17046SOL    HW251717   7.157   7.404   1.094 -0.0735 -0.0765 -0.2682
17047SOL     OW51718   7.914   7.100   6.349 -0.3975  0.1345 -0.5484
17047SOL    HW151719   7.943   7.009   6.358  0.4627  0.4809  0.2318
17047SOL    HW251720   7.827   7.101   6.390  0.7381  0.2463  2.0485
17048SOL     OW51721   8.486   4.702   4.485  0.2323  0.5360 -0.0238
17048SOL    HW151722   8.500   4.646   4.561 -0.6229 -0.3649 -0.5063
17048SOL    HW251723   8.439   4.777   4.519  0.1563  0.3022  0.3944
17049SOL     OW51724   6.386   5.675   9.037  0.2383  0.1837 -0.4776
17049SOL    HW151725   6.403   5.753   8.983  0.6381  2.0404  2.1323
17049SOL    HW251726   6.378   5.709   9.126 -2.6744 -2.4176  0.4258
17050SOL     OW51727   8.032   9.594   9.904  0.1255  0.8450  0.6181
17050SOL    HW151728   8.057   9.528   9.840  2.3632  1.1869  1.0409
17050SOL    HW251729   7.991   9.663   9.853  1.6338  0.9957 -0.4732
17051SOL     OW51730   4.358   1.530   3.985 -0.1933  0.5956  0.0354
17051SOL    HW151731   4.302   1.535   3.907  0.4057  0.2364 -0.4279
17051SOL    HW251732   4.297   1.521   4.058 -0.8018  1.7933 -0.3037
17052SOL     OW51733   6.624   5.167   0.476 -0.3569 -0.4496  0.4264
17052SOL    HW151734   6.657   5.096   0.531 -1.1915 -0.7024  0.6176
17052SOL    HW251735   6.692   5.180   0.410  0.9004  0.2088  1.7963
17053SOL     OW51736   9.117   9.798   9.426 -0.3002 -0.1223  0.2627
17053SOL    HW151737   9.124   9.878   9.478  0.0900  1.8217 -2.5735
17053SOL    HW251738   9.025   9.772   9.434 -0.8578  1.6110 -0.0799
17054SOL     OW51739   2.523   4.660   9.474 -0.5042 -0.1611  0.5482
17054SOL    HW151740   2.505   4.643   9.567  0.0962 -1.6456  0.4244
17054SOL    HW251741   2.453   4.719   9.446 -0.5220  0.5597  2.0174
17055SOL     OW51742   9.793   5.356   7.992 -0.2781 -0.4877  0.4293
17055SOL    HW151743   9.794   5.390   7.902  0.0248  0.0913  0.6467
17055SOL    HW251744   9.855   5.283   7.991  1.8791  1.2302  0.8039
17056SOL     OW51745   5.820   5.723   8.341  0.4065  0.2251 -0.1167
17056SOL    HW151746   5.866   5.803   8.364  0.6419 -0.1942  0.9160
17056SOL    HW251747   5.888   5.657   8.333  0.3373  0.3223 -2.0383
17057SOL     OW51748   5.656   7.940   7.974 -0.1313  0.6139 -0.2072
17057SOL    HW151749   5.601   7.872   8.013  0.5593  0.8202  1.1806
17057SOL    HW251750   5.734   7.942   8.029  1.5479 -0.0324 -2.4311
17058SOL     OW51751   8.095   7.142   6.796 -0.0178 -0.0385  0.4779
17058SOL    HW151752   8.047   7.179   6.721 -1.4332  1.7052  2.1241
17058SOL    HW251753   8.177   7.190   6.798  0.1554 -0.3012 -0.1134
17059SOL     OW51754   3.749   9.146   0.634 -0.3790 -0.9263 -0.6407
17059SOL    HW151755   3.664   9.186   0.615 -0.1736 -0.1163  0.1181
17059SOL    HW251756   3.799   9.214   0.679 -0.1092 -2.0798  0.8992
17060SOL     OW51757   4.983   2.207   4.182  0.1562  0.0202 -0.0179
17060SOL    HW151758   4.972   2.302   4.176 -0.3642 -0.1152 -1.4816
17060SOL    HW251759   5.054   2.187   4.121  1.9589 -0.3003  2.0351
17061SOL     OW51760   3.996   6.761   0.789 -0.1768 -1.2391  0.2628
17061SOL    HW151761   3.947   6.690   0.832 -1.0643 -1.0507 -0.4050
17061SOL    HW251762   3.997   6.831   0.854  0.1324 -1.6163  0.6770
17062SOL     OW51763   0.999   7.529   0.875  0.1022  0.6419 -0.5051
17062SOL    HW151764   1.080   7.580   0.867  2.0532 -2.2698 -0.6231
17062SOL    HW251765   0.970   7.516   0.784  2.2517 -2.2196 -0.9259
17063SOL     OW51766   4.398   6.927   7.712  0.1517 -0.1421  0.1553
17063SOL    HW151767   4.392   6.955   7.621  2.1470 -0.2578 -0.0421
17063SOL    HW251768   4.372   6.834   7.710 -0.6620  0.0762 -0.1229
17064SOL     OW51769   9.685   0.250   3.759  0.4506 -0.3315  0.3645
17064SOL    HW151770   9.648   0.335   3.735 -0.7366 -1.0929 -0.6081
17064SOL    HW251771   9.771   0.249   3.718 -0.0992 -0.1420 -0.8558
17065SOL     OW51772   4.767   6.400   7.021 -0.7583  0.9414  0.0480
17065SOL    HW151773   4.776   6.439   7.108  1.8005 -2.5944  1.5921
17065SOL    HW251774   4.684   6.353   7.025 -0.0044 -0.3673  1.1953
17066SOL     OW51775   3.669   7.172   1.189 -0.2539 -0.7837 -0.4506
17066SOL    HW151776   3.682   7.165   1.094 -1.1051 -0.0807 -0.6316
17066SOL    HW251777   3.585   7.129   1.205 -1.4692  1.4517 -0.4292
17067SOL     OW51778   9.529   4.669   2.040 -0.3797  0.2624 -0.3839
17067SOL    HW151779   9.560   4.583   2.013  0.8022  0.0773  1.4411
17067SOL    HW251780   9.438   4.672   2.008  0.1495 -0.8375 -2.1829
17068SOL     OW51781   9.479   6.891   8.226 -0.0244  0.3436  0.5338
17068SOL    HW151782   9.480   6.972   8.276  0.3600  0.9349 -0.3989
17068SOL    HW251783   9.553   6.841   8.260 -0.4529  0.2417  1.3303
17069SOL     OW51784   5.002   3.792   4.762  0.0705  0.0733  0.1120
17069SOL    HW151785   5.022   3.862   4.700  1.2965 -0.0783  0.3081
17069SOL    HW251786   5.039   3.823   4.845  0.9663 -0.9571  0.1143
17070SOL     OW51787   4.681   8.354   4.698 -0.2299  0.0871 -0.2060
17070SOL    HW151788   4.710   8.445   4.691 -0.7668  0.2208 -0.7810
17070SOL    HW251789   4.595   8.353   4.657 -1.0906 -0.2813  1.5515
17071SOL     OW51790   2.158   6.832   6.802  0.2398 -0.2959  0.3320
17071SOL    HW151791   2.119   6.745   6.802  0.0756 -0.2507  1.8649
17071SOL    HW251792   2.156   6.859   6.711  0.0188 -1.7735 -0.1270
17072SOL     OW51793   9.010   8.585   1.073 -0.0206  0.4708 -0.2378
17072SOL    HW151794   9.029   8.544   0.989  0.6317  0.4390 -0.0818
17072SOL    HW251795   9.091   8.576   1.123 -0.3866  0.5402  0.3745
17073SOL     OW51796   4.486   7.164   7.322  0.4512 -0.4681  0.3912
17073SOL    HW151797   4.575   7.192   7.342  0.9821  0.0019 -2.2177
17073SOL    HW251798   4.431   7.233   7.359  1.4111  0.9533 -0.6869
17074SOL     OW51799   7.712   1.684   1.152  0.2461  0.2150 -0.2845
17074SOL    HW151800   7.764   1.729   1.219  1.4872 -1.2257 -0.2244
17074SOL    HW251801   7.734   1.592   1.163 -1.9364 -0.3965 -0.6591
17075SOL     OW51802   2.415   2.578   3.545 -0.1652  0.6991  0.0662
17075SOL    HW151803   2.371   2.647   3.496  0.0966 -0.2855 -1.6526
17075SOL    HW251804   2.351   2.507   3.549 -0.0594  0.6365  0.8905
17076SOL     OW51805   6.680   5.378   8.420 -0.4373 -0.0391 -0.5746
17076SOL    HW151806   6.701   5.307   8.481  0.2502 -0.4573 -1.2838
17076SOL    HW251807   6.692   5.339   8.333 -0.2021  0.9102 -0.9765
17077SOL     OW51808   6.359   0.322   2.013 -0.0088 -0.0192 -0.3091
17077SOL    HW151809   6.369   0.240   2.061 -0.7134  0.0560 -0.0202
17077SOL    HW251810   6.306   0.378   2.071 -3.2301 -0.8500 -2.2005
17078SOL     OW51811   8.802   5.718   9.167 -0.3672  0.1218 -0.2699
17078SOL    HW151812   8.780   5.700   9.076 -1.9892  1.7826 -0.2528
17078SOL    HW251813   8.755   5.798   9.188 -2.0148 -1.4571  2.7334
17079SOL     OW51814   9.649   0.861   8.309  0.3046  0.5167  0.2107
17079SOL    HW151815   9.632   0.767   8.308  1.2212  0.3115 -1.8634
17079SOL    HW251816   9.565   0.902   8.291  0.2111 -0.0124 -0.6033
17080SOL     OW51817   5.566   1.971   0.362  0.0122  0.0287  0.6109
17080SOL    HW151818   5.604   2.051   0.399  0.5149 -0.6496  1.5989
17080SOL    HW251819   5.473   1.990   0.355  0.0874  0.6154  1.0653
17081SOL     OW51820   9.266   8.443   2.691  0.3151 -0.2378 -0.1973
17081SOL    HW151821   9.282   8.537   2.698  1.2578 -0.4007  0.0125
17081SOL    HW251822   9.179   8.430   2.727 -0.3738  0.7255 -1.4203
17082SOL     OW51823   0.098   0.719   6.252  0.4951 -0.0113  0.4335
17082SOL    HW151824   0.029   0.785   6.246 -0.2683 -0.7747  0.6357
17082SOL    HW251825   0.057   0.645   6.297  1.2274 -0.7552 -0.0857
17083SOL     OW51826   8.570   8.724   6.122 -0.7237 -0.1857  0.0828
17083SOL    HW151827   8.558   8.669   6.044  0.3331  0.0787 -0.2861
17083SOL    HW251828   8.635   8.678   6.174 -1.0497 -0.1012  0.5703
17084SOL     OW51829   4.811   6.862   8.584 -0.0291 -0.1211  0.1056
17084SOL    HW151830   4.798   6.811   8.664 -1.5470 -0.7037 -0.4908
17084SOL    HW251831   4.753   6.822   8.520  0.4239  0.9662 -1.0210
17085SOL     OW51832   8.312   2.997   6.846  0.3463 -0.4276 -0.4208
17085SOL    HW151833   8.407   2.990   6.855  0.5683 -1.6881 -2.9342
17085SOL    HW251834   8.277   2.935   6.911  1.1430  0.7011  1.1476
17086SOL     OW51835   9.371   7.435   8.799 -0.1421  0.4488 -0.0801
17086SOL    HW151836   9.458   7.452   8.761 -0.2353 -0.1531 -0.5826
17086SOL    HW251837   9.334   7.521   8.813  0.2412  0.6988 -0.5661
17087SOL     OW51838   2.934   0.221   0.941 -0.0483  0.4238  0.3055
17087SOL    HW151839   2.905   0.266   1.020 -1.5808  1.2030 -0.6454
17087SOL    HW251840   2.997   0.156   0.972 -0.9235  0.4074  2.2018
17088SOL     OW51841   6.114   1.485   7.469  0.4497 -0.1580  0.2196
17088SOL    HW151842   6.058   1.441   7.406  0.8822  1.4080 -1.3614
17088SOL    HW251843   6.067   1.565   7.492  1.5467  0.6730 -0.3429
17089SOL     OW51844   6.038   1.442   4.286 -0.3191 -0.3938 -0.4550
17089SOL    HW151845   6.133   1.442   4.295 -0.4092 -2.1297  1.1854
17089SOL    HW251846   6.005   1.455   4.375 -1.7068  2.5994 -1.2924
17090SOL     OW51847   1.305   2.686   8.373 -0.1996 -0.2762 -0.6595
17090SOL    HW151848   1.220   2.646   8.355 -0.3664  0.5397 -1.8300
17090SOL    HW251849   1.356   2.671   8.294  0.5980 -0.3481 -0.1481
17091SOL     OW51850   8.026   1.268   9.961  0.5565 -0.1100 -0.3527
17091SOL    HW151851   8.110   1.297   9.927 -0.2635  0.2136 -2.2383
17091SOL    HW251852   8.036   1.174   9.972  0.9889 -0.1757 -1.1763
17092SOL     OW51853   2.677   6.084   0.386 -0.0424  0.4167  0.4746
17092SOL    HW151854   2.594   6.043   0.411  0.2599 -0.4086  0.1404
17092SOL    HW251855   2.738   6.012   0.374  0.5561  0.9709  0.0684
17093SOL     OW51856   7.747   8.972   6.325  0.2095 -0.0166  0.0686
17093SOL    HW151857   7.765   8.893   6.377  2.5120  0.7141  0.4795
17093SOL    HW251858   7.833   9.008   6.306 -0.5456  0.1599 -3.7402
17094SOL     OW51859   8.331   1.700   7.083  0.4786 -0.2275 -0.0652
17094SOL    HW151860   8.346   1.671   7.173 -1.4207  0.8913  0.6486
17094SOL    HW251861   8.274   1.776   7.091 -1.0386 -1.0353 -2.2848
17095SOL     OW51862   6.916   0.935   2.771 -0.3176 -0.6728  0.1503
17095SOL    HW151863   6.917   0.871   2.699 -1.0010 -0.4198 -0.0933
17095SOL    HW251864   6.992   0.912   2.824  0.4366 -0.6079 -0.8673
17096SOL     OW51865   6.972   5.099   5.534  0.0749 -0.1747 -0.1298
17096SOL    HW151866   6.888   5.084   5.490 -0.2052 -0.3795  0.4588
17096SOL    HW251867   7.008   5.011   5.546 -0.0471 -0.1527  0.4198
17097SOL     OW51868   9.024   8.666   9.457 -0.1426 -0.2461 -0.8047
17097SOL    HW151869   8.965   8.592   9.468 -0.5731  0.3288  1.2536
17097SOL    HW251870   8.970   8.735   9.419 -0.6507  0.0595  0.4370
17098SOL     OW51871   8.236   4.646   5.048  0.1331  0.2959  0.4338
17098SOL    HW151872   8.174   4.615   4.982 -1.3357  0.4512  1.6828
17098SOL    HW251873   8.184   4.701   5.107  1.5696  0.8403  1.2550
17099SOL     OW51874   6.508   0.579   0.379  0.1280  0.0990  0.3182
17099SOL    HW151875   6.469   0.518   0.317 -2.1752  0.4911  1.2767
17099SOL    HW251876   6.533   0.654   0.325 -0.2588 -0.2649 -0.3893
17100SOL     OW51877   9.185   4.626   5.183  0.3888  0.1948  0.6406
17100SOL    HW151878   9.108   4.652   5.134 -0.7536 -0.5209  1.9759
17100SOL    HW251879   9.198   4.696   5.247  0.3401 -0.0767  0.9529
17101SOL     OW51880   2.516   1.871   2.388  0.1929  0.6552  0.1120
17101SOL    HW151881   2.436   1.854   2.439  1.1361 -0.2928  1.3476
17101SOL    HW251882   2.517   1.965   2.376 -1.1349  0.6729  0.0552
17102SOL     OW51883   3.518   2.480   7.578  0.3307 -0.3942  0.2092
17102SOL    HW151884   3.499   2.559   7.628 -1.4425 -0.4988 -0.2255
17102SOL    HW251885   3.443   2.423   7.594  2.4965 -2.9310  2.2072
17103SOL     OW51886   7.448   0.087   6.348 -0.4180  0.0760  0.3425
17103SOL    HW151887   7.448  -0.007   6.327  1.6242 -0.0101  0.5658
17103SOL    HW251888   7.431   0.130   6.264  1.7697 -0.4412 -0.4271
17104SOL     OW51889   9.392   5.392   8.394 -0.3205  0.0486 -0.3344
17104SOL    HW151890   9.415   5.395   8.487  0.0354 -0.5640 -0.4009
17104SOL    HW251891   9.309   5.439   8.389 -1.1960 -1.3387  0.5599
17105SOL     OW51892   8.972   9.808   5.349  0.3654 -0.2294 -0.6564
17105SOL    HW151893   8.972   9.713   5.339  1.0914 -0.2783 -0.2205
17105SOL    HW251894   8.945   9.823   5.439  1.0541 -0.0556 -0.4738
17106SOL     OW51895   8.384   0.794   2.366 -0.2007 -0.2565 -0.4043
17106SOL    HW151896   8.301   0.798   2.318 -0.1440 -1.1140 -0.5950
17106SOL    HW251897   8.380   0.711   2.414  1.6204 -1.6830 -2.4686
17107SOL     OW51898   0.267   1.434   8.954  0.0781  0.2707 -0.1231
17107SOL    HW151899   0.218   1.403   9.030 -2.8583  2.6726 -0.8583
17107SOL    HW251900   0.270   1.359   8.894 -2.2926 -0.1354  0.1885
17108SOL     OW51901   9.107   3.295   3.802 -0.4476  0.3814  0.5351
17108SOL    HW151902   9.099   3.284   3.707 -0.4158  1.5634  0.3715
17108SOL    HW251903   9.022   3.268   3.837 -0.6091  0.3535  0.1229
17109SOL     OW51904   7.795   1.511   0.801  0.1153 -0.1149  0.5394
17109SOL    HW151905   7.708   1.546   0.817 -1.9174 -3.9819 -0.7916
17109SOL    HW251906   7.816   1.463   0.881 -0.6708 -2.0854 -0.3635
17110SOL     OW51907   1.052   1.740   1.104 -0.3287  0.1779 -0.2841
17110SOL    HW151908   1.144   1.727   1.124 -0.6764  0.4538  1.7245
17110SOL    HW251909   1.051   1.774   1.014  1.5441  0.7224 -0.1368
17111SOL     OW51910   2.012   3.157   1.537 -0.0501 -0.2094  0.5933
17111SOL    HW151911   2.078   3.226   1.548  0.3017 -0.2355 -1.0774
17111SOL    HW251912   1.936   3.189   1.586  0.2891  1.1065  0.3040
17112SOL     OW51913   3.054   2.163   0.299 -0.3760 -0.5497 -0.1508
17112SOL    HW151914   3.009   2.247   0.307  1.3888  0.6128 -1.5323
17112SOL    HW251915   2.984   2.098   0.296 -1.7807  0.8212  1.2679
17113SOL     OW51916   8.772   3.638   1.206  0.1136 -0.4500 -0.0184
17113SOL    HW151917   8.686   3.644   1.248  0.4691  0.0985  0.6596
17113SOL    HW251918   8.796   3.545   1.214  0.2596 -0.3269  1.2069
17114SOL     OW51919   9.873   6.925   2.901 -0.2254 -0.2691 -0.5441
17114SOL    HW151920   9.819   6.877   2.838 -1.1603 -0.0896  0.1062
17114SOL    HW251921   9.887   6.864   2.973 -0.4507  0.0411 -0.2338
17115SOL     OW51922   1.477   6.541   5.415 -0.0048 -0.7990 -0.4214
17115SOL    HW151923   1.469   6.588   5.498 -1.6819 -0.6732 -0.6209
17115SOL    HW251924   1.572   6.533   5.401  0.3503 -2.2812  2.2852
17116SOL     OW51925   7.802   6.344   7.770  0.6333 -1.3544 -0.0771
17116SOL    HW151926   7.775   6.415   7.827 -0.0799 -0.7712 -1.1069
17116SOL    HW251927   7.725   6.289   7.761 -0.3429  0.2497 -2.9316
17117SOL     OW51928   9.791   1.499   5.813 -0.0147 -0.1880  0.0498
17117SOL    HW151929   9.856   1.550   5.861 -0.6259 -0.1797  0.8721
17117SOL    HW251930   9.707   1.531   5.844 -0.4174 -0.5879 -0.6046
17118SOL     OW51931   5.964   7.522   1.152  0.2975  0.2577  0.2631
17118SOL    HW151932   5.954   7.429   1.169 -2.0780 -0.2059 -2.7785
17118SOL    HW251933   6.010   7.527   1.068  1.6010  1.9297  1.0080
17119SOL     OW51934   7.580   3.651   5.821  0.2595 -0.0343  0.1360
17119SOL    HW151935   7.542   3.735   5.849  0.4247 -0.3178  1.2901
17119SOL    HW251936   7.523   3.585   5.861  0.6548 -0.4710 -0.0109
17120SOL     OW51937   4.017   3.975   1.188  0.0626 -0.2930  0.3425
17120SOL    HW151938   3.923   3.966   1.177  0.2032 -0.6394 -0.7126
17120SOL    HW251939   4.046   4.028   1.114  0.7573 -0.6278  0.3570
17121SOL     OW51940   5.909   5.924   1.752 -0.0050 -0.0769  0.2004
17121SOL    HW151941   5.903   5.831   1.775 -1.9722  0.1269  0.6819
17121SOL    HW251942   5.941   5.924   1.662 -2.6402 -1.4139 -0.8668
17122SOL     OW51943   5.263   5.846   1.459 -0.3709  0.1438  0.4780
17122SOL    HW151944   5.269   5.931   1.503  3.0039  1.2437 -1.6777
17122SOL    HW251945   5.354   5.815   1.454 -0.5838 -0.5432 -4.1638
17123SOL     OW51946   2.552   4.339   3.445  0.2217 -0.4004 -0.3918
17123SOL    HW151947   2.567   4.411   3.384  1.6348 -0.0045  0.3923
17123SOL    HW251948   2.600   4.363   3.524 -1.0281 -1.2154  0.6588
17124SOL     OW51949   4.337   5.059   0.366  0.3475 -0.5549  0.0425
17124SOL    HW151950   4.330   5.000   0.291 -0.1279 -0.2096 -0.1918
17124SOL    HW251951   4.413   5.028   0.414 -0.1157 -1.6041  0.1331
17125SOL     OW51952   4.173   4.786   2.197  0.7224 -0.3716  0.1520
17125SOL    HW151953   4.186   4.784   2.292  1.1568 -0.0924  0.0992
17125SOL    HW251954   4.088   4.743   2.184 -0.8268  2.1764  0.9171
17126SOL     OW51955   9.589   8.886   7.991 -0.2576  0.0315 -0.2268
17126SOL    HW151956   9.515   8.876   7.932  1.1402  0.3537 -2.1276
17126SOL    HW251957   9.663   8.848   7.944  0.9378  0.3125  1.3271
17127SOL     OW51958   6.211   8.329   0.218  0.1260  0.1835  0.3989
17127SOL    HW151959   6.181   8.328   0.128  0.3738  1.3133  0.2860
17127SOL    HW251960   6.168   8.253   0.259  1.3890 -1.3839 -1.0710
17128SOL     OW51961   1.622   7.124   4.893  0.5607  0.3707 -0.4016
17128SOL    HW151962   1.600   7.205   4.847 -0.4315  0.1279 -0.3759
17128SOL    HW251963   1.546   7.067   4.879  1.2879 -0.5942 -0.5055
17129SOL     OW51964   0.638   8.470   1.719 -0.3158 -0.7965 -0.0324
17129SOL    HW151965   0.647   8.432   1.632 -0.2499 -1.0180  0.0709
17129SOL    HW251966   0.625   8.564   1.703  3.3065 -0.1642 -0.2362
17130SOL     OW51967   1.765   5.895   8.312 -0.0926 -0.7389  0.5030
17130SOL    HW151968   1.723   5.955   8.250  1.1401 -0.1459  0.2227
17130SOL    HW251969   1.775   5.813   8.263  1.8462  0.0406 -0.4943
17131SOL     OW51970   9.254   1.206   2.977  0.1477  0.5686  0.3859
17131SOL    HW151971   9.332   1.165   3.014 -0.7842 -0.3548  1.4056
17131SOL    HW251972   9.217   1.140   2.919 -0.8718  0.2636  1.3452
17132SOL     OW51973   1.166   6.727   7.060 -0.5640  0.4573  0.1178
17132SOL    HW151974   1.176   6.703   7.152  0.1784  1.5373  0.3451
17132SOL    HW251975   1.181   6.645   7.012 -2.9013 -0.5621  0.9942
17133SOL     OW51976   1.707   4.485   8.940 -0.3961 -0.1599  0.0838
17133SOL    HW151977   1.658   4.516   9.016  0.0289 -2.3863  1.3425
17133SOL    HW251978   1.648   4.422   8.898  0.3094 -0.7715 -0.0015
17134SOL     OW51979   7.747   8.659   6.862  0.0987  0.2265  0.1263
17134SOL    HW151980   7.704   8.736   6.825  0.6370  1.3148  1.6442
17134SOL    HW251981   7.716   8.586   6.808 -1.2485  1.3590 -0.7185
17135SOL     OW51982   2.885   3.408   0.951  0.2199  0.1961 -0.6876
17135SOL    HW151983   2.871   3.471   1.021 -0.5549 -1.3709  0.6587
17135SOL    HW251984   2.979   3.390   0.953  0.3107  0.6810 -0.5117
17136SOL     OW51985   3.081   3.459   9.591  0.0845 -0.0511  0.2867
17136SOL    HW151986   2.991   3.442   9.564  0.2273  1.3644 -1.2507
17136SOL    HW251987   3.133   3.444   9.511  0.5919  3.8320 -0.3052
17137SOL     OW51988   7.628   5.596   3.829 -0.5248  0.7444  0.4382
17137SOL    HW151989   7.699   5.534   3.814 -1.2536  0.1565 -0.7147
17137SOL    HW251990   7.599   5.578   3.918 -0.1766 -0.0115  0.4084
17138SOL     OW51991   6.964   9.314   3.442  0.2683 -0.1580  0.4244
17138SOL    HW151992   7.031   9.289   3.378  1.0891  2.0567  0.3212
17138SOL    HW251993   6.881   9.290   3.400  0.8879 -0.9244 -0.4163
17139SOL     OW51994   0.951   8.758   6.012 -0.4436  0.4344 -0.0391
17139SOL    HW151995   0.871   8.778   5.964 -0.3448 -1.1244 -0.9214
17139SOL    HW251996   0.931   8.678   6.060  0.7285 -0.2392 -0.6518
17140SOL     OW51997   2.073   4.331   5.923 -0.0711  0.2182 -0.0493
17140SOL    HW151998   2.162   4.298   5.936 -0.2324  0.4444  2.0335
17140SOL    HW251999   2.085   4.424   5.901  0.2308  0.2871  0.3753
17141SOL     OW52000   3.516   4.122   5.658  0.3640 -1.1091 -0.1257
17141SOL    HW152001   3.601   4.102   5.697  1.0143  0.7692 -0.4698
17141SOL    HW252002   3.506   4.060   5.586  1.9030 -0.7483 -0.6800
17142SOL     OW52003   4.057   3.459   8.758 -0.7398 -0.2346  0.2427
17142SOL    HW152004   4.112   3.383   8.736 -1.3862 -0.7984  0.5216
17142SOL    HW252005   4.094   3.492   8.839 -0.4823 -0.2767  0.1462
17143SOL     OW52006   1.659   7.450   9.767 -0.0573  0.3623 -0.0786
17143SOL    HW152007   1.732   7.487   9.717  0.8706 -1.1700  0.0744
17143SOL    HW252008   1.620   7.525   9.812  0.0873  1.5379 -1.8064
17144SOL     OW52009   0.338   0.801   8.801  0.1865  0.2590  0.2252
17144SOL    HW152010   0.409   0.737   8.807 -0.1397 -0.0132  1.2957
17144SOL    HW252011   0.363   0.857   8.727  0.9725 -0.4858 -0.0960
17145SOL     OW52012   8.549   8.125   2.912  0.0153  0.1157 -0.4540
17145SOL    HW152013   8.534   8.050   2.971 -0.6312  1.3149  0.9747
17145SOL    HW252014   8.488   8.192   2.943  0.4994  1.2094 -1.7773
17146SOL     OW52015   5.393   0.383   2.807  0.5539  0.1883  0.0934
17146SOL    HW152016   5.414   0.294   2.780 -2.8115 -0.4610 -0.7405
17146SOL    HW252017   5.357   0.375   2.895  0.8728  0.8423  0.2955
17147SOL     OW52018   4.997   3.424   1.595 -0.0355 -0.0741  0.1460
17147SOL    HW152019   5.078   3.443   1.549  0.3159 -1.3812  0.1874
17147SOL    HW252020   4.986   3.329   1.588 -1.6677  0.0891 -0.0315
17148SOL     OW52021   5.010   1.489   4.018  0.4907  0.1504 -0.4837
17148SOL    HW152022   5.023   1.576   4.056  1.4778  0.2823 -1.1104
17148SOL    HW252023   4.972   1.505   3.932 -1.6463 -0.1488  0.3176
17149SOL     OW52024   6.725   1.790   2.353 -0.0112  0.7073  0.0200
17149SOL    HW152025   6.746   1.752   2.438 -1.1680  2.0049  0.9223
17149SOL    HW252026   6.679   1.719   2.307  0.9703 -0.1335  0.2990
17150SOL     OW52027   7.261   0.174   0.494 -0.0259  0.2509  0.4447
17150SOL    HW152028   7.341   0.192   0.543  0.8363 -1.4828 -0.2438
17150SOL    HW252029   7.245   0.080   0.508 -0.6579  0.0768 -1.2527
17151SOL     OW52030   9.110   2.067   1.640  0.5372 -0.3057  0.3605
17151SOL    HW152031   9.073   1.988   1.601  1.2284 -0.6028  0.2815
17151SOL    HW252032   9.194   2.038   1.676  0.5644  0.2867  0.7818
17152SOL     OW52033   1.798   5.466   1.938  0.2652  0.1580  0.0802
17152SOL    HW152034   1.887   5.448   1.969  0.8533  1.7067 -0.6280
17152SOL    HW252035   1.767   5.538   1.992 -1.5518 -1.8895  1.9731
17153SOL     OW52036   6.576   4.585   3.327  0.8468  0.4331 -0.6152
17153SOL    HW152037   6.578   4.498   3.366  0.8642  0.9353  0.5533
17153SOL    HW252038   6.667   4.603   3.305  0.8046  0.0521 -1.1262
17154SOL     OW52039  10.000   6.124   0.042  0.1909  0.7623 -0.0917
17154SOL    HW152040   9.907   6.126   0.063 -0.0974 -2.9855 -0.3975
17154SOL    HW252041  10.004   6.139  -0.053 -0.1391  0.4366 -0.1555
17155SOL     OW52042   3.340   8.688   5.955 -0.4795 -0.5354  0.2321
17155SOL    HW152043   3.390   8.673   6.036 -0.3043 -1.4903 -0.0377
17155SOL    HW252044   3.401   8.735   5.898  0.1370 -1.6931 -0.0943
17156SOL     OW52045   1.399   8.289   3.239  0.5022 -0.0384 -0.3480
17156SOL    HW152046   1.319   8.314   3.194  0.4771  0.6891  0.0791
17156SOL    HW252047   1.457   8.365   3.230  1.4259 -0.8351 -1.2850
17157SOL     OW52048   6.784   8.619   3.364  0.0035  0.0371  0.3286
17157SOL    HW152049   6.787   8.536   3.411  1.2422  0.0618  0.3319
17157SOL    HW252050   6.862   8.666   3.394 -0.2437  0.8651 -0.2891
17158SOL     OW52051   7.921   6.864   4.356 -0.3567 -0.5494 -0.6173
17158SOL    HW152052   7.910   6.881   4.263  1.6246 -1.7322 -1.1334
17158SOL    HW252053   7.934   6.770   4.362  0.2864 -0.4032  0.7692
17159SOL     OW52054   8.373   5.444   4.448 -0.2442  0.1583 -0.6214
17159SOL    HW152055   8.361   5.534   4.479 -0.6287 -0.0931 -0.0183
17159SOL    HW252056   8.459   5.419   4.481 -0.5338 -0.0108  0.0466
17160SOL     OW52057   5.408   8.549   3.912  0.6184  0.1984 -0.1757
17160SOL    HW152058   5.463   8.596   3.850 -1.1934  0.0306 -2.0139
17160SOL    HW252059   5.339   8.612   3.936  1.1711  0.1981  1.5651
17161SOL     OW52060   6.252   4.099   2.410  0.0258  0.3802  0.0637
17161SOL    HW152061   6.323   4.144   2.364 -1.1463  0.3221 -1.8781
17161SOL    HW252062   6.173   4.146   2.385 -0.9510 -1.2866 -0.1046
17162SOL     OW52063   4.139   1.220   6.752 -0.5687 -0.8170  0.2447
17162SOL    HW152064   4.097   1.189   6.672 -0.8277 -0.4122  0.2189
17162SOL    HW252065   4.207   1.155   6.770  0.6546 -0.0225 -1.2634
17163SOL     OW52066   1.694   2.759   9.530 -0.3266 -0.4749 -0.0911
17163SOL    HW152067   1.599   2.760   9.546 -0.1189 -1.1056  1.2756
17163SOL    HW252068   1.732   2.723   9.610  1.1567  0.5832 -0.2811
17164SOL     OW52069   0.097   9.168   2.609  0.0627 -0.4430 -0.0340
17164SOL    HW152070   0.003   9.183   2.621 -0.0584 -2.0412  1.3679
17164SOL    HW252071   0.110   9.171   2.514 -1.2769  0.3743 -0.2181
17165SOL     OW52072   0.326   4.409   7.201  0.2460  0.2584 -0.4093
17165SOL    HW152073   0.241   4.382   7.166 -0.1189  0.9717 -0.0949
17165SOL    HW252074   0.305   4.457   7.281  0.7553  2.3059 -1.4059
17166SOL     OW52075   7.602   3.111   1.868  0.4071  0.1475  0.0607
17166SOL    HW152076   7.590   3.036   1.809  1.9767  0.2621 -0.4509
17166SOL    HW252077   7.516   3.153   1.871 -0.2565 -1.1296 -0.4025
17167SOL     OW52078   9.515   7.753   5.447  0.2943  0.2094 -0.3642
17167SOL    HW152079   9.447   7.758   5.381  0.5033  0.3960 -0.5666
17167SOL    HW252080   9.544   7.843   5.459 -0.7744  0.3961  1.0703
17168SOL     OW52081   5.162   6.311   3.337  0.4164 -0.0443  0.6438
17168SOL    HW152082   5.236   6.367   3.313  0.7553  0.0300  1.7731
17168SOL    HW252083   5.085   6.369   3.330  0.3923 -0.2228 -0.8909
17169SOL     OW52084   5.150   6.862   3.038 -0.6490  0.0895  0.4668
17169SOL    HW152085   5.166   6.776   3.077  0.0160  0.0760  0.1786
17169SOL    HW252086   5.237   6.898   3.022 -0.9144  1.1220  1.2422
17170SOL     OW52087   2.788   8.539   8.545 -0.2048  0.8112 -0.1782
17170SOL    HW152088   2.796   8.520   8.638 -0.9428  0.4051 -0.1948
17170SOL    HW252089   2.812   8.457   8.501 -0.8616  0.6886 -0.3158
17171SOL     OW52090   9.012   4.048   2.269  0.0560 -0.0569  0.5442
17171SOL    HW152091   8.943   4.042   2.335 -0.4233  2.0418  0.2977
17171SOL    HW252092   8.986   4.122   2.215  2.6706  1.0106  0.6411
17172SOL     OW52093   6.655   6.750   4.957  0.3303  0.0682 -0.1434
17172SOL    HW152094   6.665   6.721   4.866  1.9351 -0.5372  0.1840
17172SOL    HW252095   6.584   6.814   4.954 -0.2991 -0.6528 -1.6540
17173SOL     OW52096   6.689   8.461   8.033 -0.2620 -0.0634  0.3700
17173SOL    HW152097   6.626   8.418   7.975 -1.6758  1.7354  0.4515
17173SOL    HW252098   6.662   8.553   8.032 -1.0295 -0.0429  4.6477
17174SOL     OW52099   8.206   1.020   3.522 -0.3979  0.0184 -0.1690
17174SOL    HW152100   8.297   0.997   3.540  0.5096  2.0530 -1.7271
17174SOL    HW252101   8.195   1.108   3.558 -1.4535  0.1904 -0.8484
17175SOL     OW52102   5.597   8.273   8.163 -0.2412 -0.0380 -0.2409
17175SOL    HW152103   5.544   8.298   8.238 -0.9775  1.1754 -1.1325
17175SOL    HW252104   5.650   8.200   8.195  0.2262  1.1007  1.7555
17176SOL     OW52105   9.769   0.631   0.324 -0.3644 -0.2505  0.0984
17176SOL    HW152106   9.812   0.546   0.319 -1.3949 -0.7546 -0.5507
17176SOL    HW252107   9.839   0.692   0.350  1.1538 -0.7626 -2.4408
17177SOL     OW52108   8.756   3.156   1.537  0.3077 -0.3948  0.3092
17177SOL    HW152109   8.819   3.179   1.605  0.8955 -1.9321  0.3093
17177SOL    HW252110   8.697   3.232   1.533 -0.3707 -0.6351  3.2377
17178SOL     OW52111   8.185   8.096   4.182 -0.5950  0.2174  0.2382
17178SOL    HW152112   8.245   8.021   4.181 -0.3182  0.4048  1.4583
17178SOL    HW252113   8.189   8.131   4.093  0.3900 -0.3409  0.0484
17179SOL     OW52114   1.882   5.376   0.780 -0.3962 -0.0725 -0.0835
17179SOL    HW152115   1.882   5.449   0.842 -3.2053  0.6790 -0.8590
17179SOL    HW252116   1.887   5.418   0.694 -0.0926 -0.9165 -0.4881
17180SOL     OW52117   5.207   4.615   0.789 -0.4270 -0.3750  0.4238
17180SOL    HW152118   5.124   4.603   0.835 -0.3297 -0.8363  0.4900
17180SOL    HW252119   5.248   4.690   0.830 -0.8360 -0.1146  0.3582
17181SOL     OW52120   5.755   3.276   3.659 -0.2053  0.2388  0.4189
17181SOL    HW152121   5.796   3.265   3.745 -0.2868  0.5781  0.4998
17181SOL    HW252122   5.765   3.369   3.638 -0.4124  0.2089  0.1744
17182SOL     OW52123   1.598   8.783   7.003 -0.2703  0.0112  0.2049
17182SOL    HW152124   1.542   8.715   6.965  0.2043  1.2465 -2.9274
17182SOL    HW252125   1.546   8.863   6.997  0.2878  0.4635  1.1626
17183SOL     OW52126   8.637   6.551   9.807 -0.1928 -0.2482 -0.5515
17183SOL    HW152127   8.685   6.468   9.795 -0.2002 -0.5180  1.1379
17183SOL    HW252128   8.703   6.619   9.795  0.6364 -0.6137  1.5280
17184SOL     OW52129   7.187   9.649   1.056  0.7703  0.5157  0.0571
17184SOL    HW152130   7.257   9.603   1.009  1.2738  1.2178  0.1119
17184SOL    HW252131   7.233   9.694   1.127  0.4726  2.2602 -0.8291
17185SOL     OW52132   4.879   8.869   4.844  0.0983 -0.4652  0.7192
17185SOL    HW152133   4.850   8.936   4.906 -0.0645 -0.4691  0.6474
17185SOL    HW252134   4.946   8.820   4.892 -0.0378 -0.4769  0.8998
17186SOL     OW52135   8.994   0.394   4.929  0.2636 -0.3265 -0.4625
17186SOL    HW152136   8.960   0.434   5.009 -1.1048 -0.6197 -0.8840
17186SOL    HW252137   8.990   0.463   4.863 -1.0551 -0.8015 -0.9103
17187SOL     OW52138   1.146   0.609   2.273 -0.6247  0.0641 -0.1083
17187SOL    HW152139   1.218   0.558   2.238  0.6834  1.3281  0.6349
17187SOL    HW252140   1.116   0.561   2.350  0.1413  0.0610  0.1909
17188SOL     OW52141   6.465   1.873   2.316  0.3427 -0.1696 -0.8152
17188SOL    HW152142   6.449   1.800   2.376  0.0151 -1.2015 -2.1081
17188SOL    HW252143   6.560   1.881   2.312  0.3844 -0.6046 -0.7426
17189SOL     OW52144   4.274   4.099   8.299 -0.2972  0.1955  0.3394
17189SOL    HW152145   4.324   4.163   8.248 -0.8882  1.0543  0.8232
17189SOL    HW252146   4.339   4.034   8.325  0.0938 -0.0381 -1.1490
17190SOL     OW52147   0.623   5.680   6.357  0.0253 -0.2546  0.4466
17190SOL    HW152148   0.645   5.706   6.446  2.2117  1.4197 -0.4868
17190SOL    HW252149   0.707   5.661   6.315 -1.0397 -2.5882 -0.8607
17191SOL     OW52150   8.795   4.939   5.291  0.3007 -0.4853  0.0338
17191SOL    HW152151   8.721   4.937   5.231 -0.1541 -0.6642  0.5925
17191SOL    HW252152   8.794   5.028   5.327  0.2170 -0.5612  0.2176
17192SOL     OW52153   9.524   0.610   7.324  0.2734  0.4689  0.4369
17192SOL    HW152154   9.575   0.594   7.245 -0.6214 -1.0449  0.1108
17192SOL    HW252155   9.487   0.524   7.347 -1.9283  1.4143  0.7717
17193SOL     OW52156   0.085   0.292   8.720 -0.2320  0.0265  0.3337
17193SOL    HW152157   0.170   0.314   8.757  0.4008 -0.4917 -0.7580
17193SOL    HW252158   0.069   0.201   8.747 -0.0450 -0.1519 -0.1391
17194SOL     OW52159   9.927   6.200   3.333  0.2617  0.0280 -0.7581
17194SOL    HW152160   9.949   6.213   3.240 -1.5736 -1.4994 -1.4613
17194SOL    HW252161   9.841   6.239   3.343  1.4135  2.3907  0.9853
17195SOL     OW52162   4.187   5.072   5.267  0.4078  0.0185  0.5737
17195SOL    HW152163   4.160   4.985   5.237  1.3086  0.5782 -2.1673
17195SOL    HW252164   4.277   5.081   5.235  0.7376  1.5279  1.8310
17196SOL     OW52165   9.094   9.209   9.633 -0.3405  0.0047  0.0759
17196SOL    HW152166   9.094   9.152   9.556  1.4073 -0.6635  0.5160
17196SOL    HW252167   9.030   9.170   9.692  0.4270 -1.2253  0.1383
17197SOL     OW52168   0.656   0.146   3.035 -0.0429  0.4361 -0.9460
17197SOL    HW152169   0.745   0.122   3.010 -0.0484  0.3698 -0.9003
17197SOL    HW252170   0.615   0.064   3.063 -0.9712 -0.0774 -3.5027
17198SOL     OW52171   3.562   3.044   4.475 -0.3593 -0.6799  0.1336
17198SOL    HW152172   3.556   2.962   4.523  0.0572 -0.4940  0.5156
17198SOL    HW252173   3.656   3.058   4.463 -0.2747  0.7926  1.9405
17199SOL     OW52174   9.127   4.162   9.609 -0.6876 -0.4050  0.0423
17199SOL    HW152175   9.073   4.202   9.541 -0.5065 -0.6647 -0.2600
17199SOL    HW252176   9.181   4.234   9.642 -0.7969 -0.2705 -0.0715
17200SOL     OW52177   7.923   0.824   3.868  0.3075 -0.3608  0.1930
17200SOL    HW152178   7.895   0.829   3.777 -0.6927  0.9502  0.5441
17200SOL    HW252179   7.853   0.866   3.918  0.7360 -1.2173  1.6066
17201SOL     OW52180   9.113   1.764   1.535  0.1934  0.4948  0.5944
17201SOL    HW152181   9.163   1.781   1.455  1.7715  1.8887  1.8078
17201SOL    HW252182   9.172   1.711   1.589 -0.4063  0.5195  1.2863
17202SOL     OW52183   0.305   3.850   5.690 -0.3626  0.1742  0.4754
17202SOL    HW152184   0.322   3.756   5.682 -0.1111  0.2327  0.3003
17202SOL    HW252185   0.243   3.857   5.762  1.5711  0.0732  2.2588
17203SOL     OW52186   4.762   0.849   8.601  0.0579 -0.2999  0.9277
17203SOL    HW152187   4.673   0.838   8.636 -0.1244 -1.5467  0.1086
17203SOL    HW252188   4.782   0.942   8.616 -1.5502  0.1071  0.7107
17204SOL     OW52189   8.553   7.873   8.933  0.2752  0.2484  0.6861
17204SOL    HW152190   8.589   7.808   8.872  1.9656  0.7096  1.1400
17204SOL    HW252191   8.625   7.933   8.949 -1.3861  2.6417 -0.1881
17205SOL     OW52192   0.421   8.627   5.434 -0.3259 -0.1899  0.3652
17205SOL    HW152193   0.361   8.601   5.504  0.1724  0.3545  1.0105
17205SOL    HW252194   0.442   8.545   5.389  0.8834 -0.8970  2.0972
17206SOL     OW52195   7.023   5.131   8.960 -0.6057  0.0410  0.2330
17206SOL    HW152196   6.959   5.184   9.009  0.0824  0.9174  0.2151
17206SOL    HW252197   7.108   5.166   8.987 -0.0202 -2.1912  1.5233
17207SOL     OW52198   0.307   6.937   6.497  0.4875 -0.7756 -0.3105
17207SOL    HW152199   0.266   6.970   6.577  0.5525 -0.5281 -0.3785
17207SOL    HW252200   0.307   7.012   6.437  0.5787 -0.9161 -0.4890
17208SOL     OW52201   6.557   7.022   1.353  0.0916 -0.4081 -0.3832
17208SOL    HW152202   6.463   7.028   1.367 -0.0743  0.6203 -1.7453
17208SOL    HW252203   6.569   6.937   1.309 -0.0582 -0.9836  0.6521
17209SOL     OW52204   4.603   1.853   0.647  0.2596  0.2592  0.7191
17209SOL    HW152205   4.692   1.818   0.638 -0.4330 -2.0656  2.0316
17209SOL    HW252206   4.615   1.945   0.669  2.3049  0.2569 -0.1815
17210SOL     OW52207   8.165   4.051   4.577 -0.1227  0.1468  0.4461
17210SOL    HW152208   8.228   4.123   4.579  0.4732 -0.3581  0.1301
17210SOL    HW252209   8.081   4.092   4.596  0.3580  0.7677  1.3150
17211SOL     OW52210   3.672   2.682   1.616  0.2430 -0.6483 -0.2754
17211SOL    HW152211   3.619   2.614   1.658  3.3408 -2.7842  0.4321
17211SOL    HW252212   3.666   2.663   1.522 -2.3966  0.9277 -0.5529
17212SOL     OW52213   7.707   9.638   6.552  0.1758  0.1406 -0.0943
17212SOL    HW152214   7.658   9.716   6.528 -0.3932 -0.5568 -1.2977
17212SOL    HW252215   7.794   9.652   6.516 -0.4192 -0.5085 -1.8769
17213SOL     OW52216   5.649   6.127   8.438  0.3479 -0.1520 -0.0906
17213SOL    HW152217   5.669   6.044   8.482  1.0737  0.8004  1.4423
17213SOL    HW252218   5.691   6.119   8.353  2.4731 -0.4540  0.9222
17214SOL     OW52219   0.081   9.153   2.336  0.4539  0.1747  0.0769
17214SOL    HW152220   0.058   9.068   2.297  0.2134 -0.4491  1.4915
17214SOL    HW252221   0.006   9.209   2.315 -1.0596 -0.9759  2.0271
17215SOL     OW52222   4.010   0.229   7.296 -0.1257 -0.2600  0.5767
17215SOL    HW152223   4.101   0.229   7.326  0.6208 -0.4834 -1.5305
17215SOL    HW252224   3.994   0.319   7.267  0.7388 -0.9817 -2.5359
17216SOL     OW52225   9.885   4.160   1.617  0.3081 -0.3257  0.4005
17216SOL    HW152226   9.953   4.222   1.590  0.1431 -0.3611 -0.1011
17216SOL    HW252227   9.926   4.108   1.686 -0.0860  1.4857  2.0939
17217SOL     OW52228   9.964   4.191   3.237  0.8235  0.1834  0.4048
17217SOL    HW152229  10.034   4.131   3.264 -0.1282 -0.9601  0.4198
17217SOL    HW252230   9.892   4.171   3.296  0.0930  0.5287 -0.3644
17218SOL     OW52231   4.643   9.542   1.009  0.4952 -0.3555  0.1595
17218SOL    HW152232   4.599   9.563   0.926  2.1781  0.0318 -0.6900
17218SOL    HW252233   4.622   9.451   1.025  0.6444 -0.6251 -1.0552
17219SOL     OW52234   5.483   8.831   4.391  0.3075  0.0043 -0.2246
17219SOL    HW152235   5.467   8.764   4.458 -0.2858  0.8813  0.5324
17219SOL    HW252236   5.566   8.872   4.417 -0.1655  0.6718  0.2670
17220SOL     OW52237   3.821   7.227   0.245  0.2099 -0.1900  0.1545
17220SOL    HW152238   3.874   7.160   0.202 -0.3375  0.4951 -1.6976
17220SOL    HW252239   3.858   7.310   0.214  1.5256  0.5152  3.1677
17221SOL     OW52240   9.128   4.827   7.563  0.3289 -0.6357  0.1990
17221SOL    HW152241   9.045   4.790   7.530  0.6405 -1.1960  0.0335
17221SOL    HW252242   9.102   4.878   7.640 -0.4356  0.8013 -0.9631
17222SOL     OW52243   7.293   3.408   3.266 -0.3567 -0.6021  0.2354
17222SOL    HW152244   7.272   3.438   3.177 -0.1051  0.2190  0.4422
17222SOL    HW252245   7.237   3.462   3.323  2.3288  1.7966  0.8292
17223SOL     OW52246   3.625   3.440   7.559 -0.1493  0.4150 -0.0394
17223SOL    HW152247   3.571   3.440   7.638 -1.8331  0.4286 -1.1342
17223SOL    HW252248   3.617   3.529   7.524  2.6999  1.2046  1.0956
17224SOL     OW52249   3.005   2.223   9.253  0.2639  0.0134  0.2742
17224SOL    HW152250   3.092   2.196   9.281 -0.0548 -2.4131 -0.8694
17224SOL    HW252251   3.019   2.261   9.166  0.2240 -0.0841  0.2254
17225SOL     OW52252   1.964   9.158   0.693 -0.2102 -0.3461  0.0540
17225SOL    HW152253   1.971   9.130   0.784 -0.2749 -0.2047  0.1019
17225SOL    HW252254   1.916   9.241   0.696  1.6087  0.7540  0.0967
17226SOL     OW52255   1.074   4.785   5.887 -0.3224  0.0534  0.2787
17226SOL    HW152256   1.023   4.813   5.811 -0.3627  0.3482  0.4148
17226SOL    HW252257   1.165   4.788   5.857 -0.2035  1.7500  0.7254
17227SOL     OW52258   0.046   0.653   4.504  0.2469  0.2786  0.5357
17227SOL    HW152259   0.047   0.558   4.492 -0.7379  0.1226  1.5072
17227SOL    HW252260   0.137   0.676   4.522  0.4891 -0.4847  0.3001
17228SOL     OW52261   4.879   1.305   9.576 -0.3255  0.2433 -0.3185
17228SOL    HW152262   4.918   1.289   9.490  0.6391 -0.1978  0.1901
17228SOL    HW252263   4.940   1.264   9.638 -1.5729 -0.4466  0.4992
17229SOL     OW52264   5.637   8.461   1.542 -0.0248  0.2809  0.3501
17229SOL    HW152265   5.654   8.484   1.451  0.7106 -0.1820  0.3634
17229SOL    HW252266   5.621   8.367   1.541 -0.7268  0.3947  0.6052
17230SOL     OW52267   0.430   5.623   2.452 -0.1793 -0.2362  0.0754
17230SOL    HW152268   0.359   5.560   2.467  0.3483 -0.4886  1.7247
17230SOL    HW252269   0.506   5.585   2.496 -0.2345  2.2741  2.7014
17231SOL     OW52270   9.905   2.125   4.156  0.4693  0.1645 -0.6251
17231SOL    HW152271   9.918   2.120   4.251  1.6796 -0.7892 -0.8039
17231SOL    HW252272   9.811   2.137   4.145  0.2508 -0.1768  0.6933
17232SOL     OW52273   9.578   9.294   3.449 -0.6673 -1.0592  0.7358
17232SOL    HW152274   9.633   9.215   3.449 -0.6559 -1.1716 -2.3178
17232SOL    HW252275   9.640   9.366   3.455 -0.3477 -1.2399 -0.2352
17233SOL     OW52276   5.859   6.300   4.290 -0.4395 -0.1044  0.7036
17233SOL    HW152277   5.835   6.212   4.318 -1.3833  0.0475  0.4097
17233SOL    HW252278   5.886   6.290   4.199 -0.0199 -0.1655  0.8302
17234SOL     OW52279   3.139   0.488   3.721 -0.3472 -0.1103 -0.4571
17234SOL    HW152280   3.216   0.503   3.666 -0.7194 -2.3175 -1.7011
17234SOL    HW252281   3.144   0.556   3.788  2.5078  0.0255 -0.6751
17235SOL     OW52282   2.823   3.608   4.173  0.1395 -0.2753 -1.0351
17235SOL    HW152283   2.730   3.614   4.198  0.1227 -1.8286 -0.6548
17235SOL    HW252284   2.822   3.597   4.078  0.0241  1.3300 -1.2452
17236SOL     OW52285   3.854   6.783   4.130 -0.1715 -0.3036  0.6861
17236SOL    HW152286   3.824   6.837   4.203 -0.8554 -1.9595  1.7062
17236SOL    HW252287   3.864   6.695   4.168  1.4546 -0.7957 -0.7450
17237SOL     OW52288   5.761   4.070   9.445 -0.8718 -0.2484  0.7685
17237SOL    HW152289   5.682   4.080   9.393  0.1626  1.0022 -0.6861
17237SOL    HW252290   5.777   3.976   9.449 -1.1988 -0.3998 -0.9075
17238SOL     OW52291   1.189   1.506   6.856  0.1080 -1.2781 -0.1609
17238SOL    HW152292   1.156   1.418   6.839  0.3529 -1.3723 -0.1564
17238SOL    HW252293   1.199   1.509   6.951 -1.9344 -0.5128  0.0808
17239SOL     OW52294   3.274   4.867   4.772  0.0054  0.1823  0.2276
17239SOL    HW152295   3.201   4.807   4.756  0.5494 -0.3500 -0.3487
17239SOL    HW252296   3.273   4.881   4.867  0.4140 -1.4898  0.5219
17240SOL     OW52297   9.445   9.192   6.275  0.4303 -0.1575 -0.1546
17240SOL    HW152298   9.488   9.275   6.254 -1.8222  1.1017 -0.1225
17240SOL    HW252299   9.477   9.131   6.209  1.3532  0.9861 -0.8122
17241SOL     OW52300   7.650   7.395   7.105  0.3664  0.8443  0.1584
17241SOL    HW152301   7.573   7.419   7.156  1.5004 -0.6135  2.7438
17241SOL    HW252302   7.617   7.383   7.016 -2.5337 -0.3669  1.2941
17242SOL     OW52303   4.620   2.536   7.272 -0.3588  0.1828 -0.3826
17242SOL    HW152304   4.548   2.479   7.244 -0.0546 -1.0809  1.2442
17242SOL    HW252305   4.590   2.624   7.251 -1.4620 -0.4650 -1.6882
17243SOL     OW52306   9.771   9.228   7.899 -0.4782  0.2846 -0.4066
17243SOL    HW152307   9.686   9.189   7.919  0.3085 -1.0026  0.6694
17243SOL    HW252308   9.751   9.313   7.860 -2.2445 -0.0938 -0.3947
17244SOL     OW52309   1.847   5.142   6.663 -0.1363  0.1641 -0.0421
17244SOL    HW152310   1.870   5.234   6.652  0.4069 -0.1434 -1.7529
17244SOL    HW252311   1.752   5.143   6.678  0.0597  1.0649  1.3538
17245SOL     OW52312   7.653   4.684   7.479 -0.3782 -0.4904 -0.1826
17245SOL    HW152313   7.745   4.659   7.476  0.3255  1.8789 -0.7216
17245SOL    HW252314   7.641   4.719   7.568 -0.1071  1.1843 -0.7556
17246SOL     OW52315   9.737   0.374   4.545 -0.7832  0.1935 -0.2653
17246SOL    HW152316   9.694   0.451   4.508 -1.3312 -0.0529 -0.1575
17246SOL    HW252317   9.685   0.300   4.514 -1.9843  0.0406  1.8751
17247SOL     OW52318   7.341   8.883   1.488  0.0401 -0.4156 -0.0739
17247SOL    HW152319   7.322   8.790   1.475 -1.6473 -0.2229  0.6800
17247SOL    HW252320   7.258   8.927   1.466  0.4782  0.8071  0.6263
17248SOL     OW52321   9.530   7.573   9.729 -0.0912 -0.3811  0.0399
17248SOL    HW152322   9.473   7.646   9.752 -0.2313 -1.0712  2.0959
17248SOL    HW252323   9.606   7.582   9.786  0.6029 -1.0149 -0.7416
17249SOL     OW52324   0.301   4.334   8.202 -0.0651 -0.1060 -0.3077
17249SOL    HW152325   0.234   4.275   8.168  1.2627 -0.6833 -2.0180
17249SOL    HW252326   0.370   4.276   8.235  0.2565  0.4785  0.0682
17250SOL     OW52327   3.319   1.368   0.992 -0.0779 -0.2072 -0.0813
17250SOL    HW152328   3.290   1.350   1.081  0.9045 -0.9007  0.1188
17250SOL    HW252329   3.269   1.306   0.938 -0.6060  0.1516 -0.0116
17251SOL     OW52330   8.979   9.776   2.361  0.6862 -0.0256 -0.4854
17251SOL    HW152331   8.963   9.717   2.435 -0.5738 -0.2417 -0.9060
17251SOL    HW252332   9.074   9.773   2.348  0.7761 -1.0034  0.2867
17252SOL     OW52333   8.601   9.353   8.524  0.2362  0.3866 -0.3747
17252SOL    HW152334   8.552   9.418   8.574  0.4961 -0.0748  0.4932
17252SOL    HW252335   8.615   9.394   8.438 -0.7731  0.9278 -0.2958
17253SOL     OW52336   2.071   9.617   7.818 -0.4396 -0.1326  0.6264
17253SOL    HW152337   2.021   9.536   7.821 -0.2714 -0.2619  0.0621
17253SOL    HW252338   2.016   9.681   7.862 -0.7645 -0.4513  0.6850
17254SOL     OW52339   7.816   7.693   0.113  0.0269  0.2692  0.4452
17254SOL    HW152340   7.902   7.730   0.134  0.3118 -0.3693  0.4224
17254SOL    HW252341   7.811   7.694   0.017  0.3535 -0.4395  0.4112
17255SOL     OW52342   4.770   8.169   0.280  0.2649  0.2351 -0.2234
17255SOL    HW152343   4.816   8.193   0.200  1.7516  1.4942  0.9343
17255SOL    HW252344   4.691   8.222   0.280 -0.1288 -0.3243 -1.1856
17256SOL     OW52345   1.217   4.876   3.657 -0.2225  0.3085 -0.2164
17256SOL    HW152346   1.310   4.865   3.634  0.5161  1.2818  2.0811
17256SOL    HW252347   1.179   4.920   3.580  1.2514  0.0794 -1.1176
17257SOL     OW52348   7.241   2.632   7.069  0.4784  0.4319 -0.2537
17257SOL    HW152349   7.263   2.558   7.013  1.3363  0.4951 -0.0073
17257SOL    HW252350   7.200   2.593   7.146 -1.5691  0.3976 -1.2935
17258SOL     OW52351   3.411   3.545   9.481 -0.6102  0.3418 -0.3327
17258SOL    HW152352   3.441   3.559   9.391 -0.4127  0.6315 -0.2235
17258SOL    HW252353   3.491   3.544   9.533 -0.8109  1.7561  0.0465
17259SOL     OW52354   9.298   2.388   7.334 -0.2782  0.1083  0.5303
17259SOL    HW152355   9.351   2.321   7.375 -2.0858 -1.0897  1.0056
17259SOL    HW252356   9.218   2.391   7.386 -0.8077  1.6693 -0.3094
17260SOL     OW52357   6.175   1.105   3.273  0.1265 -0.1813 -0.0662
17260SOL    HW152358   6.108   1.134   3.334 -0.8398  0.8508 -1.5506
17260SOL    HW252359   6.254   1.153   3.299 -0.2785  0.2533  0.3636
17261SOL     OW52360   7.348   1.636   6.571 -0.0572 -0.0156 -0.1432
17261SOL    HW152361   7.328   1.707   6.510 -0.0388  0.5768  0.5267
17261SOL    HW252362   7.425   1.594   6.534  1.0948  1.5042  0.4041
17262SOL     OW52363   2.374   2.108   1.895 -0.4506 -0.0545 -0.3537
17262SOL    HW152364   2.391   2.200   1.916  0.1547 -0.1282 -0.5020
17262SOL    HW252365   2.448   2.061   1.933 -0.0083 -0.3271 -1.5019
17263SOL     OW52366   6.357   1.904   3.124  0.6376  0.0404 -0.6436
17263SOL    HW152367   6.327   1.848   3.052  1.8846  1.4120 -2.3104
17263SOL    HW252368   6.306   1.875   3.199 -1.4498 -0.8256 -2.2763
17264SOL     OW52369   6.804   3.252   6.787  0.0443 -0.3193  0.5589
17264SOL    HW152370   6.874   3.312   6.813  0.3287  0.5474 -1.9575
17264SOL    HW252371   6.723   3.297   6.810  0.2741 -0.1655  1.0807
17265SOL     OW52372   0.615   7.399   4.852  0.5970  0.3148  0.2406
17265SOL    HW152373   0.581   7.311   4.836 -0.4969  0.9296 -1.0215
17265SOL    HW252374   0.697   7.402   4.803  0.5989  0.0154  0.2223
17266SOL     OW52375   5.576   2.930   3.305  0.3968  0.0360 -0.1729
17266SOL    HW152376   5.600   3.015   3.342 -0.1825  0.1368 -0.0255
17266SOL    HW252377   5.531   2.951   3.224 -1.5932 -0.0164  0.8552
17267SOL     OW52378   4.128   1.549   8.759 -0.0217  0.4193  0.2620
17267SOL    HW152379   4.173   1.597   8.689 -1.1304  1.7358  0.4089
17267SOL    HW252380   4.139   1.604   8.837 -1.0082  0.2450  0.5315
17268SOL     OW52381   7.400   8.110   1.515 -0.3237  0.0903 -0.4589
17268SOL    HW152382   7.377   8.032   1.565  0.7585  0.3163  0.4202
17268SOL    HW252383   7.455   8.077   1.443 -0.6922 -0.0640 -0.6733
17269SOL     OW52384   3.010   6.526   5.193  0.2179 -0.0267  0.1814
17269SOL    HW152385   3.077   6.480   5.142 -1.0483 -0.0556 -1.5540
17269SOL    HW252386   2.975   6.458   5.251  1.1321 -0.2039  0.5479
17270SOL     OW52387   2.497   0.282   7.627 -0.4476  0.5581 -0.0938
17270SOL    HW152388   2.527   0.262   7.715  2.1177 -1.2841 -1.2746
17270SOL    HW252389   2.539   0.364   7.605  1.3485 -0.4404 -0.5882
17271SOL     OW52390   7.228   4.741   2.618 -0.0648  0.4268 -0.2624
17271SOL    HW152391   7.151   4.690   2.645 -1.0865  2.6871  1.4642
17271SOL    HW252392   7.207   4.769   2.529 -1.2508  0.9587  0.1584
17272SOL     OW52393   9.917   3.507   8.799  0.8393 -0.2679 -0.4113
17272SOL    HW152394   9.843   3.480   8.743 -0.5053  2.3416 -0.0551
17272SOL    HW252395   9.904   3.458   8.880  1.3211 -2.1395 -1.4030
17273SOL     OW52396   7.763   8.549   9.396  0.4610  0.0561  0.4139
17273SOL    HW152397   7.757   8.637   9.434 -1.1042  0.5410 -0.8722
17273SOL    HW252398   7.681   8.537   9.348  0.1189 -2.5470  1.4476
17274SOL     OW52399   0.138   9.180   6.252  0.6099 -0.0183 -0.4186
17274SOL    HW152400   0.129   9.109   6.188  1.7503  0.0350 -0.6463
17274SOL    HW252401   0.114   9.259   6.203  1.0145 -0.0389 -0.6552
17275SOL     OW52402   3.266   3.485   4.246  0.4157  0.2887  0.5837
17275SOL    HW152403   3.225   3.435   4.175  0.3947  1.8214 -0.5632
17275SOL    HW252404   3.312   3.420   4.299 -0.1662 -0.9968 -0.4272
17276SOL     OW52405   0.363   2.992   8.292 -0.3490  0.0731 -0.7889
17276SOL    HW152406   0.393   2.913   8.337  3.3710  1.7399  0.0015
17276SOL    HW252407   0.289   3.023   8.344 -0.7187 -1.8461 -0.0828
17277SOL     OW52408   8.450   1.069   5.703  0.6451 -0.2443  0.0960
17277SOL    HW152409   8.489   0.988   5.670 -0.6900 -0.4462 -1.0565
17277SOL    HW252410   8.382   1.040   5.764 -0.2250 -0.0464 -0.7461
17278SOL     OW52411   0.716   0.074   0.732  0.1927  0.5641 -0.4247
17278SOL    HW152412   0.720   0.091   0.638 -1.2290  2.9698 -0.1411
17278SOL    HW252413   0.626   0.045   0.747  0.6772 -0.7447  0.1048
17279SOL     OW52414   6.037   5.640   7.191  0.8808 -0.5004 -0.5212
17279SOL    HW152415   6.032   5.735   7.180 -1.0202 -0.3932  0.6480
17279SOL    HW252416   6.116   5.625   7.242 -0.6504  0.9228  2.5559
17280SOL     OW52417   0.950   1.192   5.508 -0.3353  0.3244 -0.1655
17280SOL    HW152418   0.979   1.241   5.431 -1.0225 -0.0874 -0.6926
17280SOL    HW252419   0.904   1.258   5.561  0.7800  0.7820  0.2714
17281SOL     OW52420   4.008   4.398   4.659 -0.4499 -0.0012 -0.3053
17281SOL    HW152421   3.993   4.387   4.565 -1.2538  3.2998 -0.6929
17281SOL    HW252422   3.930   4.362   4.700 -1.7004  1.6161 -1.1814
17282SOL     OW52423   2.213   9.250   3.389  0.3532 -0.3989 -0.5655
17282SOL    HW152424   2.280   9.307   3.353  0.4603 -0.5899 -0.6688
17282SOL    HW252425   2.147   9.243   3.320  0.6558 -0.9294 -0.8091
17283SOL     OW52426   2.497   1.653   1.159 -0.7946 -0.1106  0.2618
17283SOL    HW152427   2.439   1.647   1.084 -1.5552  0.0415  0.8254
17283SOL    HW252428   2.519   1.562   1.180  0.4710 -0.0989 -0.9295
17284SOL     OW52429   0.962   0.669   3.390  0.0979  0.6230  0.3069
17284SOL    HW152430   0.995   0.754   3.421 -1.9002  1.1169  1.2413
17284SOL    HW252431   0.879   0.690   3.347 -0.2633 -0.8325  0.2462
17285SOL     OW52432   6.191   6.366   3.120  0.0223 -0.1644 -0.4727
17285SOL    HW152433   6.171   6.327   3.034  0.3510  1.3842 -1.2908
17285SOL    HW252434   6.199   6.460   3.102 -0.5210  0.2697  1.3842
17286SOL     OW52435   9.558   5.066   3.087  0.2551 -0.3273 -0.2152
17286SOL    HW152436   9.481   5.066   3.030 -0.3717 -1.6215  0.5824
17286SOL    HW252437   9.632   5.072   3.028 -0.4349  0.5161 -1.0281
17287SOL     OW52438   2.857   5.302   5.821  0.3916  0.2343 -0.3947
17287SOL    HW152439   2.815   5.297   5.907  1.3562 -1.1183  0.0194
17287SOL    HW252440   2.882   5.394   5.812 -0.5400  0.5809  0.3532
17288SOL     OW52441   7.143   0.732   8.407  0.0548 -0.5439  0.2498
17288SOL    HW152442   7.059   0.730   8.452 -0.0521  0.2995  0.1037
17288SOL    HW252443   7.121   0.739   8.314  0.2814 -0.1622  0.2223
17289SOL     OW52444   8.080   5.933   3.950  0.2280 -0.4975  0.0256
17289SOL    HW152445   8.006   5.891   3.994  1.0913 -1.9720  0.1465
17289SOL    HW252446   8.156   5.911   4.004  0.9113  0.1247 -0.6488
17290SOL     OW52447   6.256   8.572   5.765 -0.3119  0.1423  0.1252
17290SOL    HW152448   6.162   8.558   5.751 -0.0773 -0.2309 -1.2459
17290SOL    HW252449   6.276   8.522   5.844 -1.2828  0.3197  0.5011
17291SOL     OW52450   8.844   3.762   5.188  0.6088  1.0093 -0.1160
17291SOL    HW152451   8.880   3.675   5.204  0.0515  0.8001  0.0212
17291SOL    HW252452   8.915   3.822   5.209  1.3698  0.5530 -1.3093
17292SOL     OW52453   5.192   6.292   8.966  0.4306  0.2694 -0.0951
17292SOL    HW152454   5.151   6.356   8.907  1.7325  0.2950 -1.0233
17292SOL    HW252455   5.162   6.207   8.933 -3.4965  0.2830  2.7513
17293SOL     OW52456   1.732   6.029   6.392  0.1450  0.3538 -0.3727
17293SOL    HW152457   1.820   6.041   6.357 -0.0854 -0.5777 -1.3236
17293SOL    HW252458   1.708   5.939   6.368  0.3194 -0.7411  3.0469
17294SOL     OW52459   9.267   3.250   9.912 -0.2682 -0.3362 -0.0291
17294SOL    HW152460   9.288   3.280   9.824  1.5624  0.3446  0.5974
17294SOL    HW252461   9.348   3.261   9.961 -1.8217  1.4171  2.3439
17295SOL     OW52462   3.832   8.135   8.465 -0.0907  0.2309  0.3753
17295SOL    HW152463   3.799   8.220   8.494 -0.7215  0.3691 -0.6992
17295SOL    HW252464   3.794   8.072   8.526  0.8146  0.7499  1.5137
17296SOL     OW52465   7.527   0.820   7.018 -0.0339 -0.1026 -0.3050
17296SOL    HW152466   7.564   0.736   7.041 -0.0903 -0.3693 -1.1534
17296SOL    HW252467   7.602   0.879   7.011 -0.0727  0.1838  1.2768
17297SOL     OW52468   4.439   6.282   7.623  0.4428  0.0358 -0.2380
17297SOL    HW152469   4.532   6.264   7.634  0.9354  2.5496  0.3529
17297SOL    HW252470   4.401   6.198   7.598  2.5317 -1.4918  1.3765
17298SOL     OW52471   9.493   5.514   0.290 -0.5544 -0.9685 -0.2941
17298SOL    HW152472   9.455   5.598   0.315  0.6231 -1.1948  2.5935
17298SOL    HW252473   9.580   5.536   0.255  0.2639 -0.9690  1.6037
17299SOL     OW52474   8.563   5.148   7.252 -0.7884 -0.0777 -0.0775
17299SOL    HW152475   8.601   5.236   7.255 -0.4032 -0.2059 -0.9649
17299SOL    HW252476   8.503   5.151   7.178  0.9616 -1.2229 -1.6206
17300SOL     OW52477  -0.012   6.128   8.168  0.6995 -0.5371 -0.0831
17300SOL    HW152478   0.030   6.075   8.100  0.9508 -1.0749  0.4802
17300SOL    HW252479   0.051   6.197   8.187  1.8024 -1.8637  1.4161
17301SOL     OW52480   0.430   2.041   6.185 -0.2229  0.2891  0.0750
17301SOL    HW152481   0.522   2.060   6.168  0.4139 -0.9683  1.8405
17301SOL    HW252482   0.424   1.945   6.181 -1.2831  0.3082  0.8154
17302SOL     OW52483   9.491   6.918   8.546 -0.1803 -0.2511 -0.8159
17302SOL    HW152484   9.403   6.924   8.510 -0.7634  2.1706  0.7409
17302SOL    HW252485   9.487   6.969   8.627  2.2858 -1.3416  0.0995
17303SOL     OW52486   9.190   6.385   9.777  0.1702  0.6890 -0.7183
17303SOL    HW152487   9.154   6.302   9.745 -1.9003  1.3460 -0.2511
17303SOL    HW252488   9.222   6.365   9.865  0.0650  0.2944 -0.7693
17304SOL     OW52489   2.475   4.801   3.306  0.1772  0.0715  0.4379
17304SOL    HW152490   2.498   4.801   3.213 -0.1967  0.6577  0.3381
17304SOL    HW252491   2.404   4.738   3.313  0.3710 -0.1558  0.3700
17305SOL     OW52492   3.110   6.719   8.581 -0.8506  0.7116  0.6682
17305SOL    HW152493   3.172   6.767   8.526  0.0956 -1.1368  0.0407
17305SOL    HW252494   3.158   6.703   8.663 -1.3991  1.3783  1.1325
17306SOL     OW52495   2.545   2.000   8.297 -1.2024 -0.0024  0.4773
17306SOL    HW152496   2.637   1.988   8.321 -1.6752 -2.4139  1.3429
17306SOL    HW252497   2.542   2.086   8.256  1.1698  0.7607  1.7321
17307SOL     OW52498   9.087   7.056   8.380  0.2614  0.4646 -0.0719
17307SOL    HW152499   9.000   7.046   8.341  0.3174  1.1866 -0.3925
17307SOL    HW252500   9.110   7.148   8.364  1.0489  0.2998  0.0822
17308SOL     OW52501   0.331   4.604   6.468  0.0474  0.0279  0.8552
17308SOL    HW152502   0.333   4.695   6.438  1.3236 -0.3658 -0.3419
17308SOL    HW252503   0.313   4.553   6.389 -1.8218 -0.7240  1.7035
17309SOL     OW52504   9.091   4.457   5.535 -0.5491 -0.1647  0.4859
17309SOL    HW152505   9.091   4.381   5.477  0.9117  0.5741 -0.5443
17309SOL    HW252506   9.016   4.509   5.507 -1.2535 -0.9585  0.8598
17310SOL     OW52507   8.603   7.937   3.590  0.4000 -0.2240  0.2405
17310SOL    HW152508   8.537   8.002   3.567  1.7574  0.4095 -2.2679
17310SOL    HW252509   8.557   7.853   3.589 -0.4280  0.2290 -1.2754
17311SOL     OW52510   3.775   8.436   8.095  0.0369 -1.0010  0.3977
17311SOL    HW152511   3.788   8.351   8.053  0.2659 -1.3282  1.1016
17311SOL    HW252512   3.864   8.467   8.114  0.0792  0.5321 -1.9986
17312SOL     OW52513   4.215   3.716   5.517  0.0614  0.5680 -0.1108
17312SOL    HW152514   4.249   3.720   5.428 -1.9734 -0.4814 -0.9899
17312SOL    HW252515   4.277   3.661   5.564  1.7011  1.9376 -0.5509
17313SOL     OW52516   2.321   3.321   7.056  0.1567 -0.1051  0.4176
17313SOL    HW152517   2.305   3.391   6.993  0.8751 -0.0832  0.2551
17313SOL    HW252518   2.375   3.257   7.008  1.1003  0.1271  1.1405
17314SOL     OW52519   1.252   9.051   2.413  0.9860 -0.1854 -0.1263
17314SOL    HW152520   1.295   9.039   2.329  2.1640  0.7565  0.3075
17314SOL    HW252521   1.298   9.125   2.453 -2.2973  2.2036 -0.4293
17315SOL     OW52522   4.333   4.858   6.774 -0.0570 -0.1654 -0.0419
17315SOL    HW152523   4.386   4.856   6.694  0.6148  0.3487  0.3776
17315SOL    HW252524   4.348   4.946   6.809  1.6726 -1.1928  1.9842
17316SOL     OW52525   3.961   1.049   1.183 -0.0427 -0.5117 -0.2728
17316SOL    HW152526   4.015   1.129   1.183 -1.0578  0.2758 -2.5611
17316SOL    HW252527   3.950   1.027   1.275  1.0018  1.5094  0.3941
17317SOL     OW52528   4.275   4.244   2.845  0.2473 -0.3664  0.5424
17317SOL    HW152529   4.335   4.263   2.917  1.2321 -1.5073  0.0694
17317SOL    HW252530   4.317   4.281   2.768 -0.2128 -0.2049  0.3652
17318SOL     OW52531   4.223   3.976   2.824  0.3295  0.5152  0.4003
17318SOL    HW152532   4.257   4.065   2.817 -1.5517  1.2410 -0.1335
17318SOL    HW252533   4.133   3.987   2.854  0.0850 -1.2251  0.4127
17319SOL     OW52534   5.065   2.037   8.851  0.2278  0.2424  0.5190
17319SOL    HW152535   5.023   2.059   8.768  1.8510  1.2903 -0.0727
17319SOL    HW252536   4.993   2.028   8.913 -1.1130 -1.4888 -1.1596
17320SOL     OW52537   9.937   2.213   7.284 -0.1484 -0.2910 -0.0114
17320SOL    HW152538   9.936   2.144   7.218  0.4469 -1.9693  1.6382
17320SOL    HW252539   9.863   2.269   7.261  0.6632 -0.1760 -2.6781
17321SOL     OW52540   9.697   1.768   5.369 -0.1299 -0.2895 -0.1310
17321SOL    HW152541   9.750   1.688   5.369  2.0304  1.0728 -0.3614
17321SOL    HW252542   9.659   1.772   5.456  0.6193 -1.0134  0.2409
17322SOL     OW52543   3.778   8.921   5.133  0.5576 -0.3248 -0.4475
17322SOL    HW152544   3.745   8.870   5.059 -1.8074  0.2974  0.0991
17322SOL    HW252545   3.817   8.999   5.093 -1.9398  0.6879 -1.0693
17323SOL     OW52546   6.012   1.179   8.840 -0.1617 -0.4868  0.0645
17323SOL    HW152547   6.083   1.115   8.846  0.4563  0.2705  1.2620
17323SOL    HW252548   5.948   1.151   8.906  0.0990  0.1055  0.5738
17324SOL     OW52549   5.320   2.156   1.775 -0.2237  0.4606 -0.0478
17324SOL    HW152550   5.236   2.123   1.808 -0.8370  1.5977 -0.4101
17324SOL    HW252551   5.324   2.126   1.684 -0.4119  0.7251 -0.1429
17325SOL     OW52552   2.889   1.127   2.168 -0.3379  0.2826 -0.1752
17325SOL    HW152553   2.878   1.080   2.085  0.4147 -0.6328  0.2242
17325SOL    HW252554   2.926   1.211   2.143  1.4702 -0.6225 -0.6653
17326SOL     OW52555   7.171   9.890   0.587 -0.2097  0.5838  0.2338
17326SOL    HW152556   7.141   9.928   0.669  1.0687 -0.9393  1.4646
17326SOL    HW252557   7.091   9.870   0.539 -1.0833 -0.2548  1.9505
17327SOL     OW52558   7.199   5.518   3.164  0.0018 -0.3417 -0.4744
17327SOL    HW152559   7.155   5.456   3.105 -1.7555 -0.0237  0.4216
17327SOL    HW252560   7.254   5.572   3.106  1.2709 -2.4227 -1.3281
17328SOL     OW52561   3.656   8.641   3.607  0.2636  0.2260 -0.0630
17328SOL    HW152562   3.751   8.647   3.592  0.2577  0.1784 -0.1188
17328SOL    HW252563   3.623   8.728   3.586  0.2832  0.2179 -0.1255
17329SOL     OW52564   9.320   3.219   0.857  0.5494 -0.2201 -0.3716
17329SOL    HW152565   9.262   3.265   0.918 -1.0279  0.4131 -2.2532
17329SOL    HW252566   9.363   3.289   0.808  1.0366 -0.7204 -0.6689
17330SOL     OW52567   0.155   6.989   5.764 -0.2302  0.3159 -0.0605
17330SOL    HW152568   0.230   6.951   5.717 -0.0801  0.4675  0.0525
17330SOL    HW252569   0.079   6.942   5.730 -0.1736  0.7251 -0.7865
17331SOL     OW52570   8.265   4.261   8.218 -0.1442 -0.4631 -1.1497
17331SOL    HW152571   8.222   4.228   8.297 -1.2250 -1.3081 -2.0591
17331SOL    HW252572   8.292   4.182   8.170  3.5770 -0.0227 -0.0899
17332SOL     OW52573   1.119   4.396   9.199 -0.1779  0.1115  0.5863
17332SOL    HW152574   1.025   4.378   9.199 -0.3017  0.7190  0.6800
17332SOL    HW252575   1.137   4.428   9.288  0.2097 -0.4652  0.7155
17333SOL     OW52576   2.064   7.557   7.896 -0.4476 -0.2168  0.8427
17333SOL    HW152577   2.127   7.539   7.966  1.2343 -1.0663 -0.7932
17333SOL    HW252578   2.006   7.480   7.895 -0.6777 -0.0577  1.4779
17334SOL     OW52579   4.727   3.007   0.237  0.4865  0.3161 -0.2046
17334SOL    HW152580   4.637   3.033   0.217  0.6730  1.5635  0.4547
17334SOL    HW252581   4.780   3.082   0.210  1.3330 -0.4150 -0.6025
17335SOL     OW52582   8.188   6.878   8.579 -0.8754  0.3265  0.2618
17335SOL    HW152583   8.164   6.834   8.660  0.5504  0.1194  0.5939
17335SOL    HW252584   8.239   6.813   8.530  1.7450  1.6886  1.0025
17336SOL     OW52585   1.668   4.361   0.246 -0.3119  0.7127  0.6377
17336SOL    HW152586   1.575   4.375   0.229  0.0520  1.7158 -0.6965
17336SOL    HW252587   1.670   4.285   0.304 -1.8929 -0.7366 -1.0565
17337SOL     OW52588   1.843   9.618   7.659 -0.4505 -0.2217 -0.4761
17337SOL    HW152589   1.789   9.689   7.625 -0.7242  0.1100  0.5859
17337SOL    HW252590   1.932   9.642   7.634 -0.4250  1.0295  0.6721
17338SOL     OW52591   8.516   7.943   6.678 -0.4603 -0.0618 -0.0193
17338SOL    HW152592   8.496   7.853   6.703  1.3443 -0.0101  1.8863
17338SOL    HW252593   8.612   7.948   6.683 -0.4423  1.6938 -1.1595
17339SOL     OW52594   2.995   7.354   9.922 -0.0806  0.8656  0.2279
17339SOL    HW152595   2.913   7.391   9.891  0.6606  1.4765 -1.0805
17339SOL    HW252596   2.976   7.261   9.938 -0.5443  0.5325 -2.0160
17340SOL     OW52597   0.030   6.829   6.546  0.2026  0.0023 -0.7373
17340SOL    HW152598  -0.017   6.900   6.502 -0.7492 -1.2493 -1.8013
17340SOL    HW252599   0.122   6.846   6.524 -0.1247  0.2063 -2.0575
17341SOL     OW52600   7.924   1.774   1.343 -0.3156  0.6680  0.4725
17341SOL    HW152601   7.893   1.808   1.428  1.8968  0.8800  1.2503
17341SOL    HW252602   8.000   1.828   1.322  0.6835 -1.0297 -0.4247
17342SOL     OW52603   9.715   9.844   1.136  0.3440  0.3201  0.0517
17342SOL    HW152604   9.733   9.839   1.042  0.1763 -0.0798  0.0376
17342SOL    HW252605   9.747   9.930   1.162  0.5029  0.3851 -0.3483
17343SOL     OW52606   0.008   1.803   7.414  0.6329 -0.0423 -0.2006
17343SOL    HW152607   0.002   1.718   7.369 -0.6719  0.0911 -0.3201
17343SOL    HW252608   0.091   1.800   7.460  0.2466 -1.7260  0.4563
17344SOL     OW52609   5.411   7.572   2.552 -0.2508 -0.1541  0.0910
17344SOL    HW152610   5.368   7.516   2.616 -3.1176  2.3597  0.6293
17344SOL    HW252611   5.479   7.617   2.602  0.0022 -0.8800  0.4131
17345SOL     OW52612   0.839   5.279   7.870  0.1041  0.6752 -0.7180
17345SOL    HW152613   0.770   5.218   7.895  0.6321  0.4281  0.1943
17345SOL    HW252614   0.833   5.285   7.775 -0.6529  0.0462 -0.7170
17346SOL     OW52615   6.481   0.462   7.949  0.1671 -0.2026  0.5221
17346SOL    HW152616   6.444   0.530   7.893 -0.1176 -0.4326  0.4315
17346SOL    HW252617   6.567   0.444   7.912  0.5114  0.5669  0.9280
17347SOL     OW52618   8.078   0.656   0.451 -0.5949 -0.3316  0.3190
17347SOL    HW152619   8.038   0.578   0.412 -0.4336 -1.0116  1.4631
17347SOL    HW252620   8.150   0.622   0.504  0.4779  0.7490 -0.4011
17348SOL     OW52621   8.169   8.319   7.386  0.2043  0.6749  0.4626
17348SOL    HW152622   8.094   8.378   7.377 -0.2958 -0.1031 -0.6019
17348SOL    HW252623   8.217   8.329   7.304 -0.5468 -1.2668 -0.2725
17349SOL     OW52624   6.886   5.910   2.087  0.1597 -0.3868 -0.0135
17349SOL    HW152625   6.956   5.974   2.083 -0.5160  0.4720  1.1780
17349SOL    HW252626   6.831   5.929   2.011  0.1812  0.2038  0.1165
17350SOL     OW52627   3.553   5.848   8.853 -0.2873  0.3013 -0.1417
17350SOL    HW152628   3.592   5.906   8.788 -1.5118 -1.4791 -2.6211
17350SOL    HW252629   3.625   5.828   8.914  1.3056  0.9422 -1.7256
17351SOL     OW52630   1.667   6.961   1.215 -0.1315  0.4356  0.2829
17351SOL    HW152631   1.756   6.997   1.216 -0.3181  0.9595 -0.9639
17351SOL    HW252632   1.671   6.887   1.276  0.7013  1.4968  1.5606
17352SOL     OW52633   7.890   7.931   6.115 -0.1770 -0.1629  0.3243
17352SOL    HW152634   7.938   7.941   6.033  0.6619  1.5693  0.9882
17352SOL    HW252635   7.934   7.859   6.161 -0.5255 -1.0057 -0.6236
17353SOL     OW52636   5.531   3.252   7.410 -0.3650  0.4642 -0.4401
17353SOL    HW152637   5.606   3.306   7.384  0.6167 -0.7326 -0.1904
17353SOL    HW252638   5.465   3.270   7.343 -0.7250  3.2035  0.5234
17354SOL     OW52639   9.001   5.856   7.168  0.0069  0.5787 -0.1851
17354SOL    HW152640   8.921   5.878   7.216  1.4087  2.0238  1.6051
17354SOL    HW252641   9.037   5.940   7.141  0.9535 -0.0469 -0.9186
17355SOL     OW52642   0.826   3.319   6.045  0.1669 -0.2730 -0.4336
17355SOL    HW152643   0.833   3.399   6.096 -0.2707  0.3605 -1.3292
17355SOL    HW252644   0.767   3.263   6.095  0.8021 -0.2071  0.4030
17356SOL     OW52645   5.180   4.116   3.141  0.2832 -0.1097 -0.4751
17356SOL    HW152646   5.110   4.142   3.082 -0.1955  1.7294  0.7818
17356SOL    HW252647   5.175   4.179   3.213  2.9332 -0.1832 -0.0976
17357SOL     OW52648   7.191   1.590   1.648  0.5076  0.6372 -0.2282
17357SOL    HW152649   7.252   1.519   1.670  0.9557  1.4443  1.2765
17357SOL    HW252650   7.109   1.565   1.691  0.4650  0.7124 -0.2644
17358SOL     OW52651   7.101   0.632   1.080 -0.1583 -0.1489  0.1445
17358SOL    HW152652   7.123   0.725   1.072 -0.3371 -0.0813  0.4101
17358SOL    HW252653   7.010   0.632   1.110 -0.6163 -0.4222 -1.1870
17359SOL     OW52654   0.694   9.739   5.312  0.3510 -0.3706  0.1794
17359SOL    HW152655   0.661   9.763   5.398  0.4272  0.6592 -0.0735
17359SOL    HW252656   0.785   9.768   5.313  0.4247 -0.5853 -0.1690
17360SOL     OW52657   3.177   0.934   9.277 -0.1330  0.6126 -0.1309
17360SOL    HW152658   3.136   0.873   9.216  2.0171 -2.1318  0.9830
17360SOL    HW252659   3.269   0.934   9.253 -0.0904  4.2365 -0.6243
17361SOL     OW52660   2.102   8.612   0.894 -0.4539  0.2260  0.1595
17361SOL    HW152661   2.080   8.551   0.964 -0.1369  0.3079  0.3371
17361SOL    HW252662   2.191   8.588   0.868 -0.5009  0.3148 -0.0889
17362SOL     OW52663   9.533   3.052   0.501 -0.2712  0.0045 -0.5216
17362SOL    HW152664   9.616   3.011   0.478 -0.7148 -1.0871 -0.2178
17362SOL    HW252665   9.477   3.038   0.425 -0.3943  0.1384 -0.4572
17363SOL     OW52666   9.101   3.774   6.316  0.2409 -0.3754  0.4307
17363SOL    HW152667   9.022   3.721   6.310  0.3527 -0.4086 -1.0979
17363SOL    HW252668   9.137   3.754   6.403 -1.6787  0.0388  1.3884
17364SOL     OW52669   9.087   4.906   4.224 -0.3079  0.1474 -0.2493
17364SOL    HW152670   9.106   4.847   4.297 -2.0791  0.4096  0.4712
17364SOL    HW252671   9.007   4.952   4.250  0.1865  1.7933 -1.4454
17365SOL     OW52672   0.876   8.074   7.368 -0.2376  0.1467  0.1857
17365SOL    HW152673   0.866   8.007   7.436  1.8674 -0.3944  0.0419
17365SOL    HW252674   0.919   8.147   7.414  2.5448 -0.7689 -0.7587
17366SOL     OW52675   1.584   6.956   2.299  0.0714  0.1049 -0.9323
17366SOL    HW152676   1.662   6.901   2.293 -0.4612 -1.0290  1.3881
17366SOL    HW252677   1.614   7.036   2.343  0.4454  0.9002 -2.5612
17367SOL     OW52678   0.128   9.007   6.030 -0.0279 -0.2269  0.3024
17367SOL    HW152679   0.121   8.993   5.935  0.7586 -0.3314  0.2487
17367SOL    HW252680   0.096   8.925   6.068  1.2088 -0.8396  0.0733
17368SOL     OW52681   3.933   6.086   7.926 -0.0855  0.0052 -0.0320
17368SOL    HW152682   3.950   6.093   7.832 -0.8111 -1.9454 -0.3784
17368SOL    HW252683   3.972   6.002   7.950  0.3304  0.6176  1.4796
17369SOL     OW52684   0.454   0.952   1.501  0.3553 -0.3889  0.1508
17369SOL    HW152685   0.447   0.879   1.564  1.0439  0.0941  0.8008
17369SOL    HW252686   0.399   1.021   1.539  1.3509  0.1675  0.6154
17370SOL     OW52687   0.669   1.779   7.026  0.0475 -0.1436  0.0064
17370SOL    HW152688   0.661   1.684   7.035 -0.9293  0.0687  1.6328
17370SOL    HW252689   0.729   1.805   7.097  0.1292  0.4877 -0.2850
17371SOL     OW52690   8.814   0.838   0.875  0.1465 -0.1403 -0.1775
17371SOL    HW152691   8.808   0.840   0.970  1.1871 -1.4848 -0.0473
17371SOL    HW252692   8.728   0.868   0.844  0.0608  1.0523  1.1536
17372SOL     OW52693   3.248   0.751   4.221 -0.8485 -0.5352 -0.0332
17372SOL    HW152694   3.259   0.817   4.152 -2.2417  0.4310  0.6380
17372SOL    HW252695   3.330   0.754   4.270 -0.7378  0.4175 -0.2553
17373SOL     OW52696   4.016   2.235   7.453  0.4849 -0.2670 -0.1340
17373SOL    HW152697   3.947   2.300   7.441  0.5804  0.0363  0.8424
17373SOL    HW252698   3.982   2.156   7.411  0.7428  0.6195 -2.1045
17374SOL     OW52699   2.137   0.896   3.071  0.0575  0.0510 -0.0220
17374SOL    HW152700   2.151   0.848   3.153  1.3445  0.4653  0.0229
17374SOL    HW252701   2.047   0.874   3.046 -0.7316  0.7196  2.0104
17375SOL     OW52702   5.550   5.393   9.203  0.2583  0.1278  0.5223
17375SOL    HW152703   5.599   5.348   9.271 -1.1833 -1.3209  0.6513
17375SOL    HW252704   5.509   5.467   9.247  0.6561  0.1659  0.8372
17376SOL     OW52705   3.364   4.097   7.100 -0.0298  0.1946  0.0254
17376SOL    HW152706   3.347   4.191   7.103  1.1199  0.4197  0.0613
17376SOL    HW252707   3.449   4.090   7.057 -0.6216 -0.9035 -1.0244
17377SOL     OW52708   9.694   1.626   8.378 -0.2856  0.0875 -0.6217
17377SOL    HW152709   9.674   1.696   8.441 -0.8262  0.1635 -0.8694
17377SOL    HW252710   9.735   1.557   8.431  1.0128  0.9097 -0.5037
17378SOL     OW52711   7.440   0.451   7.257 -0.1398 -0.0532 -0.1220
17378SOL    HW152712   7.425   0.511   7.331  2.0288 -0.5307  0.7758
17378SOL    HW252713   7.410   0.366   7.289 -0.7183  0.0422 -0.4050
17379SOL     OW52714   7.338   7.760   3.570 -0.3098 -0.5826  0.0459
17379SOL    HW152715   7.287   7.833   3.533  0.4865 -0.4448 -0.8201
17379SOL    HW252716   7.275   7.690   3.582 -0.7736 -0.3033 -0.6984
17380SOL     OW52717   5.971   4.316   5.361 -0.5036  0.5339 -0.3949
17380SOL    HW152718   5.988   4.374   5.435  1.8227  1.7269 -1.7343
17380SOL    HW252719   6.005   4.231   5.389  0.0162  0.8863  0.0758
17381SOL     OW52720   3.870   1.712   9.690  0.1902  0.4406  0.4900
17381SOL    HW152721   3.881   1.677   9.779 -3.5636  0.6676  1.2249
17381SOL    HW252722   3.881   1.636   9.633  0.8420 -0.0933  1.3084
17382SOL     OW52723   5.195   6.094   4.236 -0.0347 -0.2548  0.4805
17382SOL    HW152724   5.126   6.158   4.254  1.7751  2.2389 -0.9489
17382SOL    HW252725   5.200   6.041   4.316 -1.0346  1.9052  2.0648
17383SOL     OW52726   6.163   2.032   6.740 -0.1366  0.7671  0.5153
17383SOL    HW152727   6.104   1.961   6.767  0.4274 -0.0917 -0.4123
17383SOL    HW252728   6.229   1.988   6.685  0.7624  1.8707  0.6857
17384SOL     OW52729   3.598   0.019   3.616  0.1755 -0.0006  0.5671
17384SOL    HW152730   3.504   0.033   3.612 -0.3324 -2.6006  1.2846
17384SOL    HW252731   3.615  -0.050   3.551  1.2378 -0.9182  1.7488
17385SOL     OW52732   4.594   3.046   1.380 -0.3188 -0.3771  0.1293
17385SOL    HW152733   4.677   3.041   1.333 -1.1094 -1.5245 -1.2525
17385SOL    HW252734   4.607   2.994   1.459  0.0735 -1.1471 -0.4317
17386SOL     OW52735   1.453   8.728   3.567  0.3168  0.0289  0.1283
17386SOL    HW152736   1.523   8.676   3.529 -1.0240 -1.1576 -0.7912
17386SOL    HW252737   1.412   8.771   3.492 -1.3600 -1.0959  0.3548
17387SOL     OW52738   7.476   0.157   2.657 -0.1840  0.1972 -0.1053
17387SOL    HW152739   7.456   0.142   2.749 -2.3390 -0.0365 -0.5631
17387SOL    HW252740   7.571   0.146   2.651  0.1173  0.9827  2.2054
17388SOL     OW52741   6.416   9.161   2.048  0.5815 -0.3270 -0.0036
17388SOL    HW152742   6.339   9.215   2.030  1.8824  1.7313  0.1478
17388SOL    HW252743   6.417   9.151   2.143  0.4617 -0.4300 -0.0126
17389SOL     OW52744   8.737   5.600   1.521  0.2625  0.1177  0.1954
17389SOL    HW152745   8.699   5.580   1.607 -0.7895 -2.0376 -0.6987
17389SOL    HW252746   8.831   5.593   1.535  0.0803 -0.9724  1.0252
17390SOL     OW52747   5.988   8.176   2.306  0.8701 -0.3627  0.6659
17390SOL    HW152748   6.047   8.144   2.238 -0.4422 -1.0117 -0.2019
17390SOL    HW252749   5.977   8.269   2.286 -0.6533 -0.8279 -0.9635
17391SOL     OW52750   2.971   7.562   3.965  0.5292 -0.4872  0.1641
17391SOL    HW152751   2.988   7.654   3.985 -0.8352 -0.3246  0.7295
17391SOL    HW252752   3.011   7.548   3.880  1.3484  0.4376  0.3743
17392SOL     OW52753   1.264   4.033   6.815  0.2937 -0.9310 -0.2027
17392SOL    HW152754   1.333   4.093   6.786 -1.0852  0.7491 -0.1795
17392SOL    HW252755   1.310   3.966   6.866  1.9320 -0.0272 -0.4287
17393SOL     OW52756   8.851   3.123   0.381 -0.0277  0.3600  0.1959
17393SOL    HW152757   8.792   3.054   0.409  0.1610  0.8746  1.9574
17393SOL    HW252758   8.923   3.077   0.338 -0.7481 -0.3958 -0.2379
17394SOL     OW52759   5.468   1.932   2.871  0.6788  0.5315  0.0364
17394SOL    HW152760   5.445   2.000   2.808  1.1398 -0.9539 -1.8203
17394SOL    HW252761   5.392   1.925   2.928 -1.1918 -0.3468 -2.4084
17395SOL     OW52762   7.461   7.557   8.834  0.0210 -0.4817 -0.1225
17395SOL    HW152763   7.460   7.621   8.763 -2.8412  0.7245  0.8487
17395SOL    HW252764   7.551   7.558   8.866  1.5294 -1.2584 -3.7686
17396SOL     OW52765   1.438   0.617   4.492 -0.1304  0.3093  0.2145
17396SOL    HW152766   1.369   0.552   4.479  0.2325 -0.2000  0.7837
17396SOL    HW252767   1.520   0.569   4.483  0.2498  1.2653 -2.3770
17397SOL     OW52768   2.444   3.121   6.913 -0.5027 -0.0609  0.0605
17397SOL    HW152769   2.495   3.155   6.840 -0.9067  1.2390  0.3503
17397SOL    HW252770   2.455   3.026   6.909 -0.3182  0.0087 -1.5255
17398SOL     OW52771   8.897   3.144   7.076  0.1855  0.3467 -0.9981
17398SOL    HW152772   8.911   3.226   7.030  1.4017  1.2132  0.7935
17398SOL    HW252773   8.808   3.152   7.112  0.7202  1.4725  0.1821
17399SOL     OW52774   5.701   4.393   8.086 -0.0514  0.3448  0.6722
17399SOL    HW152775   5.620   4.443   8.095 -0.9615 -1.3430  2.5853
17399SOL    HW252776   5.673   4.303   8.070  1.4696 -0.1152  0.3663
17400SOL     OW52777   2.936   5.025   9.250  0.2802 -0.0484  0.3242
17400SOL    HW152778   2.841   5.029   9.259  0.0377  1.3810 -2.0209
17400SOL    HW252779   2.969   5.075   9.325 -0.9027  0.9586  0.2025
17401SOL     OW52780   0.383   0.608   0.071  0.2100 -0.4261 -0.0621
17401SOL    HW152781   0.368   0.577  -0.019 -0.5509 -0.7191  0.1565
17401SOL    HW252782   0.455   0.554   0.103  0.5881 -0.2197 -0.5417
17402SOL     OW52783   9.713   3.610   7.275 -0.4225  0.2638  0.3281
17402SOL    HW152784   9.677   3.650   7.196  0.2349 -0.1314 -0.1810
17402SOL    HW252785   9.806   3.632   7.272  0.0590 -1.6857 -0.2272
17403SOL     OW52786   9.019   4.107   6.041  0.1150  0.5659 -0.1936
17403SOL    HW152787   9.000   4.200   6.042 -0.8805  0.3922  1.4434
17403SOL    HW252788   8.975   4.073   5.964 -0.2653  1.3134 -0.3087
17404SOL     OW52789   6.920   6.696   2.426  0.2616 -0.1988 -0.2131
17404SOL    HW152790   6.856   6.681   2.495  1.4988 -1.6206  0.6900
17404SOL    HW252791   7.003   6.710   2.473  0.9459 -0.2412 -1.3715
17405SOL     OW52792   9.112   7.363   1.803 -0.2071 -0.0110 -0.2982
17405SOL    HW152793   9.026   7.404   1.802 -1.0876 -1.7438  0.1264
17405SOL    HW252794   9.103   7.287   1.746  0.6017 -1.0053  0.8547
17406SOL     OW52795   7.162   9.604   3.204 -0.1526  0.4252 -0.1350
17406SOL    HW152796   7.159   9.509   3.214 -1.4095  0.3790 -0.6949
17406SOL    HW252797   7.207   9.635   3.282 -1.2731 -0.5271  0.9374
17407SOL     OW52798   2.167   6.925   8.748  0.1989  0.0767 -0.1073
17407SOL    HW152799   2.240   6.871   8.777 -0.1851 -0.8851 -0.8881
17407SOL    HW252800   2.091   6.867   8.750 -0.1882  0.5240 -1.1611
17408SOL     OW52801   5.857   4.395   0.564  0.2786 -0.0022  0.2772
17408SOL    HW152802   5.772   4.418   0.602  0.0263 -0.8525  0.2518
17408SOL    HW252803   5.847   4.414   0.471 -0.2085 -0.9870  0.1229
17409SOL     OW52804   0.893   9.531   0.896  0.5679 -0.3728  0.3510
17409SOL    HW152805   0.850   9.594   0.954 -1.4090 -1.1814 -0.1690
17409SOL    HW252806   0.986   9.535   0.921  0.4735  2.4727  0.5636
17410SOL     OW52807   4.949   6.810   9.298  0.0532  0.3523 -0.0068
17410SOL    HW152808   4.925   6.718   9.287  0.2470  0.4150 -1.0229
17410SOL    HW252809   4.918   6.832   9.385 -0.4452 -0.5385  0.0545
17411SOL     OW52810   6.458   4.830   5.791 -0.6246 -0.0125 -0.2553
17411SOL    HW152811   6.505   4.913   5.781 -1.2127  0.3799  0.1697
17411SOL    HW252812   6.394   4.847   5.861 -0.9020 -0.7555 -0.3217
17412SOL     OW52813   3.977   1.195   8.022  0.2288 -0.0063 -0.1568
17412SOL    HW152814   4.073   1.195   8.031  0.2796 -1.0190 -0.6249
17412SOL    HW252815   3.959   1.274   7.971  0.8883 -0.2100 -0.7213
17413SOL     OW52816   3.219   6.029   0.040  0.3003 -0.4446  0.9194
17413SOL    HW152817   3.136   5.982   0.047  0.8200 -1.2611  1.9899
17413SOL    HW252818   3.232   6.040  -0.054 -0.2502 -1.7280  0.6698
17414SOL     OW52819   9.524   3.465   8.491  0.1002  0.6026  0.2864
17414SOL    HW152820   9.436   3.458   8.453  0.2490  0.4156 -0.0296
17414SOL    HW252821   9.558   3.547   8.455 -0.4562  1.4002  1.4975
17415SOL     OW52822   4.978   0.401   8.151  0.1816 -0.1797 -0.2109
17415SOL    HW152823   4.944   0.396   8.062  0.4419 -0.5341 -0.2919
17415SOL    HW252824   5.044   0.332   8.156  0.3076 -0.0346  0.1967
17416SOL     OW52825   9.911   3.667   8.062  0.4899  0.3608  0.1148
17416SOL    HW152826   9.912   3.761   8.082  1.5459  0.9437 -2.3025
17416SOL    HW252827   9.832   3.655   8.008  0.6205 -0.0498  0.0112
17417SOL     OW52828   8.565   9.269   0.129  0.0641  0.4557 -0.0263
17417SOL    HW152829   8.496   9.216   0.169 -0.1051  1.4742  1.0792
17417SOL    HW252830   8.524   9.353   0.111  0.5911  0.5490 -0.8539
17418SOL     OW52831   3.904   8.028   4.318 -0.2794 -0.0789 -0.4052
17418SOL    HW152832   3.854   8.108   4.333  0.4524  0.1363  1.0431
17418SOL    HW252833   3.873   7.967   4.385  1.0026 -0.1122  0.1786
17419SOL     OW52834   5.941   0.996   9.893  0.2431 -0.2966 -0.3763
17419SOL    HW152835   5.931   0.951   9.977 -0.7501 -0.2495 -0.4590
17419SOL    HW252836   5.978   1.081   9.916  1.7308 -0.9657 -0.1777
17420SOL     OW52837   3.984   5.324   5.696  0.4054  0.2657 -0.6900
17420SOL    HW152838   3.904   5.289   5.659  0.0059  0.7528 -0.3076
17420SOL    HW252839   3.968   5.418   5.703  0.4676  0.2001  0.6731
17421SOL     OW52840   0.190   9.643   4.081  0.0321 -0.2447 -0.5181
17421SOL    HW152841   0.120   9.709   4.087 -0.6525 -0.8788 -1.3223
17421SOL    HW252842   0.255   9.683   4.023 -0.1467 -0.0689 -0.6006
17422SOL     OW52843  10.017   6.473   2.699  0.1240 -0.0175 -0.0696
17422SOL    HW152844   9.947   6.498   2.760  0.2159 -0.6380  0.2990
17422SOL    HW252845   9.971   6.454   2.617 -0.2859 -1.4662  0.4627
17423SOL     OW52846   2.163   5.256   8.388 -0.3349  0.0230  0.4659
17423SOL    HW152847   2.079   5.238   8.346  0.3874  0.5625 -1.2998
17423SOL    HW252848   2.152   5.343   8.426 -0.3309  0.4635 -0.5038
17424SOL     OW52849   0.491   4.557   7.531 -0.1076 -0.6040  0.2218
17424SOL    HW152850   0.569   4.593   7.489 -1.0180  0.7866 -0.3369
17424SOL    HW252851   0.524   4.485   7.584  1.2792 -1.4406 -1.6680
17425SOL     OW52852   8.275   4.051   0.814  0.3226 -0.1823  0.0623
17425SOL    HW152853   8.349   3.994   0.793 -0.4610 -1.7228  1.2358
17425SOL    HW252854   8.315   4.128   0.855  1.3334 -0.4797 -0.3333
17426SOL     OW52855   4.562   1.574   7.617  0.0092 -0.0822  0.0570
17426SOL    HW152856   4.565   1.620   7.532  0.8960  1.3163  0.8007
17426SOL    HW252857   4.625   1.622   7.671  0.2387 -1.6145  1.1923
17427SOL     OW52858   4.851   0.145   4.478 -0.0516 -0.1568 -0.3025
17427SOL    HW152859   4.841   0.231   4.520  0.7802 -0.4343  0.5028
17427SOL    HW252860   4.762   0.115   4.464 -0.3882  1.3099 -1.6107
17428SOL     OW52861   0.099   0.984   6.085  0.0677  0.4815  0.8728
17428SOL    HW152862   0.076   1.027   6.168  0.5761  1.1080  0.6992
17428SOL    HW252863   0.021   0.994   6.031 -1.3704 -2.4240  2.1907
17429SOL     OW52864   7.221   5.645   1.291  0.2869 -0.2733  0.0730
17429SOL    HW152865   7.217   5.604   1.377  1.3762 -0.2353  0.1680
17429SOL    HW252866   7.210   5.738   1.309 -1.9901 -0.4562 -0.1220
17430SOL     OW52867   2.708   4.185   1.071  0.3241  0.0996  0.2749
17430SOL    HW152868   2.659   4.145   1.143  1.9632 -0.8110  0.9366
17430SOL    HW252869   2.756   4.113   1.031  0.8725  0.9010 -0.5726
17431SOL     OW52870   9.622   7.103   9.891  0.6782 -0.7337  0.0320
17431SOL    HW152871   9.607   7.161   9.817 -0.2160 -0.8721  0.0968
17431SOL    HW252872   9.712   7.121   9.918 -0.1553  2.0732  1.3341
17432SOL     OW52873   1.116   3.020   4.094  0.5833  0.0117  0.2534
17432SOL    HW152874   1.109   2.948   4.031 -0.5473 -1.3684  1.8586
17432SOL    HW252875   1.192   2.998   4.148 -1.3983 -1.6764  2.6067
17433SOL     OW52876   4.115   0.185   3.149 -0.0196  0.4432  0.0905
17433SOL    HW152877   4.189   0.184   3.088  0.3509  0.4944  0.5373
17433SOL    HW252878   4.128   0.109   3.205 -1.3852 -0.7063 -1.0842
17434SOL     OW52879   7.844   5.222   8.391 -0.0603  0.3029  0.2808
17434SOL    HW152880   7.851   5.129   8.412  0.2254  0.5087  1.1412
17434SOL    HW252881   7.903   5.234   8.317 -0.8362 -0.3793 -0.4691
17435SOL     OW52882   1.855   5.209   2.221 -0.4484  0.0200 -0.3345
17435SOL    HW152883   1.875   5.182   2.131  2.5143 -1.2070  0.5646
17435SOL    HW252884   1.802   5.138   2.256  0.5491 -0.7812 -0.3975
17436SOL     OW52885   9.397   5.610   1.623  0.2688  0.9965 -0.4650
17436SOL    HW152886   9.446   5.542   1.576  2.3134  2.6373 -0.8415
17436SOL    HW252887   9.412   5.591   1.715  0.2458  0.5327 -0.5541
17437SOL     OW52888   2.709   2.798   1.936 -0.2126  0.2491 -0.4701
17437SOL    HW152889   2.719   2.720   1.881 -1.1792  0.0583 -0.3877
17437SOL    HW252890   2.695   2.869   1.875 -0.4567  0.1730 -0.5027
17438SOL     OW52891   8.763   4.499   1.409 -0.2503  0.4065  0.4423
17438SOL    HW152892   8.742   4.447   1.486  0.8849  0.6558  0.9396
17438SOL    HW252893   8.852   4.532   1.425  0.1401  0.1953 -1.1091
17439SOL     OW52894   0.692   0.715   0.407  0.2273 -0.2805 -0.1291
17439SOL    HW152895   0.744   0.791   0.379  0.6673 -1.0045 -1.3801
17439SOL    HW252896   0.750   0.669   0.468  0.3008 -0.0683 -0.0357
17440SOL     OW52897   0.901   7.959   1.477 -0.3110 -0.3290  0.1142
17440SOL    HW152898   0.813   7.996   1.473 -0.1985 -0.1202 -0.4675
17440SOL    HW252899   0.901   7.907   1.557 -1.4493 -1.5732 -0.6541
17441SOL     OW52900   1.268   0.885   5.649 -0.0668  0.2164  0.3745
17441SOL    HW152901   1.291   0.913   5.560  1.5590  0.8565  0.9491
17441SOL    HW252902   1.180   0.920   5.663 -0.4689 -0.1282 -1.0625
17442SOL     OW52903   4.946   0.081   5.839  0.0409 -0.2290  0.6928
17442SOL    HW152904   4.874   0.018   5.844  0.7441 -1.0982  0.1289
17442SOL    HW252905   4.917   0.145   5.774  0.6607 -1.7780 -1.1892
17443SOL     OW52906   8.238   1.107   5.497 -0.3101  0.1684 -0.0867
17443SOL    HW152907   8.211   1.196   5.520  1.8122  0.7379  0.4071
17443SOL    HW252908   8.284   1.075   5.574 -0.1257 -0.9660 -0.6435
17444SOL     OW52909   1.850   5.923   3.462  0.7285 -0.0969 -0.0460
17444SOL    HW152910   1.886   5.948   3.377  1.3695  1.1792  0.5699
17444SOL    HW252911   1.917   5.867   3.501 -0.0491 -1.5945 -0.8130
17445SOL     OW52912   3.512   7.836   7.436  0.1943  0.1150 -0.2292
17445SOL    HW152913   3.434   7.842   7.382 -1.5281 -1.7265  1.8455
17445SOL    HW252914   3.496   7.895   7.509  1.0464  0.2287 -0.1254
17446SOL     OW52915   2.416   7.447   5.163 -0.2730 -0.7435 -0.6147
17446SOL    HW152916   2.449   7.490   5.084 -1.5621  1.4228 -0.0566
17446SOL    HW252917   2.347   7.388   5.132 -0.7701  0.0945 -1.1537
17447SOL     OW52918   4.217   3.365   4.695  0.3143 -0.0813  0.6044
17447SOL    HW152919   4.187   3.289   4.745  0.4296  0.3482  1.3386
17447SOL    HW252920   4.199   3.342   4.604  2.3738 -1.9365  0.5710
17448SOL     OW52921   2.016   0.119   1.609 -0.0082 -0.8347  0.0201
17448SOL    HW152922   1.981   0.033   1.588 -1.3152 -0.1975 -0.4665
17448SOL    HW252923   1.941   0.169   1.640  0.2652  0.8195 -1.8396
17449SOL     OW52924   8.600   7.189   2.266  0.2393  0.4900  0.0561
17449SOL    HW152925   8.660   7.194   2.192 -0.9414  0.3013 -0.9476
17449SOL    HW252926   8.646   7.234   2.337  2.4053 -1.4003 -0.0459
17450SOL     OW52927   8.180   3.579   3.252 -0.2026  0.3092  0.1024
17450SOL    HW152928   8.227   3.586   3.169  1.3545  0.2134  0.9448
17450SOL    HW252929   8.164   3.669   3.279  2.6420  0.5261  1.4719
17451SOL     OW52930   7.887   1.873   8.900  0.2241  0.1931 -0.5743
17451SOL    HW152931   7.934   1.818   8.838  1.1151  1.8429 -1.4040
17451SOL    HW252932   7.856   1.947   8.849 -0.9393  0.5072  0.5199
17452SOL     OW52933   1.504   6.385   9.069 -0.3309 -0.0786 -0.3229
17452SOL    HW152934   1.483   6.293   9.049 -1.8348  0.3121 -0.6218
17452SOL    HW252935   1.524   6.384   9.163  1.9905 -1.0890 -0.7701
17453SOL     OW52936   7.857   6.231   8.086 -0.2015 -0.1336  0.2830
17453SOL    HW152937   7.888   6.196   8.003  0.1726  1.6454 -0.3743
17453SOL    HW252938   7.787   6.292   8.062  1.0735  1.7289  1.0699
17454SOL     OW52939   7.852   8.170   1.525  0.4615 -0.1892  0.6017
17454SOL    HW152940   7.890   8.176   1.613  3.0158 -0.3466 -0.4076
17454SOL    HW252941   7.866   8.078   1.500  0.9561  0.1610 -0.4495
17455SOL     OW52942   6.438   6.205   2.231  0.2641 -0.1600 -0.6552
17455SOL    HW152943   6.351   6.224   2.267  0.8498 -0.4137  0.9579
17455SOL    HW252944   6.470   6.132   2.284  1.5230  0.0189 -1.1496
17456SOL     OW52945   5.296   9.382   8.409 -0.1806  0.1993  0.0310
17456SOL    HW152946   5.297   9.371   8.504  0.2974 -0.5270 -0.0529
17456SOL    HW252947   5.208   9.355   8.382 -0.5473  1.0538  0.3323
17457SOL     OW52948   2.488   8.399   8.839  0.0210 -0.4077 -0.0045
17457SOL    HW152949   2.490   8.418   8.746 -0.6519 -1.4416 -0.2520
17457SOL    HW252950   2.571   8.354   8.856  0.7773  1.0227  0.2048
17458SOL     OW52951   3.752   2.371   4.229  0.7220  0.5377 -0.3408
17458SOL    HW152952   3.811   2.299   4.205  1.1872  0.9352 -0.3928
17458SOL    HW252953   3.810   2.439   4.263  0.1549  0.2802  1.2324
17459SOL     OW52954   1.963   0.370   4.421 -0.5368 -0.5004  0.2376
17459SOL    HW152955   2.021   0.389   4.347  0.9077 -0.4138  1.3570
17459SOL    HW252956   1.893   0.316   4.383  0.0877 -0.3399 -1.2060
17460SOL     OW52957   5.362   4.378   0.844  0.2590 -0.0016  0.2853
17460SOL    HW152958   5.447   4.389   0.888  0.2910  0.9418  0.0127
17460SOL    HW252959   5.327   4.466   0.838 -0.3489 -0.2808 -0.3912
17461SOL     OW52960   5.650   0.336   9.492  0.0167  0.4769 -0.0781
17461SOL    HW152961   5.590   0.409   9.509  0.7327  0.9115  0.6734
17461SOL    HW252962   5.736   0.370   9.516  0.4153 -0.4852 -0.1048
17462SOL     OW52963   7.349   4.020   8.462 -0.2430 -0.0530 -0.5283
17462SOL    HW152964   7.287   3.979   8.402  0.2297 -0.9486 -0.4222
17462SOL    HW252965   7.337   3.974   8.545 -0.8486  1.1334  0.0724
17463SOL     OW52966   3.684   4.714   6.745 -0.4332  0.2772 -0.2686
17463SOL    HW152967   3.674   4.762   6.663  0.7917 -1.5482 -1.5721
17463SOL    HW252968   3.778   4.710   6.759 -0.6087  0.2296  1.0510
17464SOL     OW52969   1.582   7.789   9.101 -0.5933 -0.1031  0.1343
17464SOL    HW152970   1.513   7.723   9.090 -0.9351  0.4286 -1.0834
17464SOL    HW252971   1.542   7.856   9.156 -1.4461  0.6697 -1.3330
17465SOL     OW52972   2.575   6.769   2.603  0.7025  0.1466 -0.2705
17465SOL    HW152973   2.604   6.684   2.568 -0.0812  0.5525 -2.0379
17465SOL    HW252974   2.636   6.832   2.563  0.6394  0.5095  0.2050
17466SOL     OW52975   8.464   9.289   2.744  0.2975 -0.1895  0.3694
17466SOL    HW152976   8.429   9.215   2.794  1.7127 -0.8893  0.3732
17466SOL    HW252977   8.536   9.252   2.693  2.9717  1.6536  2.5244
17467SOL     OW52978   1.906   6.552   1.645  0.7384 -0.0794 -0.3347
17467SOL    HW152979   1.848   6.476   1.653 -0.1699  0.6991  0.6451
17467SOL    HW252980   1.942   6.545   1.557  0.8203 -1.7523 -0.2003
17468SOL     OW52981   9.725   6.849   4.547  0.2425  0.2967 -0.1241
17468SOL    HW152982   9.639   6.885   4.567  1.5456  2.2167  2.5712
17468SOL    HW252983   9.757   6.902   4.474 -0.2236  0.6658 -0.0661
17469SOL     OW52984   0.781   5.114   5.796  0.2522  0.0489 -0.7286
17469SOL    HW152985   0.843   5.184   5.775 -0.7025  0.7931 -1.1849
17469SOL    HW252986   0.698   5.144   5.758 -0.8436 -0.0234  1.4429
17470SOL     OW52987   2.178   4.960   7.369  0.4204  0.3301 -0.0589
17470SOL    HW152988   2.177   4.873   7.407 -0.0418  0.8314  1.1026
17470SOL    HW252989   2.138   5.017   7.435 -1.5553  1.0536 -1.7476
17471SOL     OW52990   4.672   6.554   7.450 -0.0531 -0.0711 -0.2977
17471SOL    HW152991   4.605   6.595   7.395 -1.8101 -1.5943  0.5810
17471SOL    HW252992   4.695   6.474   7.403  0.4071 -0.0620 -0.0888
17472SOL     OW52993   5.802   2.214   9.272  0.4943 -0.0520 -0.3889
17472SOL    HW152994   5.731   2.278   9.280  0.1437 -0.4197 -0.5700
17472SOL    HW252995   5.761   2.136   9.236  0.5463 -0.9978  1.4423
17473SOL     OW52996   8.688   5.224   5.159 -0.5262  0.0431  0.3452
17473SOL    HW152997   8.768   5.219   5.211  0.0999 -1.4836 -0.6898
17473SOL    HW252998   8.628   5.162   5.199 -0.8955  0.5521  0.5993
17474SOL     OW52999   9.779   6.609   1.327  0.4513 -0.3355  0.5215
17474SOL    HW153000   9.839   6.657   1.384  0.6391  1.0888 -0.8028
17474SOL    HW253001   9.784   6.655   1.243 -1.6975 -0.8219  0.0713
17475SOL     OW53002   6.767   1.278   5.099 -0.5515  0.3286  0.0009
17475SOL    HW153003   6.702   1.225   5.144 -0.5612 -0.8059 -1.3002
17475SOL    HW253004   6.768   1.361   5.147 -0.9237 -0.6348  1.7552
17476SOL     OW53005   5.760   0.242   0.979 -0.2787  0.1850  0.1497
17476SOL    HW153006   5.788   0.250   1.070 -1.0791 -0.2032  0.4363
17476SOL    HW253007   5.704   0.165   0.977 -1.4399  1.0015 -0.3773
17477SOL     OW53008   8.121   4.135   1.934 -0.5015 -0.1473 -0.9236
17477SOL    HW153009   8.109   4.098   1.846 -1.9450  0.2905 -0.9334
17477SOL    HW253010   8.110   4.060   1.993  3.6763 -1.1844 -1.1099
17478SOL     OW53011   5.573   1.785   1.466  0.1118  0.0021 -0.5452
17478SOL    HW153012   5.535   1.702   1.494 -0.8416  0.0489 -1.5960
17478SOL    HW253013   5.497   1.840   1.445  0.6955  1.4210  0.8306
17479SOL     OW53014   9.040   3.488   9.633  0.5353 -0.3689  0.3531
17479SOL    HW153015   9.042   3.490   9.538  1.4407 -0.6680  0.3511
17479SOL    HW253016   9.066   3.576   9.660  0.2309 -0.2703  0.3243
17480SOL     OW53017   7.399   4.191   9.210 -0.5161  0.1764 -0.4291
17480SOL    HW153018   7.308   4.210   9.186 -1.1863 -2.0267  0.1113
17480SOL    HW253019   7.392   4.123   9.277  1.5392  0.1570 -0.1758
17481SOL     OW53020   6.092   2.447   8.036 -0.4737  0.5108  0.2093
17481SOL    HW153021   6.116   2.481   8.122  1.1755  0.4252 -0.1806
17481SOL    HW253022   6.120   2.356   8.037  0.0498  0.6494 -0.5798
17482SOL     OW53023   4.120   0.053   9.742  0.5305 -0.7555 -0.0486
17482SOL    HW153024   4.113   0.130   9.685 -0.5164  0.3241  1.4549
17482SOL    HW253025   4.105  -0.021   9.683  0.4264  0.2550 -1.3466
17483SOL     OW53026   5.403   8.498   4.193 -0.1761 -0.1034 -0.0147
17483SOL    HW153027   5.393   8.519   4.100  0.4280 -2.2077 -0.6057
17483SOL    HW253028   5.495   8.515   4.212 -0.5353  1.4444  0.5666
17484SOL     OW53029   9.534   1.649   4.152  0.0993 -0.0956 -0.4431
17484SOL    HW153030   9.542   1.720   4.088 -1.8113  0.2658 -0.3404
17484SOL    HW253031   9.505   1.574   4.101  2.5324 -0.9863 -0.6194
17485SOL     OW53032   9.054   5.711   9.017 -0.1160  0.2106  0.5489
17485SOL    HW153033   8.997   5.687   8.944  0.8423  0.1644 -0.1986
17485SOL    HW253034   8.994   5.733   9.088 -1.0645  0.3241 -0.2703
17486SOL     OW53035   4.716   7.951   7.673  0.2976  0.5401  0.3376
17486SOL    HW153036   4.772   7.976   7.600 -2.6220  0.9519 -1.9770
17486SOL    HW253037   4.681   8.034   7.706  0.0853  0.2413  0.8764
17487SOL     OW53038   9.769   6.335   6.926  0.0333  0.6050 -0.0754
17487SOL    HW153039   9.768   6.241   6.907  0.9748  0.6470 -0.3898
17487SOL    HW253040   9.838   6.345   6.992 -0.6437  0.9678  0.5845
17488SOL     OW53041   1.761   0.559   0.093  0.0852 -0.0875 -0.5215
17488SOL    HW153042   1.798   0.511   0.167 -0.6870 -0.8608 -0.6296
17488SOL    HW253043   1.795   0.513   0.016  0.6618  0.5475 -0.6600
17489SOL     OW53044   7.563   1.374   5.917 -0.0726 -1.1834  0.0674
17489SOL    HW153045   7.513   1.455   5.926  0.8799 -0.5189 -0.4376
17489SOL    HW253046   7.520   1.313   5.976 -0.5101 -0.1669  0.8339
17490SOL     OW53047   3.282   7.447   3.418  0.2127  0.2108 -0.1258
17490SOL    HW153048   3.340   7.411   3.485  0.0501  2.6915  1.5092
17490SOL    HW253049   3.263   7.536   3.449 -4.2252 -0.3263 -0.7057
17491SOL     OW53050   2.169   4.993   8.020  0.0545  0.0875 -0.4128
17491SOL    HW153051   2.260   5.023   8.029  0.5895 -1.2608 -1.0585
17491SOL    HW253052   2.173   4.900   8.042 -1.2962  0.1456  0.1458
17492SOL     OW53053   5.655   8.271   0.324 -0.8401  0.0318 -0.5311
17492SOL    HW153054   5.740   8.227   0.332 -0.7138  0.5341  1.3622
17492SOL    HW253055   5.592   8.200   0.315 -0.2021 -0.3330 -2.6718
17493SOL     OW53056   8.712   3.401   1.839 -0.3638 -0.3293  0.2963
17493SOL    HW153057   8.682   3.475   1.786 -0.8362 -0.8031 -0.1121
17493SOL    HW253058   8.634   3.345   1.848  0.0871 -0.9780  0.2507
17494SOL     OW53059   3.622   9.150   9.577 -0.1282 -0.1430  0.1654
17494SOL    HW153060   3.689   9.214   9.553 -1.8644  2.0854  0.8444
17494SOL    HW253061   3.657   9.107   9.655  0.5491  0.9477  0.4910
17495SOL     OW53062   9.537   3.599   5.978 -0.7577 -0.2120  0.2932
17495SOL    HW153063   9.468   3.575   6.039 -0.7746 -0.9077  0.0052
17495SOL    HW253064   9.500   3.579   5.891 -0.0341 -1.0299  0.1574
17496SOL     OW53065   5.770   7.618   2.383 -0.3157  0.1935 -0.3256
17496SOL    HW153066   5.707   7.672   2.335 -0.0230  0.3655 -0.5219
17496SOL    HW253067   5.768   7.533   2.340  0.4735  0.5595 -1.1119
17497SOL     OW53068   5.592   2.352   6.561 -0.0213 -0.5022  0.3609
17497SOL    HW153069   5.558   2.336   6.649  0.5560 -0.8737  0.5204
17497SOL    HW253070   5.534   2.302   6.503 -0.5423 -0.0708  0.5052
17498SOL     OW53071   2.159   3.996   1.173  0.4351 -0.0700 -0.1637
17498SOL    HW153072   2.145   3.935   1.101 -0.3986  0.5916 -0.5819
17498SOL    HW253073   2.207   4.069   1.134  0.3189  0.1180  0.0448
17499SOL     OW53074   5.571   6.634   2.310  0.3739  0.5864 -0.2758
17499SOL    HW153075   5.543   6.657   2.398  3.4414  1.0787  0.7185
17499SOL    HW253076   5.600   6.543   2.317 -0.7977  0.1204 -1.1984
17500SOL     OW53077   6.491   4.957   5.055  0.1724 -0.2935  0.4948
17500SOL    HW153078   6.435   4.944   4.979  0.9504 -0.5585 -0.0426
17500SOL    HW253079   6.436   4.932   5.130  0.2773 -2.7633 -0.1814
17501SOL     OW53080   2.103   0.408   0.091  0.2306  0.3609 -0.0243
17501SOL    HW153081   2.089   0.333   0.149  0.9683  0.4211  0.2391
17501SOL    HW253082   2.148   0.472   0.145  3.4054 -0.5982 -1.3404
17502SOL     OW53083   2.672   1.837   9.538  0.3820  0.6115 -0.3362
17502SOL    HW153084   2.725   1.762   9.564  0.5384  0.9239  0.2728
17502SOL    HW253085   2.674   1.896   9.614 -1.1970  0.4401 -0.1255
17503SOL     OW53086   8.672   5.049   2.989 -0.3006  0.4639 -0.6423
17503SOL    HW153087   8.687   5.129   2.938 -0.0181 -0.5547 -2.2208
17503SOL    HW253088   8.627   4.990   2.929 -2.4274  0.1300  1.1567
17504SOL     OW53089   5.837   7.372   3.245  0.2767 -0.7984  0.0770
17504SOL    HW153090   5.764   7.394   3.303  1.5140  0.6906  1.1499
17504SOL    HW253091   5.812   7.288   3.206 -1.8076 -0.5331  0.7013
17505SOL     OW53092   0.107   1.478   1.371 -0.0477  0.5897 -0.2276
17505SOL    HW153093   0.087   1.414   1.303  0.7779  0.2324 -0.1467
17505SOL    HW253094   0.077   1.438   1.452  0.2343  0.4117 -0.2099
17506SOL     OW53095   5.501   3.659   9.152 -0.0554  0.1283  0.4196
17506SOL    HW153096   5.498   3.711   9.232  2.2716  0.2946  0.4785
17506SOL    HW253097   5.589   3.673   9.118 -1.2451  0.7720 -2.6812
17507SOL     OW53098   5.869   4.994   6.907  0.5643 -0.4592  0.4488
17507SOL    HW153099   5.856   4.899   6.900  1.1355 -0.7063  2.1928
17507SOL    HW253100   5.784   5.032   6.886  0.5910 -1.2632 -1.3561
17508SOL     OW53101   4.953   4.574   7.205 -0.5592  0.3646 -0.9630
17508SOL    HW153102   4.916   4.486   7.213  1.8410 -0.5527  1.1509
17508SOL    HW253103   4.877   4.632   7.210 -1.9965 -1.4999 -0.0353
17509SOL     OW53104   4.466   1.655   2.038 -0.1238  0.4570 -0.1335
17509SOL    HW153105   4.384   1.695   2.010 -0.1913  1.7691  1.7349
17509SOL    HW253106   4.533   1.699   1.986 -0.2935  2.3743  1.1572
17510SOL     OW53107   5.204   8.170   9.832 -0.8898  0.1835 -0.0531
17510SOL    HW153108   5.169   8.206   9.913 -0.0211 -0.0065  0.4198
17510SOL    HW253109   5.129   8.168   9.772 -1.8281 -0.7114  1.0902
17511SOL     OW53110   1.196   9.056   5.329  0.6229  0.2296  0.4876
17511SOL    HW153111   1.272   9.080   5.277 -2.0421  2.1782 -2.9462
17511SOL    HW253112   1.193   9.123   5.398  1.2559  0.9855 -0.1950
17512SOL     OW53113   4.641   7.936   1.460 -0.4555  0.0636 -0.0588
17512SOL    HW153114   4.606   7.857   1.501  1.9070 -0.5830  0.8968
17512SOL    HW253115   4.585   8.006   1.493 -2.0086 -1.0605 -0.1476
17513SOL     OW53116   8.230   7.831   9.048  0.0274 -0.7094  0.5270
17513SOL    HW153117   8.245   7.813   8.955 -0.8841 -0.9772  0.4276
17513SOL    HW253118   8.161   7.897   9.049 -0.5726 -1.3378  1.0279
17514SOL     OW53119   6.621   7.940   7.629  0.5667  0.2542  0.0488
17514SOL    HW153120   6.640   7.849   7.650  1.5026  0.0774 -1.4225
17514SOL    HW253121   6.632   7.946   7.534  0.2983  1.8457  0.0880
17515SOL     OW53122   9.105   0.053   9.593  0.0703  0.6891  0.5135
17515SOL    HW153123   9.169   0.124   9.584 -0.9389  1.3764 -2.1581
17515SOL    HW253124   9.021   0.097   9.601 -0.3330 -0.2399  1.7978
17516SOL     OW53125   2.583   8.150   0.975 -0.3519  0.2832  0.4191
17516SOL    HW153126   2.609   8.076   1.030 -1.3971 -0.6493 -0.2930
17516SOL    HW253127   2.640   8.144   0.899  0.2706  0.8489  0.8314
17517SOL     OW53128   6.370   7.275   7.749 -0.2144  0.5064 -0.4544
17517SOL    HW153129   6.283   7.282   7.788 -0.8974 -2.3604 -1.2423
17517SOL    HW253130   6.425   7.236   7.817  0.3433  1.7468 -0.1639
17518SOL     OW53131   3.601   8.935   8.392  0.3580  0.2694  0.3080
17518SOL    HW153132   3.518   8.977   8.417  0.7203  0.6039  0.9901
17518SOL    HW253133   3.589   8.912   8.300 -0.9067 -0.7118  0.6823
17519SOL     OW53134   1.755   5.538   3.835  0.1429 -0.2168  0.1394
17519SOL    HW153135   1.752   5.623   3.879  1.4874 -0.4544  0.7512
17519SOL    HW253136   1.829   5.492   3.877 -0.5384 -1.6710 -0.1898
17520SOL     OW53137   5.259   2.099   9.069  0.0349 -0.3884 -0.1284
17520SOL    HW153138   5.233   2.076   8.979 -2.7603  0.5613  0.3398
17520SOL    HW253139   5.287   2.015   9.107  0.1172 -1.0246 -1.5087
17521SOL     OW53140   4.550   9.052   8.485  0.1906 -0.0178  0.4617
17521SOL    HW153141   4.538   9.146   8.499  0.0082 -0.0971  0.8519
17521SOL    HW253142   4.472   9.012   8.524 -0.6794 -0.2138 -1.3453
17522SOL     OW53143   8.044   3.569   6.516 -0.2222  0.3417 -0.3029
17522SOL    HW153144   8.047   3.624   6.438 -1.2393  0.4061 -0.3064
17522SOL    HW253145   7.991   3.494   6.491 -0.2780  0.1961  0.2253
17523SOL     OW53146   6.171   4.552   3.946 -0.3180 -0.1684 -0.2155
17523SOL    HW153147   6.109   4.610   3.902  0.2068  1.0954  0.6287
17523SOL    HW253148   6.136   4.541   4.034  0.3974  0.2050  0.1321
17524SOL     OW53149   6.893   4.706   1.670 -0.6091  0.0925  0.0096
17524SOL    HW153150   6.826   4.736   1.731 -0.3915 -0.3065  0.4462
17524SOL    HW253151   6.869   4.614   1.652  0.4950 -0.4262  1.1000
17525SOL     OW53152   4.750   8.639   1.728  0.4308  0.1637 -0.0494
17525SOL    HW153153   4.731   8.725   1.764  0.2855  0.4485 -0.7787
17525SOL    HW253154   4.812   8.656   1.656 -0.8529 -0.1435 -1.2751
17526SOL     OW53155   8.983   7.645   1.043 -0.3161  0.3782 -0.2674
17526SOL    HW153156   8.988   7.567   1.098  1.0366  0.1265 -0.7094
17526SOL    HW253157   8.934   7.709   1.096 -1.8717 -0.9042 -0.0981
17527SOL     OW53158   5.802   4.583   0.906 -0.1192  0.5150  0.0213
17527SOL    HW153159   5.877   4.523   0.907 -1.2194 -0.9222  0.9627
17527SOL    HW253160   5.841   4.670   0.912  1.4724 -0.2492  2.3174
17528SOL     OW53161   0.956   6.336   7.660 -0.2347 -0.0050 -0.5459
17528SOL    HW153162   1.005   6.253   7.658  1.4645  0.6187  3.4866
17528SOL    HW253163   1.014   6.399   7.616 -0.5316 -0.5219 -1.6969
17529SOL     OW53164   7.432   2.955   8.537 -0.1981  0.2414 -0.5247
17529SOL    HW153165   7.522   2.935   8.561 -0.6128 -0.1042  0.7852
17529SOL    HW253166   7.409   2.888   8.472 -0.0762 -0.7620  0.4387
17530SOL     OW53167   1.654   0.971   4.810 -0.5207 -0.5933 -0.6769
17530SOL    HW153168   1.584   0.907   4.816  0.2102 -1.5794 -1.9991
17530SOL    HW253169   1.621   1.037   4.749 -1.1926  0.2218  0.5280
17531SOL     OW53170   6.782   0.301   0.061 -0.6000  0.4991 -0.4510
17531SOL    HW153171   6.693   0.267   0.071 -0.4290  0.3558  0.8209
17531SOL    HW253172   6.838   0.229   0.090 -0.0706  0.6064 -1.1925
17532SOL     OW53173   1.699   1.651   4.030  0.2808  0.4982 -0.5280
17532SOL    HW153174   1.684   1.743   4.052  2.4646  0.8863 -0.4613
17532SOL    HW253175   1.615   1.609   4.048 -0.2545  2.1403  1.2532
17533SOL     OW53176   2.018   6.309   1.196  0.4472  0.3335  0.0950
17533SOL    HW153177   1.972   6.356   1.126 -0.4304 -1.7183 -0.8178
17533SOL    HW253178   2.024   6.372   1.267 -3.3440  0.9832  0.0741
17534SOL     OW53179   4.241   9.918   0.956  0.2972 -0.8532  0.0202
17534SOL    HW153180   4.315   9.905   1.016  0.5134 -0.7177 -0.2185
17534SOL    HW253181   4.205   9.830   0.944  0.9193 -1.0440 -0.5020
17535SOL     OW53182   6.774   8.724   9.433 -0.2603 -0.0459 -0.1362
17535SOL    HW153183   6.685   8.730   9.468  0.3233 -0.8940  1.6327
17535SOL    HW253184   6.771   8.773   9.351 -2.0387  1.0269  0.5124
17536SOL     OW53185   8.083   0.885   9.756  0.1762 -0.0486  0.0420
17536SOL    HW153186   8.082   0.954   9.690  0.0786  0.8172  0.9276
17536SOL    HW253187   8.127   0.812   9.713 -1.2419 -0.0609 -1.5153
17537SOL     OW53188   8.519   5.419   3.788 -0.4613  0.1965  0.1115
17537SOL    HW153189   8.479   5.333   3.783 -1.7768  0.7480  0.7318
17537SOL    HW253190   8.499   5.461   3.705  0.5729 -0.2357 -0.3764
17538SOL     OW53191   5.015   1.143   9.319 -0.1543  0.6092  0.2416
17538SOL    HW153192   5.081   1.139   9.388  0.1670  0.8587 -0.0499
17538SOL    HW253193   4.947   1.082   9.347  0.5016 -0.1502  0.2259
17539SOL     OW53194   1.482   5.116   0.993 -0.9227  0.3203  0.0006
17539SOL    HW153195   1.572   5.143   0.980 -1.0168  0.7004  0.1178
17539SOL    HW253196   1.431   5.196   0.980 -1.2199  0.1618  0.1775
17540SOL     OW53197   7.234   0.278   3.547  0.1341 -0.3074  0.3505
17540SOL    HW153198   7.291   0.201   3.553  2.5196  1.3032 -0.1550
17540SOL    HW253199   7.164   0.252   3.487  1.6903 -1.6175 -0.9991
17541SOL     OW53200   5.539   0.321   6.589  0.4485  0.1108  0.0806
17541SOL    HW153201   5.494   0.380   6.529  0.4673 -1.0566 -1.1304
17541SOL    HW253202   5.628   0.354   6.594  0.9555 -0.8190 -2.0307
17542SOL     OW53203   8.250   1.882   6.757 -0.0898  0.1362  0.2544
17542SOL    HW153204   8.308   1.806   6.757 -0.1305  0.1051  0.3390
17542SOL    HW253205   8.305   1.954   6.727 -0.0784  0.0526  0.0763
17543SOL     OW53206   8.795   2.859   9.964  0.3295 -0.2670 -0.2527
17543SOL    HW153207   8.804   2.943   9.919 -0.3860 -0.8618 -1.5778
17543SOL    HW253208   8.832   2.795   9.902 -1.2573 -1.1894 -0.2955
17544SOL     OW53209   0.091   6.184   2.666  0.0146  0.8553  0.5735
17544SOL    HW153210   0.112   6.277   2.659 -1.2642  1.0981 -0.2179
17544SOL    HW253211   0.028   6.168   2.596  0.7163 -0.7648  0.2723
17545SOL     OW53212   0.611   8.411   4.102  0.2203  0.0956  0.4061
17545SOL    HW153213   0.605   8.464   4.182  0.1134 -1.4973  1.4864
17545SOL    HW253214   0.700   8.428   4.070  1.0140 -0.7817  2.0088
17546SOL     OW53215   6.319   4.917   4.808  0.1970 -0.0908 -0.4115
17546SOL    HW153216   6.241   4.945   4.856  0.8448 -0.3173  0.8152
17546SOL    HW253217   6.315   4.822   4.809  1.8641 -0.2524  2.1684
17547SOL     OW53218   8.238   6.104   8.132  0.6212 -0.3961 -0.0229
17547SOL    HW153219   8.334   6.114   8.133  0.7190 -1.1099 -1.1827
17547SOL    HW253220   8.212   6.131   8.044  0.0589 -2.8418 -0.6556
17548SOL     OW53221   9.894   7.416   1.008  0.5450 -0.3844  0.4979
17548SOL    HW153222   9.889   7.388   1.100 -1.4073  0.3840  0.6724
17548SOL    HW253223   9.803   7.416   0.978  1.2759 -2.9359 -2.1909
17549SOL     OW53224   1.082   9.478   5.799 -0.2648  0.4323 -0.1095
17549SOL    HW153225   1.177   9.473   5.786  0.2473  0.9438  2.8335
17549SOL    HW253226   1.065   9.571   5.814 -0.9477  0.1391  1.0284
17550SOL     OW53227   3.258   0.626   7.981  0.2337 -0.0215  0.1593
17550SOL    HW153228   3.199   0.685   7.935  1.2090  2.0610  1.4106
17550SOL    HW253229   3.345   0.646   7.946  0.5533 -1.0337  0.3219
17551SOL     OW53230   0.985   5.278   3.029 -0.2003 -0.3507  0.2972
17551SOL    HW153231   0.911   5.235   2.986 -1.2086  0.1693  1.4501
17551SOL    HW253232   0.979   5.370   3.002  1.4135 -0.6825 -1.4314
17552SOL     OW53233   2.197   6.522   4.378  0.1195 -0.0802 -0.5121
17552SOL    HW153234   2.180   6.458   4.447 -1.9952  1.1364  0.1835
17552SOL    HW253235   2.110   6.556   4.354  0.9987  1.1759 -2.1792
17553SOL     OW53236   0.871   6.290   1.216  0.2296  0.0317  0.2363
17553SOL    HW153237   0.835   6.240   1.143  0.8883  3.4211 -2.6863
17553SOL    HW253238   0.821   6.372   1.217  0.3707  0.2455  3.5746
17554SOL     OW53239   0.388   5.384   3.403  0.6223 -0.6813  0.0932
17554SOL    HW153240   0.346   5.301   3.425 -1.1108  0.1712  0.1389
17554SOL    HW253241   0.431   5.367   3.319  0.1269 -1.5730  0.0094
17555SOL     OW53242   3.003   0.719   2.210 -0.2327  0.0016 -0.4979
17555SOL    HW153243   3.035   0.808   2.228  0.3373  0.0569 -1.6686
17555SOL    HW253244   2.958   0.727   2.125  0.8058 -1.0352 -1.1660
17556SOL     OW53245   6.743   8.694   7.399  0.7092  0.1629 -0.5100
17556SOL    HW153246   6.820   8.650   7.436  2.9035  3.1887 -1.0168
17556SOL    HW253247   6.739   8.663   7.308  0.2373 -1.2739 -0.0215
17557SOL     OW53248   0.254   1.421   2.925 -0.4507 -0.5375  0.2781
17557SOL    HW153249   0.303   1.429   3.007  0.6212  0.5730 -0.4256
17557SOL    HW253250   0.166   1.398   2.952  0.1082 -1.1533  1.6840
17558SOL     OW53251   2.736   1.302   1.636 -0.0221  0.5236  0.5010
17558SOL    HW153252   2.753   1.384   1.589  1.9549  0.3917  0.9119
17558SOL    HW253253   2.757   1.322   1.727 -1.3896  0.0725  0.9371
17559SOL     OW53254   4.677   3.526   1.876  0.6295  0.1497 -0.0172
17559SOL    HW153255   4.620   3.587   1.830  0.9678  0.1464 -0.4497
17559SOL    HW253256   4.638   3.517   1.963  1.5458  2.4098  0.7144
17560SOL     OW53257   1.127   4.463   0.725  0.0232 -0.0808  0.1957
17560SOL    HW153258   1.098   4.548   0.691  1.2529  0.2282 -0.1237
17560SOL    HW253259   1.221   4.461   0.708  0.3619 -0.7127  1.8951
17561SOL     OW53260   7.318   6.737   4.511  0.0047 -0.2914 -0.1502
17561SOL    HW153261   7.257   6.801   4.474 -0.3238 -0.5341 -0.0272
17561SOL    HW253262   7.380   6.790   4.561 -1.0754 -0.1707  1.1049
17562SOL     OW53263   6.430   8.486   3.826 -0.6738  0.3273  0.2643
17562SOL    HW153264   6.385   8.565   3.794  1.7186  1.9294  0.6160
17562SOL    HW253265   6.495   8.467   3.759 -1.2073 -1.3922  0.1981
17563SOL     OW53266   1.629   8.381   9.066  0.9223  0.0086 -0.7400
17563SOL    HW153267   1.690   8.454   9.074 -0.7713  1.4158  0.1599
17563SOL    HW253268   1.577   8.384   9.147  0.9793 -2.4092 -0.5200
17564SOL     OW53269   2.842   0.527   0.885 -0.6500  0.5045  0.0853
17564SOL    HW153270   2.927   0.502   0.849 -0.1803  1.0532  0.7813
17564SOL    HW253271   2.845   0.498   0.977 -0.8618  1.3086  0.3541
17565SOL     OW53272   2.588   3.641   6.788 -0.2648  0.2414  0.6634
17565SOL    HW153273   2.658   3.579   6.812  0.8634  1.1465 -0.2052
17565SOL    HW253274   2.609   3.720   6.838 -0.5417  0.5899  0.2271
17566SOL     OW53275   9.853   6.128   4.012 -0.4472  0.2332  0.3587
17566SOL    HW153276   9.796   6.181   3.957 -2.5428  0.3261  2.4141
17566SOL    HW253277   9.934   6.177   4.018 -0.6120  0.8031 -1.5859
17567SOL     OW53278   6.019   9.680   0.836  0.2216  0.4014 -0.2007
17567SOL    HW153279   6.051   9.732   0.762  1.4560  0.5899  0.4407
17567SOL    HW253280   5.937   9.641   0.804  0.7031  0.5062 -1.6490
17568SOL     OW53281   5.538   2.776   1.593  0.2247 -0.2097 -0.5250
17568SOL    HW153282   5.470   2.710   1.605  0.1650 -0.0195  0.2400
17568SOL    HW253283   5.608   2.751   1.654  0.6872 -0.1986 -1.0405
17569SOL     OW53284   4.516   9.570   4.775  0.0475 -0.0787 -0.3445
17569SOL    HW153285   4.601   9.595   4.740 -0.1470  0.1111 -0.6860
17569SOL    HW253286   4.473   9.523   4.704 -0.6910  1.0716 -0.6918
17570SOL     OW53287   4.851   4.500   8.670 -0.6538  0.2933 -0.4043
17570SOL    HW153288   4.922   4.511   8.606 -0.9902  0.9744 -0.6652
17570SOL    HW253289   4.848   4.405   8.685 -0.0794  0.1980 -0.8319
17571SOL     OW53290   3.335   4.531   0.985 -0.3613  0.3010 -0.3678
17571SOL    HW153291   3.279   4.456   1.008  0.2312 -0.2476 -0.6779
17571SOL    HW253292   3.382   4.502   0.907  1.1657  0.3335  0.5162
17572SOL     OW53293   3.244   9.397   2.276  0.0316 -0.1281  0.3435
17572SOL    HW153294   3.223   9.305   2.291  1.6346 -0.4888  0.5530
17572SOL    HW253295   3.240   9.407   2.181 -1.0682 -0.1569  0.3701
17573SOL     OW53296   3.833   6.106   8.952 -0.7009 -0.1326  0.0886
17573SOL    HW153297   3.877   6.033   8.908 -0.5231 -0.2827  0.5143
17573SOL    HW253298   3.861   6.183   8.902 -0.1214 -0.2496  0.2189
17574SOL     OW53299   3.512   0.674   7.849  0.0527 -0.8925 -0.1657
17574SOL    HW153300   3.511   0.716   7.763 -2.1032 -1.2239 -0.3546
17574SOL    HW253301   3.505   0.580   7.831  1.6523 -1.1344  0.3414
17575SOL     OW53302   1.156   8.069   6.697 -0.6043  0.2573 -0.5664
17575SOL    HW153303   1.137   8.158   6.668 -0.0990  0.1297 -1.3318
17575SOL    HW253304   1.252   8.063   6.694 -0.5575  0.1139  0.7853
17576SOL     OW53305   7.752   2.988   4.407  0.0734  0.2425 -0.1388
17576SOL    HW153306   7.783   3.024   4.324 -1.8495 -0.4452 -1.2383
17576SOL    HW253307   7.825   2.936   4.440  1.0190  0.8718 -1.1830
17577SOL     OW53308   0.932   6.382   9.431 -0.2412  0.4704  0.0742
17577SOL    HW153309   0.937   6.427   9.515  0.1950 -0.7354  0.7198
17577SOL    HW253310   0.973   6.442   9.369  0.2615  0.9832  0.8820
17578SOL     OW53311   6.599   6.174   8.415  0.1678 -0.2088  0.8317
17578SOL    HW153312   6.631   6.090   8.380 -0.4496 -0.2010  0.2210
17578SOL    HW253313   6.671   6.207   8.468  1.4796  0.1659 -1.0970
17579SOL     OW53314   2.141   7.765   4.642  0.2326  0.4422 -0.0267
17579SOL    HW153315   2.127   7.772   4.736 -1.6932 -0.3189 -0.2001
17579SOL    HW253316   2.124   7.673   4.622 -0.3385  0.7906 -1.2305
17580SOL     OW53317   1.907   7.451   9.602  0.4922  0.2698 -0.1763
17580SOL    HW153318   1.959   7.439   9.682  0.0754  0.3988  0.1144
17580SOL    HW253319   1.928   7.374   9.549  0.3027 -0.1295  0.3152
17581SOL     OW53320   6.837   4.933   4.611  0.1559  0.2013 -0.0086
17581SOL    HW153321   6.803   4.862   4.557  1.4041  0.8136 -1.6759
17581SOL    HW253322   6.777   5.006   4.596 -0.8317 -0.3016  1.3049
17582SOL     OW53323   0.017   2.351   7.005  0.0990 -0.1700  0.0272
17582SOL    HW153324   0.036   2.437   7.042  0.2830 -0.0583 -0.3250
17582SOL    HW253325   0.082   2.294   7.046  0.1464 -0.0920  0.0613
17583SOL     OW53326   1.466   6.094   6.384 -0.2530 -0.1469 -0.1466
17583SOL    HW153327   1.483   6.136   6.299  0.8565  0.8748  0.5398
17583SOL    HW253328   1.553   6.068   6.415 -0.6442 -0.4943  0.6752
17584SOL     OW53329   0.041   7.292   4.318 -0.2956 -0.0871 -0.2174
17584SOL    HW153330   0.084   7.378   4.327 -1.8372  0.8530 -1.4184
17584SOL    HW253331   0.043   7.255   4.406  1.4489  0.6500  0.0963
17585SOL     OW53332   6.376   3.541   5.915 -0.4917  0.1941  0.1584
17585SOL    HW153333   6.440   3.497   5.971 -0.6641 -1.5723 -0.9614
17585SOL    HW253334   6.379   3.633   5.942  2.3434  0.1266  0.2758
17586SOL     OW53335   6.486   8.470   8.596 -0.5701 -0.2038  0.3931
17586SOL    HW153336   6.426   8.397   8.609  1.9231 -2.5536 -0.4199
17586SOL    HW253337   6.571   8.429   8.577  0.3904  2.8116 -3.1288
17587SOL     OW53338   3.714   0.361   5.829 -0.0646  0.1940 -0.3353
17587SOL    HW153339   3.661   0.286   5.856  2.0929 -1.6578 -0.9467
17587SOL    HW253340   3.749   0.397   5.911 -2.1688  1.4583  0.0785
17588SOL     OW53341   7.328   4.755   3.328 -0.1414  0.3542 -0.0792
17588SOL    HW153342   7.273   4.828   3.357 -0.0880  0.0080  0.9503
17588SOL    HW253343   7.410   4.795   3.301  0.0738  0.6547  0.9631
17589SOL     OW53344   0.044   2.615   7.038  0.5802 -0.2337  0.4912
17589SOL    HW153345  -0.038   2.573   7.014  0.9316  0.0022 -1.2284
17589SOL    HW253346   0.025   2.709   7.036  0.5662 -0.2027  1.4188
17590SOL     OW53347   5.975   1.302   6.634  0.3036  0.0406 -0.2960
17590SOL    HW153348   5.950   1.338   6.719  0.0173 -1.0159  0.0848
17590SOL    HW253349   5.997   1.379   6.581  2.0264  0.6725  1.2110
17591SOL     OW53350   7.683   4.487   8.191  0.0062 -0.4585 -0.1697
17591SOL    HW153351   7.768   4.467   8.152 -0.3092 -1.2255 -0.4622
17591SOL    HW253352   7.702   4.556   8.255  1.4991 -3.0213  2.3953
17592SOL     OW53353   4.225   8.509   3.887  0.0736 -0.0958  0.6368
17592SOL    HW153354   4.133   8.482   3.894  0.0454 -0.0825  0.3169
17592SOL    HW253355   4.265   8.475   3.967 -0.0681 -0.6702  0.4695
17593SOL     OW53356   8.005   8.661   9.611 -0.1922  0.2162 -0.3042
17593SOL    HW153357   8.028   8.707   9.691  2.0707 -0.2242 -0.6173
17593SOL    HW253358   7.959   8.726   9.558  1.1636  1.5347  0.0620
17594SOL     OW53359   2.907   0.819   7.219  0.2630 -0.3930  0.0981
17594SOL    HW153360   2.883   0.897   7.268  1.8324  0.8635 -1.0253
17594SOL    HW253361   2.989   0.842   7.177  0.1070 -2.2171 -1.3118
17595SOL     OW53362   1.199   3.999   8.774 -0.3520  0.1016 -0.1583
17595SOL    HW153363   1.279   4.011   8.724  0.2244  0.4916  0.8206
17595SOL    HW253364   1.217   3.924   8.831 -0.3462  0.7205  0.6795
17596SOL     OW53365   7.767   4.502   8.548 -0.6963  0.1129  0.2675
17596SOL    HW153366   7.823   4.473   8.476 -0.7447 -0.6674  0.5294
17596SOL    HW253367   7.801   4.588   8.572  0.8031 -0.5759  0.8029
17597SOL     OW53368   5.272   9.505   8.934 -0.2128 -0.2058 -0.2319
17597SOL    HW153369   5.339   9.521   9.001 -0.4962 -3.1094  0.9150
17597SOL    HW253370   5.203   9.568   8.953  0.2688 -0.1459  1.4781
17598SOL     OW53371   6.799   3.551   9.769  0.1005 -0.1142  0.2879
17598SOL    HW153372   6.850   3.598   9.703  0.4076 -1.0828 -0.1821
17598SOL    HW253373   6.864   3.516   9.830 -0.0421 -0.7163  0.1068
17599SOL     OW53374   1.376   8.460   1.382 -0.0404 -0.1498  0.0276
17599SOL    HW153375   1.322   8.387   1.412 -0.6849 -0.3995 -1.6599
17599SOL    HW253376   1.324   8.538   1.402 -1.7806 -0.4532 -2.8797
17600SOL     OW53377   6.159   5.332   2.976 -0.7733 -0.5059  0.2459
17600SOL    HW153378   6.221   5.373   3.037 -1.4593 -1.1011  1.3542
17600SOL    HW253379   6.105   5.405   2.945 -0.6245 -0.2475  0.5886
17601SOL     OW53380   4.525   2.499   7.737  0.5363  0.3770 -0.3008
17601SOL    HW153381   4.569   2.580   7.713  0.6110 -0.0159 -1.5387
17601SOL    HW253382   4.574   2.466   7.813  1.4870  0.6794 -0.7770
17602SOL     OW53383   6.623   7.510   9.151 -0.0309  0.1773  0.3846
17602SOL    HW153384   6.622   7.449   9.225  1.1423 -0.6666 -0.2630
17602SOL    HW253385   6.580   7.461   9.080 -1.1624  0.9853  0.4859
17603SOL     OW53386   0.708   1.687   7.507  0.4733  0.1030  0.1980
17603SOL    HW153387   0.619   1.663   7.481  0.7755  1.7040 -2.6889
17603SOL    HW253388   0.720   1.644   7.592 -1.9272 -2.7275 -0.7202
17604SOL     OW53389   4.708   8.409   7.451  0.1321  0.7577 -0.1220
17604SOL    HW153390   4.651   8.454   7.512  0.2093 -1.3613  1.6310
17604SOL    HW253391   4.788   8.392   7.500  0.4736 -0.3850 -1.0147
17605SOL     OW53392   7.985   6.771   4.629 -0.0884 -0.2404 -0.0395
17605SOL    HW153393   7.988   6.844   4.566 -0.1451 -0.8702 -0.7867
17605SOL    HW253394   8.054   6.712   4.600  0.9143  0.1648  1.4031
17606SOL     OW53395   7.177   4.662   3.570  0.5660 -0.2143  0.7560
17606SOL    HW153396   7.205   4.710   3.648 -1.6737  1.2766  0.7406
17606SOL    HW253397   7.097   4.617   3.598  0.6661 -1.0320 -0.2431
17607SOL     OW53398   8.869   0.034   0.766 -0.3935  0.3191  0.0529
17607SOL    HW153399   8.865  -0.058   0.791 -2.3950  0.2359 -0.4285
17607SOL    HW253400   8.913   0.035   0.681 -0.8447 -0.2699 -0.1943
17608SOL     OW53401   0.933   2.857   9.216 -0.9172  0.0167 -0.0029
17608SOL    HW153402   0.855   2.914   9.221 -0.9799  0.0657 -1.1688
17608SOL    HW253403   0.994   2.894   9.280 -1.6469  0.2963  0.5489
17609SOL     OW53404   6.560   0.877   9.771 -0.9021  0.3484  0.9052
17609SOL    HW153405   6.524   0.833   9.848  0.8973 -0.7938  1.1515
17609SOL    HW253406   6.651   0.897   9.796 -0.3536  0.1624 -0.8262
17610SOL     OW53407   9.505   9.639   3.669 -0.1477 -0.0451 -0.1771
17610SOL    HW153408   9.524   9.720   3.716 -0.5258  0.3953 -0.7744
17610SOL    HW253409   9.589   9.592   3.667  0.3642  0.8771 -0.8747
17611SOL     OW53410   3.762   5.057   8.625  0.0270  0.4180  0.0067
17611SOL    HW153411   3.717   5.112   8.560 -1.7007 -1.9222 -0.9079
17611SOL    HW253412   3.693   5.002   8.661  1.5012 -0.4176  1.6858
17612SOL     OW53413   6.807  10.012   0.920 -0.1926 -0.2784  0.4108
17612SOL    HW153414   6.737  10.004   0.855  0.6638 -0.2793 -0.5264
17612SOL    HW253415   6.821   9.923   0.951  1.6713 -0.8599 -1.8666
17613SOL     OW53416   6.899   9.437   4.413  0.2800  0.3828  0.4286
17613SOL    HW153417   6.816   9.485   4.418  0.6718  1.1512 -0.0919
17613SOL    HW253418   6.874   9.345   4.412 -0.7278  0.6197 -2.0998
17614SOL     OW53419   7.279   6.385   1.628  0.0180  0.1625 -0.1766
17614SOL    HW153420   7.325   6.460   1.667  1.6881 -0.9491  0.1211
17614SOL    HW253421   7.318   6.309   1.670 -2.4378 -0.8877  0.3745
17615SOL     OW53422   9.678   4.681   8.255 -0.6458  0.0872 -0.0291
17615SOL    HW153423   9.619   4.607   8.238  1.4204 -1.8501  0.5918
17615SOL    HW253424   9.650   4.749   8.194 -2.3209 -1.4113 -1.0413
17616SOL     OW53425   3.532   0.709   5.822  0.3856  0.0414  0.2012
17616SOL    HW153426   3.550   0.801   5.807 -0.0495  0.2806  1.0553
17616SOL    HW253427   3.565   0.692   5.910  1.1934 -0.8245 -0.2526
17617SOL     OW53428   5.599   9.672   1.534  0.0760  0.2073 -0.2257
17617SOL    HW153429   5.553   9.755   1.524 -0.7822 -0.4155 -1.8655
17617SOL    HW253430   5.662   9.670   1.462 -1.3943 -1.4400 -1.5497
17618SOL     OW53431   8.966   5.356   0.436 -0.1779 -0.1975  0.5711
17618SOL    HW153432   8.976   5.267   0.401 -1.9905  0.2205 -1.1756
17618SOL    HW253433   8.894   5.394   0.386  0.9548  2.5172  0.8275
17619SOL     OW53434   3.380   0.442   5.947  0.5255 -0.4802  0.0785
17619SOL    HW153435   3.308   0.380   5.944 -1.3893  1.5816  0.8384
17619SOL    HW253436   3.413   0.445   5.858 -1.8114  0.0980 -0.8397
17620SOL     OW53437   8.151   9.695   0.159 -0.4790  0.0688 -0.1209
17620SOL    HW153438   8.114   9.781   0.179 -3.3310 -1.0028 -0.3408
17620SOL    HW253439   8.123   9.677   0.070 -0.6046 -1.4196  0.2044
17621SOL     OW53440   6.704   4.914   7.927  0.4435  0.1191  0.0753
17621SOL    HW153441   6.785   4.965   7.923  0.5493 -0.0660 -0.1794
17621SOL    HW253442   6.727   4.836   7.977  0.0563  0.7245  1.2325
17622SOL     OW53443   8.559   7.061   0.831 -0.1853  0.3594 -0.1497
17622SOL    HW153444   8.632   7.035   0.888  0.0388  1.2837 -0.0043
17622SOL    HW253445   8.601   7.078   0.746 -0.5220 -1.0507 -0.6320
17623SOL     OW53446   9.138   4.364   0.990 -0.3642  0.4589 -0.4502
17623SOL    HW153447   9.091   4.443   1.017  1.3588  1.3589  0.0732
17623SOL    HW253448   9.227   4.394   0.974  0.0957 -1.2226 -1.2120
17624SOL     OW53449   3.235   5.250   0.087 -0.5368  0.1706  0.0059
17624SOL    HW153450   3.290   5.273   0.162 -0.0742  0.1926 -0.3333
17624SOL    HW253451   3.145   5.266   0.117 -0.2768  2.1379 -0.1052
17625SOL     OW53452   7.719   4.997   4.707  0.2819  0.2577  0.2801
17625SOL    HW153453   7.789   4.933   4.723  0.0193  0.0728  0.7047
17625SOL    HW253454   7.744   5.074   4.757  0.5608  0.4662 -0.1727
17626SOL     OW53455   7.011   1.811   7.837  0.0878 -0.3550  0.0772
17626SOL    HW153456   7.074   1.818   7.765  1.5522 -0.8998  1.2369
17626SOL    HW253457   6.930   1.782   7.796  0.7102 -0.0802 -1.4223
17627SOL     OW53458   7.157   5.270   5.383 -0.3607 -0.2023  0.0179
17627SOL    HW153459   7.084   5.239   5.436  0.4305  0.4155  1.5214
17627SOL    HW253460   7.235   5.247   5.433  0.5306 -1.2375 -1.7551
17628SOL     OW53461   1.561   9.351   4.237  0.0129 -0.2496 -0.0468
17628SOL    HW153462   1.639   9.406   4.248 -0.0379  0.1997 -1.6739
17628SOL    HW253463   1.492   9.398   4.283  0.3024  0.3096 -0.1708
17629SOL     OW53464   9.600   2.256   7.406 -0.4708 -0.2379 -0.4574
17629SOL    HW153465   9.622   2.279   7.496 -2.2100  1.2348 -0.3658
17629SOL    HW253466   9.630   2.330   7.354  0.9581 -1.2865 -1.2129
17630SOL     OW53467   5.132   0.351   1.176 -0.1276 -0.9744  0.0843
17630SOL    HW153468   5.079   0.430   1.180 -0.6126 -1.3601  2.1335
17630SOL    HW253469   5.123   0.321   1.085 -0.0274  1.2110 -0.6947
17631SOL     OW53470   7.494   5.722   8.925 -0.3696  0.0789 -0.3946
17631SOL    HW153471   7.475   5.765   8.841 -0.4336  0.8112 -0.0048
17631SOL    HW253472   7.579   5.757   8.951 -0.0906 -0.5679 -0.4165
17632SOL     OW53473   1.388   5.380   2.073 -0.5298  0.3951 -0.0210
17632SOL    HW153474   1.426   5.440   2.137  0.5487  0.2784 -0.5369
17632SOL    HW253475   1.372   5.299   2.122  2.0198 -0.3390 -0.2590
17633SOL     OW53476   6.802   5.965   4.595  0.0742 -0.3127  0.0672
17633SOL    HW153477   6.806   5.871   4.580  1.2633 -0.4476  1.0359
17633SOL    HW253478   6.798   5.973   4.691 -0.2907  0.6141 -0.0165
17634SOL     OW53479   8.051   0.620   2.096  0.1172  0.1872 -0.1993
17634SOL    HW153480   8.145   0.637   2.091 -0.2176  2.5616  0.5163
17634SOL    HW253481   8.032   0.615   2.189 -0.2148 -2.2253 -0.3390
17635SOL     OW53482   1.669   2.799   8.867 -0.1467 -0.4572  0.1766
17635SOL    HW153483   1.584   2.780   8.908  0.1185  0.6306  1.2667
17635SOL    HW253484   1.726   2.728   8.897 -0.1239 -0.0197  1.2381
17636SOL     OW53485   8.353   5.895   4.926  0.2029 -0.4828  0.0738
17636SOL    HW153486   8.399   5.838   4.865 -0.0578 -1.4174  0.7176
17636SOL    HW253487   8.319   5.966   4.872  1.0301 -0.6205 -0.6573
17637SOL     OW53488   8.473   0.898   7.020  0.9047  0.0113  0.5550
17637SOL    HW153489   8.468   0.816   7.068  0.1736 -0.1670  0.2076
17637SOL    HW253490   8.560   0.899   6.981  0.6823 -0.9364  0.0015
17638SOL     OW53491   0.458   1.584   8.849  0.3723  0.4178  0.1817
17638SOL    HW153492   0.411   1.523   8.906 -0.3070 -0.2559 -1.0569
17638SOL    HW253493   0.393   1.648   8.822 -0.4257 -1.4838 -2.9080
17639SOL     OW53494   2.148   5.112   6.767  0.5489  0.4404 -0.0553
17639SOL    HW153495   2.211   5.047   6.735 -2.1549 -1.8248 -1.3007
17639SOL    HW253496   2.140   5.094   6.860  2.2262  1.2832  0.2836
17640SOL     OW53497   5.975   3.817   0.325  0.5011 -0.5833 -0.1550
17640SOL    HW153498   5.887   3.854   0.315  0.9093  0.1661 -1.0679
17640SOL    HW253499   6.027   3.861   0.259  1.4760 -1.3461  0.0898
17641SOL     OW53500   6.450   0.108   2.204  0.1944 -0.0959  0.3712
17641SOL    HW153501   6.369   0.083   2.248 -0.8310  1.6743 -0.4262
17641SOL    HW253502   6.517   0.102   2.272 -1.1035  1.2246  1.8456
17642SOL     OW53503   3.896   1.346   1.400 -0.5632  0.5596  0.4326
17642SOL    HW153504   3.923   1.361   1.309 -0.5986 -0.8466  0.1658
17642SOL    HW253505   3.925   1.425   1.447  0.9226  0.5954 -0.4881
17643SOL     OW53506   1.829   4.742   1.431 -0.4314 -0.1288 -0.3301
17643SOL    HW153507   1.839   4.835   1.449  1.0960  0.2512 -2.6427
17643SOL    HW253508   1.757   4.738   1.367 -0.3012 -0.4849 -0.4590
17644SOL     OW53509   8.753   3.618   9.866  0.1273 -0.1019 -0.2171
17644SOL    HW153510   8.671   3.580   9.898 -0.5488  1.5946  0.2207
17644SOL    HW253511   8.815   3.546   9.868 -1.3015 -1.3995 -0.3827
17645SOL     OW53512   4.342   6.117   9.965  0.0394  0.6097 -0.1953
17645SOL    HW153513   4.345   6.207   9.934  0.4608  1.1716  1.3646
17645SOL    HW253514   4.254   6.107  10.002  0.4280  0.8247  0.8188
17646SOL     OW53515   8.583   3.186   2.577 -0.2548 -0.5175 -0.1598
17646SOL    HW153516   8.633   3.230   2.647 -1.1837 -0.8090  0.7117
17646SOL    HW253517   8.519   3.133   2.624 -1.4495 -0.0855 -1.2558
17647SOL     OW53518   0.047   8.531   6.448  0.5507  0.7166 -0.1778
17647SOL    HW153519   0.084   8.523   6.360  0.5843 -1.4794  0.0005
17647SOL    HW253520  -0.022   8.597   6.438  1.0059  1.0023 -1.6868
17648SOL     OW53521   7.877   6.629   6.704 -0.6179  0.3001  0.5833
17648SOL    HW153522   7.913   6.716   6.693 -0.1472 -0.1288 -1.7440
17648SOL    HW253523   7.792   6.633   6.660  0.0955 -0.7960 -0.9809
17649SOL     OW53524   3.034   4.840   2.479  0.0684 -0.0324 -0.4123
17649SOL    HW153525   3.010   4.888   2.401 -2.1882 -0.2879  0.0662
17649SOL    HW253526   3.044   4.749   2.450  1.7381  0.2402 -0.8186
17650SOL     OW53527   3.276   7.407   1.916 -0.1577  0.7741 -0.8079
17650SOL    HW153528   3.188   7.428   1.885 -0.2063  0.1836 -1.0782
17650SOL    HW253529   3.316   7.359   1.844  0.7948  2.0286 -1.1554
17651SOL     OW53530   3.397   7.712   3.403 -0.2376  0.5750 -0.0354
17651SOL    HW153531   3.468   7.761   3.362 -0.0610  0.7526  0.4786
17651SOL    HW253532   3.387   7.751   3.490 -0.4372  0.0373  0.1889
17652SOL     OW53533   9.689   3.654   7.921  0.3346  0.5268  0.0735
17652SOL    HW153534   9.669   3.598   7.846 -1.5915  0.4525  0.5895
17652SOL    HW253535   9.671   3.743   7.889 -0.1545  0.5229  0.3265
17653SOL     OW53536   5.291   5.530   2.337 -0.4028  0.0367  0.0569
17653SOL    HW153537   5.250   5.447   2.359 -1.5474  0.0531 -1.8107
17653SOL    HW253538   5.280   5.584   2.415  0.9187 -1.7142  1.5422
17654SOL     OW53539   6.113   2.792   5.918 -0.0143  0.3743 -0.1950
17654SOL    HW153540   6.184   2.795   5.982  0.0170  1.1014 -0.2509
17654SOL    HW253541   6.156   2.811   5.834 -0.4393  2.1298 -0.0606
17655SOL     OW53542   7.041   5.214   4.916  0.5578 -0.0511 -0.3062
17655SOL    HW153543   6.993   5.260   4.847 -0.0750 -0.4457 -0.1299
17655SOL    HW253544   7.004   5.126   4.916  0.6037 -0.0715  0.4942
17656SOL     OW53545   2.216   5.341   4.065 -0.4611  0.2136 -0.3879
17656SOL    HW153546   2.178   5.254   4.079 -1.0521  0.3464 -1.1084
17656SOL    HW253547   2.226   5.348   3.970 -0.5314  0.9748 -0.3463
17657SOL     OW53548   8.726   0.013   5.973  0.2823 -0.0838 -0.1873
17657SOL    HW153549   8.740   0.008   5.879 -1.6033  1.2597 -0.6170
17657SOL    HW253550   8.632  -0.005   5.985 -0.0093  1.9111  1.1416
17658SOL     OW53551   9.910   5.560   2.017 -1.0333  0.0881 -0.0973
17658SOL    HW153552   9.973   5.567   2.089 -0.6568 -1.3603 -0.2471
17658SOL    HW253553   9.877   5.470   2.024 -2.5807  0.6108 -0.4464
17659SOL     OW53554   3.337   8.058   8.245 -0.3089 -0.2000  0.1583
17659SOL    HW153555   3.277   8.114   8.197 -0.0332 -1.3061 -1.5636
17659SOL    HW253556   3.386   8.118   8.301 -0.2405  1.2566 -1.3871
17660SOL     OW53557   0.746   4.839   6.753 -0.3670  0.2499 -0.1733
17660SOL    HW153558   0.774   4.792   6.832 -0.2439  0.0343 -0.3415
17660SOL    HW253559   0.813   4.816   6.688  0.6770  2.0212  0.1975
17661SOL     OW53560   3.690   7.286   1.868  0.2629  0.3410 -0.2372
17661SOL    HW153561   3.656   7.291   1.958  1.6393 -2.5989  0.5435
17661SOL    HW253562   3.612   7.290   1.813 -0.9415 -1.2829  1.2654
17662SOL     OW53563   8.133   5.577   1.218  0.4776  0.0612 -0.0622
17662SOL    HW153564   8.127   5.643   1.149 -0.8569 -0.0138 -0.0363
17662SOL    HW253565   8.053   5.589   1.270 -0.1190 -1.9745 -0.4235
17663SOL     OW53566   9.950   3.445   2.043 -0.3798  0.0835 -0.4505
17663SOL    HW153567   9.888   3.390   1.994 -0.5562 -1.1544  1.0711
17663SOL    HW253568   9.904   3.468   2.124  0.5248  0.5886 -0.0610
17664SOL     OW53569   6.872   6.645   8.417  0.0815 -0.0747 -0.1126
17664SOL    HW153570   6.894   6.613   8.330  0.0383  2.0816 -0.9795
17664SOL    HW253571   6.786   6.684   8.408  0.0574  0.1515  0.9149
17665SOL     OW53572   8.824   1.181   1.765 -0.2560  0.3161 -0.2003
17665SOL    HW153573   8.765   1.150   1.834  0.7975 -1.0876  0.1036
17665SOL    HW253574   8.776   1.253   1.723 -2.0691 -0.6068  0.2059
17666SOL     OW53575   8.857   4.800   4.746 -0.4316  0.3786  0.3384
17666SOL    HW153576   8.764   4.781   4.733 -0.5128  0.6998  0.4263
17666SOL    HW253577   8.893   4.809   4.658 -0.4259 -0.0214  0.3003
17667SOL     OW53578   9.509   8.826   2.218  0.2894  0.2995  0.7571
17667SOL    HW153579   9.437   8.847   2.159 -0.0516 -1.2607  0.5963
17667SOL    HW253580   9.566   8.903   2.214 -1.2752  1.5066  0.7975
17668SOL     OW53581   4.224   4.663   0.027  0.3962  0.1773 -0.5480
17668SOL    HW153582   4.183   4.732   0.079  2.5622  0.1100  1.4376
17668SOL    HW253583   4.207   4.688  -0.064 -1.4348  1.6654  0.1354
17669SOL     OW53584   1.645   5.289   9.470  0.0622  0.3503  0.2123
17669SOL    HW153585   1.704   5.346   9.420 -0.7244  0.9828 -0.0161
17669SOL    HW253586   1.664   5.201   9.439  1.4930  0.4322  0.7538
17670SOL     OW53587   1.802   7.598   4.700 -0.1542  0.1885  0.3362
17670SOL    HW153588   1.886   7.575   4.739  0.4892 -1.6281 -1.8668
17670SOL    HW253589   1.737   7.554   4.756  0.6873 -1.7932 -0.1371
17671SOL     OW53590   7.818   9.317   2.609 -0.0781  0.6710 -0.2888
17671SOL    HW153591   7.907   9.351   2.597 -0.4222  1.6404 -0.1565
17671SOL    HW253592   7.807   9.309   2.703  0.3601 -0.8453 -0.3312
17672SOL     OW53593   2.927   0.703   7.576  0.4148 -0.3423  0.0864
17672SOL    HW153594   2.925   0.677   7.668 -0.2342  0.0846  0.2043
17672SOL    HW253595   2.901   0.795   7.576 -0.8177 -0.6519 -0.6128
17673SOL     OW53596   6.283   7.280   2.882  0.7424  0.3263 -0.0169
17673SOL    HW153597   6.270   7.354   2.941 -0.3122  0.3701 -0.2865
17673SOL    HW253598   6.218   7.293   2.813  1.0356 -0.4666 -0.4493
17674SOL     OW53599   4.056   3.986   4.936  0.1012  0.2058  0.5432
17674SOL    HW153600   4.127   4.050   4.942  1.6186 -1.3481 -0.0433
17674SOL    HW253601   4.079   3.932   4.860 -1.2586 -0.8893  0.8686
17675SOL     OW53602   9.191   3.017   8.850  0.5058  0.5001 -0.2993
17675SOL    HW153603   9.204   3.094   8.793 -0.5615  1.6345  0.9142
17675SOL    HW253604   9.240   3.038   8.929  0.4596 -0.2292 -0.0752
17676SOL     OW53605   0.870   2.355   2.417 -0.4679  0.1749  0.3756
17676SOL    HW153606   0.922   2.421   2.463 -1.1351  1.9366 -1.2558
17676SOL    HW253607   0.935   2.303   2.369 -0.0710  2.4229 -1.7395
17677SOL     OW53608   4.904   3.045   9.658  0.2961 -0.3753  0.4552
17677SOL    HW153609   4.849   3.089   9.722  0.6379  0.5524  0.1323
17677SOL    HW253610   4.857   3.054   9.575 -0.0781 -1.4448  0.5366
17678SOL     OW53611   9.349   1.072   7.295  0.3261  0.1354 -0.4373
17678SOL    HW153612   9.324   0.980   7.294  0.7732  0.0169 -0.9408
17678SOL    HW253613   9.272   1.118   7.261 -0.0711  0.0034  0.2485
17679SOL     OW53614   3.233   2.490   4.784  0.1069 -0.5104 -0.2654
17679SOL    HW153615   3.190   2.464   4.702 -0.1948  1.4134 -0.7582
17679SOL    HW253616   3.161   2.513   4.842  0.3802  0.0849 -0.1597
17680SOL     OW53617   0.567   5.654   9.314  0.2289  0.4999  0.4295
17680SOL    HW153618   0.498   5.701   9.360  0.7036  0.6219  1.0246
17680SOL    HW253619   0.633   5.721   9.294 -0.3018  0.6068 -1.1090
17681SOL     OW53620   0.500   1.009   5.476  0.4274 -0.5624  0.4056
17681SOL    HW153621   0.492   1.013   5.571 -0.8051  2.3370  0.2776
17681SOL    HW253622   0.423   0.960   5.447 -0.1549  0.0754  0.8424
17682SOL     OW53623   5.776   1.361   7.210  0.0499  0.1990  0.3415
17682SOL    HW153624   5.728   1.288   7.172 -1.0214  0.8538  0.3560
17682SOL    HW253625   5.787   1.423   7.138  1.3805 -0.1695  0.2104
17683SOL     OW53626   8.644   2.430   1.691 -0.3712  0.4553 -0.2203
17683SOL    HW153627   8.628   2.488   1.766  1.8264 -0.0943  0.7652
17683SOL    HW253628   8.670   2.489   1.620 -3.2456  1.0534 -0.8735
17684SOL     OW53629   4.602   4.699   6.634 -0.5092 -0.2133  0.1192
17684SOL    HW153630   4.637   4.765   6.694  0.7623  0.4557 -1.3033
17684SOL    HW253631   4.539   4.747   6.580  0.4806 -0.0867 -0.9732
17685SOL     OW53632   3.592   5.694   2.089  0.1604 -0.2465  0.3537
17685SOL    HW153633   3.651   5.695   2.014 -0.6688  1.1197 -0.3071
17685SOL    HW253634   3.634   5.635   2.151  1.9221  0.2342 -0.3288
17686SOL     OW53635   4.775   2.371   3.511 -0.0459 -0.1399 -0.2110
17686SOL    HW153636   4.774   2.276   3.516  0.6561 -0.1006  1.1977
17686SOL    HW253637   4.860   2.393   3.472  1.1047 -0.0582  2.1647
17687SOL     OW53638   2.833   4.234   6.099 -0.4009  0.8459 -0.2555
17687SOL    HW153639   2.907   4.182   6.127  0.0533  0.7918 -1.5113
17687SOL    HW253640   2.858   4.324   6.120 -0.8946  0.6522  1.2702
17688SOL     OW53641   4.157   6.109   3.082 -0.1605 -0.4362  0.4419
17688SOL    HW153642   4.203   6.028   3.061  0.4037  0.0197 -0.1153
17688SOL    HW253643   4.142   6.104   3.177 -1.4583 -1.8578  0.1880
17689SOL     OW53644   0.687   3.742   9.668  0.2259 -0.2152 -0.6150
17689SOL    HW153645   0.657   3.769   9.755  0.4548  0.9508 -0.8936
17689SOL    HW253646   0.629   3.788   9.607 -0.0306 -1.1403 -1.0995
17690SOL     OW53647   4.442   7.450   3.154  0.1332 -0.5869 -0.1043
17690SOL    HW153648   4.410   7.388   3.089 -0.3376  0.7795 -1.2380
17690SOL    HW253649   4.508   7.402   3.203  0.2969 -1.7541 -1.4147
17691SOL     OW53650   5.998   9.748   6.220  0.4343 -0.0724 -0.2683
17691SOL    HW153651   5.937   9.811   6.180 -2.3948 -2.3476  0.0996
17691SOL    HW253652   5.970   9.743   6.312  1.3808 -0.9670 -0.0116
17692SOL     OW53653   8.902   0.443   4.234  0.1087 -0.2092  0.1919
17692SOL    HW153654   8.888   0.384   4.308 -0.1863 -1.2661 -0.6805
17692SOL    HW253655   8.815   0.453   4.195  0.5265 -1.0128 -0.9975
17693SOL     OW53656   3.046   7.826   4.040 -0.9603 -0.6767 -0.2328
17693SOL    HW153657   3.137   7.821   4.070 -1.0372 -0.8912 -0.0283
17693SOL    HW253658   3.041   7.907   3.989 -0.6922 -0.5870 -0.1160
17694SOL     OW53659   1.541   1.917   8.752 -0.0697 -0.5240 -0.2452
17694SOL    HW153660   1.560   1.823   8.748  0.3410 -0.4699  0.3230
17694SOL    HW253661   1.521   1.933   8.844 -0.3148 -0.0818 -0.3719
17695SOL     OW53662   7.197   4.308   8.033 -0.3474 -0.2305  0.1192
17695SOL    HW153663   7.290   4.295   8.054 -0.4224 -1.1189 -0.0620
17695SOL    HW253664   7.176   4.393   8.071  0.7055  0.2793 -0.3925
17696SOL     OW53665   6.505   0.909   7.757  0.0924 -0.0672 -0.4864
17696SOL    HW153666   6.574   0.874   7.699 -0.8126 -0.8750 -1.1148
17696SOL    HW253667   6.552   0.965   7.819  1.2496 -0.1746 -1.2276
17697SOL     OW53668   1.005   0.159   0.224  0.6589 -0.2028 -0.1254
17697SOL    HW153669   1.064   0.169   0.299 -0.8786 -1.1052  1.2661
17697SOL    HW253670   0.947   0.235   0.229  2.3902  1.4178 -2.2722
17698SOL     OW53671   3.127   8.065   9.687 -0.2949 -0.5164 -0.0823
17698SOL    HW153672   3.184   8.012   9.743  0.6397  1.7652  1.2427
17698SOL    HW253673   3.086   8.127   9.746 -3.1925 -1.1867 -1.2232
17699SOL     OW53674   6.243   6.456   4.338 -0.0909  0.3272  0.3965
17699SOL    HW153675   6.194   6.475   4.418  0.9770  1.2813  0.8576
17699SOL    HW253676   6.230   6.532   4.282  1.3226  0.8980  0.7887
17700SOL     OW53677   8.642   9.084   0.964 -0.2590 -0.0868  0.2408
17700SOL    HW153678   8.624   9.084   1.058 -1.9633 -0.6580 -0.0329
17700SOL    HW253679   8.687   9.001   0.948 -2.6234 -1.4823  0.2032
17701SOL     OW53680   8.204   6.933   3.361  0.3851  0.5951  0.4185
17701SOL    HW153681   8.289   6.893   3.379  0.8691  1.9356  1.2458
17701SOL    HW253682   8.181   6.902   3.273  2.4641  1.4421 -0.4739
17702SOL     OW53683   4.257   8.037   6.397 -0.0869 -0.2430 -0.2485
17702SOL    HW153684   4.335   8.010   6.348 -0.2374 -2.9468  0.8218
17702SOL    HW253685   4.188   7.981   6.363 -1.1299  0.7236  0.2246
17703SOL     OW53686   9.305   0.574   5.578  0.0998 -0.4133  0.1419
17703SOL    HW153687   9.237   0.590   5.644  0.7275  0.6639  0.5548
17703SOL    HW253688   9.387   0.587   5.625  0.5577  0.4990 -0.8803
17704SOL     OW53689   1.338   1.728   7.840  0.1166  0.3264 -0.8800
17704SOL    HW153690   1.297   1.666   7.900 -3.8300  2.5357 -0.9863
17704SOL    HW253691   1.398   1.779   7.894 -1.0511  0.2499  0.5424
17705SOL     OW53692   6.974   3.363   4.832  0.0883 -0.3170 -0.4526
17705SOL    HW153693   7.008   3.358   4.743 -1.4512 -0.1695 -1.0725
17705SOL    HW253694   7.019   3.292   4.879  1.7497  0.3056 -1.0199
17706SOL     OW53695   2.538   9.159   4.626 -0.4258 -0.0881 -0.1820
17706SOL    HW153696   2.522   9.091   4.560  0.9809 -2.4493  1.7532
17706SOL    HW253697   2.626   9.191   4.606 -1.1857  1.4841 -1.2555
17707SOL     OW53698   7.176   3.044   9.543  0.2554 -0.3746 -0.0149
17707SOL    HW153699   7.086   3.025   9.514  0.6720  0.3187 -1.8905
17707SOL    HW253700   7.166   3.117   9.603 -0.5242 -0.9756  0.6164
17708SOL     OW53701   5.625   8.638   5.845  0.0611 -0.3846  0.0960
17708SOL    HW153702   5.561   8.679   5.786 -0.0277 -1.6632 -0.7670
17708SOL    HW253703   5.605   8.674   5.931 -2.1025 -0.9815 -0.0730
17709SOL     OW53704   9.115   1.795   3.214  0.2954 -0.5611 -0.2520
17709SOL    HW153705   9.184   1.744   3.170  1.1169 -0.5457  0.9572
17709SOL    HW253706   9.078   1.849   3.145  1.1737 -0.9310 -1.0395
17710SOL     OW53707   0.698   0.231   9.555 -0.1811  0.5825 -0.1281
17710SOL    HW153708   0.792   0.243   9.569 -0.2398  1.5863 -0.5207
17710SOL    HW253709   0.684   0.257   9.464 -1.0266  1.5647  0.2696
17711SOL     OW53710   5.979   0.536   3.176 -0.0315 -0.1627  0.2428
17711SOL    HW153711   6.056   0.557   3.228  0.2607 -0.8561  0.1035
17711SOL    HW253712   5.924   0.614   3.181  1.8037  1.3909 -1.7429
17712SOL     OW53713   6.543   5.117   3.962  0.0155  0.4037  0.0424
17712SOL    HW153714   6.574   5.197   4.006 -0.3482  1.0001 -0.7573
17712SOL    HW253715   6.453   5.138   3.937  0.3059  0.1761 -1.2079
17713SOL     OW53716   2.576   0.194   5.656  0.5054  0.2133 -0.3064
17713SOL    HW153717   2.547   0.108   5.628 -1.7283  0.8869 -0.2331
17713SOL    HW253718   2.632   0.177   5.732 -0.5712 -1.1300  0.2247
17714SOL     OW53719   3.205   7.126   0.662  0.1793 -0.5362  0.2097
17714SOL    HW153720   3.115   7.096   0.651 -0.2433  1.3781 -2.6821
17714SOL    HW253721   3.244   7.116   0.575  3.1862 -2.3134  1.5961
17715SOL     OW53722   5.574   4.393   1.212  0.2354 -0.3122 -0.1735
17715SOL    HW153723   5.601   4.382   1.121  0.0123  0.1670 -0.3052
17715SOL    HW253724   5.575   4.305   1.249  0.8346 -0.4467 -0.4952
17716SOL     OW53725   2.195   9.225   6.334 -0.0467  0.1685  0.2975
17716SOL    HW153726   2.153   9.310   6.346  1.4818  1.0402 -0.1365
17716SOL    HW253727   2.192   9.211   6.239  1.8487  0.9633  0.0694
17717SOL     OW53728   8.533   4.879   2.543 -0.4891 -0.1006  0.6427
17717SOL    HW153729   8.620   4.897   2.508  0.7200 -1.9353  2.4546
17717SOL    HW253730   8.476   4.942   2.499  1.6136  0.7299 -1.1030
17718SOL     OW53731   7.811   5.402   3.827 -0.0705  0.0715  0.0452
17718SOL    HW153732   7.782   5.354   3.905 -1.4621 -0.3067 -0.6553
17718SOL    HW253733   7.844   5.334   3.768  2.3372  0.4925  0.8013
17719SOL     OW53734   6.191   1.694   6.680  0.4135  0.1067  0.3411
17719SOL    HW153735   6.174   1.611   6.725 -0.7056 -0.3134 -0.7881
17719SOL    HW253736   6.105   1.722   6.649  1.2000 -0.0841 -2.2576
17720SOL     OW53737   6.613   6.482   2.938  0.4614  0.9094  0.3799
17720SOL    HW153738   6.660   6.453   3.016 -0.1354  1.5545  0.9909
17720SOL    HW253739   6.605   6.403   2.884  0.9128  0.4672  0.9545
17721SOL     OW53740   3.618   9.336   8.310 -0.1009  0.0937  0.2880
17721SOL    HW153741   3.694   9.335   8.252  0.1342 -0.2852  0.5921
17721SOL    HW253742   3.555   9.275   8.270  0.1909 -0.4184  0.5894
17722SOL     OW53743   8.245   5.342   3.606 -0.2113 -0.4285  0.0235
17722SOL    HW153744   8.317   5.294   3.648  0.6077  0.6247 -0.1448
17722SOL    HW253745   8.181   5.274   3.584 -0.3741 -1.1301  2.3322
17723SOL     OW53746   9.879   9.337   9.294 -0.3215  0.3799  0.0456
17723SOL    HW153747   9.934   9.397   9.344 -1.2204  0.3337  1.1476
17723SOL    HW253748   9.905   9.349   9.203 -0.6361  2.6287  0.2078
17724SOL     OW53749   1.195   4.988   7.082 -0.8013  0.3808  0.3699
17724SOL    HW153750   1.288   5.009   7.091 -1.1232  1.9625  0.3670
17724SOL    HW253751   1.161   4.988   7.171 -0.7060 -0.7192  0.4133
17725SOL     OW53752   7.276   7.510   1.679  0.0401 -0.4611  0.0408
17725SOL    HW153753   7.362   7.510   1.638  0.0031  1.8719 -0.1959
17725SOL    HW253754   7.218   7.471   1.614  0.7503 -1.1680 -0.1818
17726SOL     OW53755   9.278   9.115   6.723  0.6102  0.0113 -0.1366
17726SOL    HW153756   9.334   9.145   6.652  1.1571 -0.8121 -0.0644
17726SOL    HW253757   9.248   9.029   6.696 -1.8027  0.9925 -0.8229
17727SOL     OW53758   7.875   6.877   0.448  0.1325 -0.1880 -0.2359
17727SOL    HW153759   7.926   6.946   0.405  0.5144 -0.1530  0.2563
17727SOL    HW253760   7.920   6.796   0.424  0.8770 -0.1074  0.7679
17728SOL     OW53761   9.426   8.216   7.766 -0.8363 -0.0557 -0.1133
17728SOL    HW153762   9.475   8.299   7.762 -0.0937 -0.4135  1.0943
17728SOL    HW253763   9.481   8.154   7.717  1.0291 -0.9446  2.8554
17729SOL     OW53764   1.228   0.599   7.599  0.1989  0.1524 -0.1417
17729SOL    HW153765   1.208   0.640   7.515 -1.5718 -0.0190  0.1448
17729SOL    HW253766   1.169   0.523   7.603 -0.7908  0.9393  1.8183
17730SOL     OW53767   0.488   7.568   8.206  0.1256 -0.1907  0.3712
17730SOL    HW153768   0.542   7.580   8.128 -0.0683  0.9926  0.4026
17730SOL    HW253769   0.529   7.624   8.272  1.3527 -2.5029  1.7137
17731SOL     OW53770   2.059   0.125   6.968  0.3181  0.5192  0.0198
17731SOL    HW153771   2.143   0.159   6.996  0.6137 -0.7797  0.8412
17731SOL    HW253772   2.003   0.132   7.046  0.2715 -0.4472  0.0871
17732SOL     OW53773   8.375   8.130   0.090 -0.6367  0.2350  0.0713
17732SOL    HW153774   8.338   8.043   0.107  0.6015  0.1210  2.6737
17732SOL    HW253775   8.406   8.125  -0.001 -0.4393 -2.1031  0.2041
17733SOL     OW53776   4.293   1.226   7.932  0.2992 -0.0785 -0.7140
17733SOL    HW153777   4.362   1.249   7.870 -1.1879  2.9325 -1.4904
17733SOL    HW253778   4.313   1.278   8.010 -0.2515 -0.3709 -0.3758
17734SOL     OW53779   7.015   2.725   3.019 -0.1804 -0.4678  0.1191
17734SOL    HW153780   6.937   2.676   2.993  1.1478 -2.3144 -0.5233
17734SOL    HW253781   6.986   2.816   3.019 -2.3939 -1.1017  0.1093
17735SOL     OW53782   9.556   8.036   0.391 -0.1487  0.5636 -0.1613
17735SOL    HW153783   9.592   7.961   0.438 -0.5997 -0.3727 -1.2514
17735SOL    HW253784   9.632   8.089   0.368  0.3659 -0.4151 -0.7917
17736SOL     OW53785   4.210   3.910   8.959 -0.1259 -0.2426 -0.6336
17736SOL    HW153786   4.213   3.943   8.869  0.4043  0.8338 -0.2425
17736SOL    HW253787   4.302   3.901   8.984 -0.2693 -0.7551 -0.2776
17737SOL     OW53788   0.399   5.579   5.251  0.2282  0.6442 -0.2193
17737SOL    HW153789   0.413   5.526   5.173 -2.3145  0.4606 -0.6353
17737SOL    HW253790   0.399   5.669   5.219  0.3884  0.6420 -0.2245
17738SOL     OW53791   0.409   5.783   3.464  0.2747  0.2254  0.2891
17738SOL    HW153792   0.440   5.841   3.394  0.6311 -0.3594 -0.0408
17738SOL    HW253793   0.489   5.747   3.501  0.0669  0.2245  0.7400
17739SOL     OW53794   1.543   6.909   5.292 -0.0385 -0.0992  0.3914
17739SOL    HW153795   1.588   6.955   5.222 -1.6624 -0.2041 -0.7934
17739SOL    HW253796   1.610   6.895   5.359  1.7165 -0.4758 -1.3501
17740SOL     OW53797   0.431   8.341   1.973 -0.3464  0.0130 -0.2191
17740SOL    HW153798   0.501   8.405   1.987 -0.6621  0.2127  0.5405
17740SOL    HW253799   0.403   8.317   2.062  1.0795 -2.6721 -0.3746
17741SOL     OW53800   4.723   1.696   9.451 -0.0306 -0.6041 -0.1576
17741SOL    HW153801   4.801   1.713   9.503  0.1884 -1.8451 -0.0429
17741SOL    HW253802   4.709   1.776   9.401 -0.0597  0.5132  1.5511
17742SOL     OW53803   9.601   5.975   7.162 -0.0394 -0.6525 -0.4156
17742SOL    HW153804   9.554   5.894   7.180 -0.5319 -0.2801 -0.0136
17742SOL    HW253805   9.571   6.036   7.228  0.2134 -0.0885 -0.8099
17743SOL     OW53806   9.021   5.396   3.211  0.5203 -0.4086  0.0919
17743SOL    HW153807   9.065   5.476   3.181 -0.3172 -0.2028 -0.6328
17743SOL    HW253808   9.015   5.406   3.306  0.5592  0.3203  0.0221
17744SOL     OW53809   8.285   8.173   3.547  0.0190  0.2539  0.4490
17744SOL    HW153810   8.213   8.236   3.548  0.2498  0.5253  0.1814
17744SOL    HW253811   8.333   8.190   3.629 -1.7190 -1.7025  1.9742
17745SOL     OW53812   3.145   5.841   9.140 -0.5365  0.5264 -0.2569
17745SOL    HW153813   3.171   5.919   9.189 -1.7314  0.5481  0.3808
17745SOL    HW253814   3.073   5.804   9.191  1.1426 -2.0209  0.4336
17746SOL     OW53815   3.111   9.580   5.909 -0.2737 -0.5775 -0.3272
17746SOL    HW153816   3.147   9.621   5.987  1.0163 -0.5157 -0.9370
17746SOL    HW253817   3.018   9.603   5.911 -0.0180  0.4693  0.5277
17747SOL     OW53818   1.334   1.871   9.181  0.2238 -0.3756 -0.2432
17747SOL    HW153819   1.324   1.778   9.159 -1.0934 -0.1753 -0.5508
17747SOL    HW253820   1.245   1.903   9.192  0.7033  0.5129  1.3802
17748SOL     OW53821   1.669   1.225   5.247  0.5870 -0.0737  0.4837
17748SOL    HW153822   1.690   1.168   5.321 -1.8433 -1.6465  0.0773
17748SOL    HW253823   1.588   1.269   5.272  0.2262  0.0843 -0.8537
17749SOL     OW53824   7.462   3.975   3.548  0.4497 -0.0794  0.2363
17749SOL    HW153825   7.536   3.942   3.600  0.3441  0.5018  0.7608
17749SOL    HW253826   7.475   4.069   3.544 -0.2590  0.0309  0.3253
17750SOL     OW53827   3.948   8.665   4.854 -0.1660 -0.1015 -0.1489
17750SOL    HW153828   3.984   8.745   4.815 -0.0731  1.3714  2.7083
17750SOL    HW253829   4.025   8.615   4.881 -0.1230  1.2196  2.4433
17751SOL     OW53830   2.748   1.630   3.706  0.1838  1.0992  0.3701
17751SOL    HW153831   2.652   1.635   3.702  0.1651  1.0875  0.7483
17751SOL    HW253832   2.767   1.537   3.715  0.2298  1.1047  0.3310
17752SOL     OW53833   5.462   7.225   4.978  0.4508  0.1334  0.5524
17752SOL    HW153834   5.437   7.317   4.966  0.5757  0.1547  0.4504
17752SOL    HW253835   5.427   7.180   4.901  3.2043  0.6497 -1.1630
17753SOL     OW53836   6.244   1.880   5.508  0.0868 -0.2071 -0.3068
17753SOL    HW153837   6.160   1.890   5.552  1.5075  1.7258  2.2256
17753SOL    HW253838   6.298   1.832   5.570  2.2199  2.7880  0.3709
17754SOL     OW53839   5.496   5.378   3.926  0.3168  0.4971  0.3098
17754SOL    HW153840   5.412   5.352   3.965  0.5064 -2.3230 -0.9119
17754SOL    HW253841   5.514   5.311   3.861  1.1833  3.6676 -3.0285
17755SOL     OW53842   9.225   1.586   8.313 -0.2106 -0.1378  0.3309
17755SOL    HW153843   9.140   1.546   8.333 -0.4418  0.3968  0.4532
17755SOL    HW253844   9.289   1.530   8.356 -0.5597 -0.1220  0.8788
17756SOL     OW53845   2.489   6.939   4.886  0.0811 -0.0655 -0.5967
17756SOL    HW153846   2.562   6.922   4.946  1.0297 -0.4870 -1.8212
17756SOL    HW253847   2.495   7.033   4.868  0.1175 -0.0380 -0.4447
17757SOL     OW53848   6.070   7.493   3.277 -0.3000  0.4434 -0.1931
17757SOL    HW153849   6.082   7.454   3.363 -0.2803  0.0055 -0.3887
17757SOL    HW253850   5.983   7.464   3.249  0.3126 -0.7420 -0.9782
17758SOL     OW53851   7.736   9.301   3.858 -0.4695 -0.0039 -0.2374
17758SOL    HW153852   7.808   9.360   3.880  0.0190 -0.7552  0.1935
17758SOL    HW253853   7.686   9.293   3.938 -1.8603  1.6088 -0.8844
17759SOL     OW53854   4.599   4.595   0.798  0.0577  0.1787  0.5205
17759SOL    HW153855   4.591   4.681   0.758 -2.5764 -0.3188 -0.1940
17759SOL    HW253856   4.639   4.541   0.730 -0.2271  0.3514  0.2166
17760SOL     OW53857   9.358   2.049   5.549  0.1857  0.1158 -0.1544
17760SOL    HW153858   9.380   1.999   5.628 -0.3233  0.7903  0.4237
17760SOL    HW253859   9.331   2.135   5.582  1.7151  1.0378 -1.1593
17761SOL     OW53860   3.610   2.350   8.373  0.2185 -0.2220  0.2119
17761SOL    HW153861   3.692   2.394   8.352  0.3647 -0.7193 -0.2833
17761SOL    HW253862   3.616   2.265   8.329  0.2334 -1.0199  1.6815
17762SOL     OW53863   7.427   6.222   6.452 -0.4606 -0.0786  0.3101
17762SOL    HW153864   7.398   6.140   6.493  2.1742 -1.8490 -1.0492
17762SOL    HW253865   7.366   6.288   6.484 -1.8760 -2.3083  2.5862
17763SOL     OW53866   1.741   2.236   4.940  0.0071  0.6903 -0.0922
17763SOL    HW153867   1.684   2.199   4.873 -0.4898  1.2623  0.0017
17763SOL    HW253868   1.828   2.238   4.900 -0.3013  1.1185 -0.7598
17764SOL     OW53869   8.259   6.686   9.115  0.1756  0.3491  0.5326
17764SOL    HW153870   8.216   6.746   9.177 -0.6279  0.1515  0.1849
17764SOL    HW253871   8.191   6.666   9.050  0.9553  0.4372 -0.3403
17765SOL     OW53872   8.126   7.866   3.365  0.1036  0.7353  0.6415
17765SOL    HW153873   8.156   7.793   3.311  2.1127  1.6265  0.4354
17765SOL    HW253874   8.032   7.870   3.351  0.1701 -0.8505 -0.5259
17766SOL     OW53875   6.458   9.657   3.155  0.1394  0.4882 -0.0952
17766SOL    HW153876   6.444   9.607   3.074  2.3283  1.0526 -0.8868
17766SOL    HW253877   6.500   9.595   3.215  1.7199  0.9705 -0.6501
17767SOL     OW53878   8.404   9.648   0.604 -0.0144  0.3980  0.1006
17767SOL    HW153879   8.393   9.601   0.686 -0.0673 -2.6853 -1.5433
17767SOL    HW253880   8.324   9.699   0.594  0.4520  1.7218  2.4088
17768SOL     OW53881   3.538   4.586   0.531 -0.6386 -0.2135  0.1208
17768SOL    HW153882   3.547   4.550   0.442  0.8744 -0.5010  0.3506
17768SOL    HW253883   3.628   4.610   0.555 -1.3176  1.8823  0.7644
17769SOL     OW53884   4.186   2.774   2.424  0.0961  0.1865  0.2703
17769SOL    HW153885   4.165   2.705   2.487 -0.7457 -0.3287 -0.5579
17769SOL    HW253886   4.281   2.784   2.430  0.4007 -1.8474 -0.4104
17770SOL     OW53887   7.554   2.949   6.084 -0.1824 -0.7007  0.1613
17770SOL    HW153888   7.539   3.007   6.158 -3.1971  1.5007 -1.9096
17770SOL    HW253889   7.534   2.861   6.117  0.8523 -0.1340  2.4639
17771SOL     OW53890   9.899   2.308   9.841 -0.2335  0.3026 -0.0212
17771SOL    HW153891   9.832   2.252   9.801 -0.7972 -0.3113  1.6818
17771SOL    HW253892   9.941   2.252   9.906  2.1533  0.5986 -1.1877
17772SOL     OW53893   4.975   4.358   5.956  0.0318 -0.2755 -0.1938
17772SOL    HW153894   4.968   4.453   5.951 -1.8760 -0.4054 -0.6969
17772SOL    HW253895   5.004   4.340   6.045 -2.6680  0.7067  0.9958
17773SOL     OW53896   8.724   9.652   0.335  0.0674 -0.1101 -0.1067
17773SOL    HW153897   8.757   9.572   0.374  2.1859  0.7570  0.0614
17773SOL    HW253898   8.675   9.695   0.405  0.1341 -0.5979  0.2431
17774SOL     OW53899   7.865   0.535   8.045  0.1999  0.8127 -0.5301
17774SOL    HW153900   7.918   0.465   8.083 -0.7481  0.7700  0.8140
17774SOL    HW253901   7.913   0.615   8.065  1.0678  0.5901 -1.6809
17775SOL     OW53902   6.412   8.421   3.498  0.4934 -0.0192  0.1767
17775SOL    HW153903   6.433   8.339   3.543  3.3500 -0.1867 -1.2615
17775SOL    HW253904   6.495   8.468   3.495 -1.1904  3.3482  1.5937
17776SOL     OW53905   6.532   2.256   2.982  0.0498 -0.2306 -0.0316
17776SOL    HW153906   6.602   2.310   3.016  0.1055  0.1836 -0.7740
17776SOL    HW253907   6.453   2.310   2.991 -0.1664 -0.6693  0.7437
17777SOL     OW53908   2.973   3.884   9.429  0.1778 -0.1273 -0.2090
17777SOL    HW153909   3.002   3.920   9.345 -1.5662 -0.4782 -0.9991
17777SOL    HW253910   3.014   3.798   9.435 -0.5853 -0.5818 -1.2610
17778SOL     OW53911   9.939   6.308   9.436  0.0015 -0.3555 -0.1660
17778SOL    HW153912  10.029   6.306   9.467 -0.7491 -1.7163  2.1422
17778SOL    HW253913   9.944   6.277   9.345  1.9104  0.4556 -0.3792
17779SOL     OW53914   7.791   6.446   2.113 -0.2471  0.4312 -0.0618
17779SOL    HW153915   7.880   6.448   2.078  0.2520  1.2949  1.1650
17779SOL    HW253916   7.798   6.396   2.194 -0.4264  2.2370  1.1196
17780SOL     OW53917   7.218   4.150   3.839  0.1796  0.6303  0.0914
17780SOL    HW153918   7.245   4.221   3.781  1.8455  0.8365  1.0481
17780SOL    HW253919   7.300   4.108   3.866 -0.6818 -0.8386  0.5779
17781SOL     OW53920   8.239   7.881   5.480 -0.3879  0.1508  0.9844
17781SOL    HW153921   8.199   7.799   5.451 -0.7824  0.1511  1.5168
17781SOL    HW253922   8.332   7.862   5.488 -0.0586  0.4486 -1.3916
17782SOL     OW53923   5.204   4.780   1.551  0.1736 -0.0125 -0.1701
17782SOL    HW153924   5.253   4.784   1.634  0.9241 -1.4839 -0.5037
17782SOL    HW253925   5.256   4.832   1.490 -1.2254  2.4690  0.6217
17783SOL     OW53926   0.844   5.358   2.372 -0.3334 -0.4173  0.1686
17783SOL    HW153927   0.874   5.335   2.460  2.3996 -4.1223 -1.4483
17783SOL    HW253928   0.842   5.454   2.372  0.1327 -0.2396  4.0298
17784SOL     OW53929   9.144   2.980   8.133 -0.1597 -0.4175  0.0430
17784SOL    HW153930   9.193   2.909   8.091  0.2765 -0.8377  1.2176
17784SOL    HW253931   9.054   2.947   8.139 -0.2953 -0.2247 -0.8266
17785SOL     OW53932   8.417   4.638   2.507  0.1045 -0.3847 -0.4231
17785SOL    HW153933   8.457   4.724   2.524  0.8423 -0.9965  1.1340
17785SOL    HW253934   8.337   4.639   2.560  1.0460 -1.3075  1.0795
17786SOL     OW53935   0.519   7.029   5.318 -0.3566  0.2666  0.1875
17786SOL    HW153936   0.517   7.029   5.223 -1.2548  0.9626  0.1975
17786SOL    HW253937   0.509   6.937   5.342 -1.2101  0.1940 -0.3891
17787SOL     OW53938   7.636   4.652   4.151 -0.1421  0.0242 -0.0761
17787SOL    HW153939   7.587   4.589   4.099 -0.3179  0.3115 -0.2614
17787SOL    HW253940   7.721   4.610   4.166 -0.4957 -0.5447  0.3922
17788SOL     OW53941   1.196   8.710   6.258  0.2842 -0.0758  0.1740
17788SOL    HW153942   1.168   8.793   6.221 -0.1497 -0.2431  0.1231
17788SOL    HW253943   1.291   8.715   6.260  0.2930  0.0912 -0.5895
17789SOL     OW53944   3.300   6.316   9.083 -0.3892 -0.3779  0.3312
17789SOL    HW153945   3.377   6.275   9.044 -0.1573  0.0414  0.3423
17789SOL    HW253946   3.324   6.408   9.092 -1.2602 -0.0399 -0.6125
17790SOL     OW53947   8.718   1.091   7.204  0.1838 -0.2990 -0.4603
17790SOL    HW153948   8.787   1.069   7.141 -0.8635 -3.0364 -0.7986
17790SOL    HW253949   8.746   1.048   7.285  0.0701  0.7038  0.1213
17791SOL     OW53950   5.940   1.284   7.637  0.0498 -0.1806  0.2195
17791SOL    HW153951   5.928   1.190   7.650 -0.6483 -0.2713 -0.9594
17791SOL    HW253952   5.962   1.293   7.544 -0.0918  0.8448  0.2729
17792SOL     OW53953   0.750   3.663   5.909 -1.2399 -0.5520  0.3910
17792SOL    HW153954   0.800   3.587   5.939 -1.1632  0.1065  2.0168
17792SOL    HW253955   0.659   3.635   5.914 -1.1506 -1.5136 -1.9062
17793SOL     OW53956   8.517   7.874   3.049  0.0198 -0.2721  0.4399
17793SOL    HW153957   8.446   7.810   3.055 -1.4138  1.1664 -0.4870
17793SOL    HW253958   8.570   7.857   3.127  0.1561 -3.0555 -0.1289
17794SOL     OW53959   4.885   6.706   7.391  0.3624 -0.0735  1.2508
17794SOL    HW153960   4.818   6.649   7.429  1.4092 -0.9133  1.8878
17794SOL    HW253961   4.950   6.715   7.460  0.4182  1.5841  1.0170
17795SOL     OW53962   9.808   9.074   7.190  0.3727 -0.2502 -0.4099
17795SOL    HW153963   9.894   9.116   7.186 -0.1722  0.8757 -0.6830
17795SOL    HW253964   9.811   9.006   7.122  1.0041 -0.1355 -0.5023
17796SOL     OW53965   3.044   0.140   0.048  0.4750  0.3264 -0.3449
17796SOL    HW153966   3.101   0.197  -0.003 -0.1331  1.1381 -0.1391
17796SOL    HW253967   3.068   0.157   0.139  1.5008 -1.0539 -0.3276
17797SOL     OW53968   4.265   6.648   0.368 -0.3723  0.1816  0.6251
17797SOL    HW153969   4.360   6.648   0.358 -0.4007  1.8989  0.0948
17797SOL    HW253970   4.251   6.657   0.462  0.0100  1.4086  0.5767
17798SOL     OW53971   7.024   9.133   1.222  0.2993 -0.1975  0.2227
17798SOL    HW153972   7.113   9.100   1.236 -0.2368 -1.7226  0.2643
17798SOL    HW253973   6.981   9.064   1.170 -1.1004  0.1165  0.9217
17799SOL     OW53974   9.003   3.959   7.615 -0.0061  0.3974 -0.4718
17799SOL    HW153975   9.048   3.938   7.696  0.9621 -0.3017 -1.1743
17799SOL    HW253976   8.913   3.979   7.642 -0.1728 -1.5842  0.5799
17800SOL     OW53977   6.953   5.738   9.370  0.5306 -0.0081  0.4334
17800SOL    HW153978   6.937   5.690   9.289  0.2270  1.9103 -0.7030
17800SOL    HW253979   6.869   5.736   9.415  0.7408 -1.2136  0.8184
17801SOL     OW53980   1.884   6.542   1.930  0.1281  0.6561  0.0878
17801SOL    HW153981   1.845   6.455   1.935 -1.4881  1.3050 -0.5588
17801SOL    HW253982   1.831   6.589   1.866 -1.3969  3.2350  2.9539
17802SOL     OW53983   8.202   4.513   8.131 -0.1967 -0.1027  0.2581
17802SOL    HW153984   8.196   4.429   8.177 -0.6832 -0.1583  0.0987
17802SOL    HW253985   8.269   4.498   8.063  0.2537 -0.1316  0.7056
17803SOL     OW53986   6.149   1.706   7.706  0.1251 -0.7030 -0.7167
17803SOL    HW153987   6.167   1.623   7.749 -0.0078 -0.3396  0.0534
17803SOL    HW253988   6.209   1.768   7.746 -1.1356 -0.0033  0.1460
17804SOL     OW53989   6.255   4.698   3.005 -0.1743  0.1776  0.4341
17804SOL    HW153990   6.203   4.660   2.935 -1.4620 -0.7210  1.8278
17804SOL    HW253991   6.251   4.793   2.989 -0.8340  0.0137 -0.4199
17805SOL     OW53992   1.711   2.509   6.798  0.7146  1.1663  0.2439
17805SOL    HW153993   1.776   2.545   6.859  0.0082  1.2604  0.9530
17805SOL    HW253994   1.731   2.551   6.714  1.3309  1.4798  0.5366
17806SOL     OW53995   7.319   4.394   3.305 -0.0920  0.3129  0.3394
17806SOL    HW153996   7.346   4.303   3.308 -1.8200 -0.2639 -0.2917
17806SOL    HW253997   7.240   4.394   3.252 -0.9976  1.9544  1.5756
17807SOL     OW53998   2.711   3.019   2.122 -0.0844  0.0082 -0.2642
17807SOL    HW153999   2.702   2.934   2.079  0.3690 -0.7941  1.1728
17807SOL    HW254000   2.800   3.019   2.157 -0.9170 -0.0205  1.9831
17808SOL     OW54001   3.864   0.031   7.831  0.5521 -0.1861  0.4676
17808SOL    HW154002   3.873   0.107   7.888  1.0534 -0.4620  0.7726
17808SOL    HW254003   3.906   0.056   7.749  0.1442  0.0887  0.3407
17809SOL     OW54004   6.328   0.385   3.161  0.0611 -0.0157 -0.2824
17809SOL    HW154005   6.336   0.290   3.168 -1.4278 -0.2261 -0.9192
17809SOL    HW254006   6.381   0.420   3.232 -0.3388 -1.3735  0.7182
17810SOL     OW54007   8.733   8.129   4.262  0.1616 -0.3733  0.5177
17810SOL    HW154008   8.793   8.058   4.236  1.0096  0.5862 -0.2032
17810SOL    HW254009   8.694   8.158   4.180  0.5783  0.6620  0.6780
17811SOL     OW54010   4.235   0.742   1.292  0.3764  0.6403  0.1119
17811SOL    HW154011   4.310   0.694   1.257 -0.4563 -2.0582  1.7316
17811SOL    HW254012   4.170   0.739   1.221  0.8755  0.7342 -0.3597
17812SOL     OW54013   1.008   1.721   3.848  0.6539  0.0286 -0.7222
17812SOL    HW154014   1.004   1.716   3.752 -0.3032  1.5154 -0.7887
17812SOL    HW254015   0.968   1.805   3.869  3.6594  1.2145  0.7982
17813SOL     OW54016   2.615   7.418   3.017 -0.2377 -0.2426 -0.2093
17813SOL    HW154017   2.635   7.324   3.010  1.0493 -0.0131  0.0784
17813SOL    HW254018   2.576   7.428   3.104 -0.9869 -0.5942 -0.4922
17814SOL     OW54019  -0.009   7.881   3.560  0.0834 -1.2253 -0.5373
17814SOL    HW154020   0.053   7.954   3.559 -0.8071 -0.4581 -1.8176
17814SOL    HW254021   0.047   7.803   3.552  0.8852 -0.5164 -2.4081
17815SOL     OW54022   4.647   4.069   2.998  0.3538  0.4433  0.2007
17815SOL    HW154023   4.643   3.974   3.007 -0.1833  0.4299 -0.1609
17815SOL    HW254024   4.556   4.096   2.988  0.5557  0.9334 -0.3643
17816SOL     OW54025   1.682   4.448   3.639 -0.5874 -0.1101  0.3765
17816SOL    HW154026   1.645   4.527   3.599 -0.9889  0.6790  2.2276
17816SOL    HW254027   1.666   4.458   3.733  0.5522 -1.7715  0.7971
17817SOL     OW54028   4.560   3.485   4.551  0.0999  0.3245  0.0628
17817SOL    HW154029   4.537   3.545   4.480  0.4438  0.1638 -0.1908
17817SOL    HW254030   4.643   3.519   4.585 -0.3917  0.7910  0.8411
17818SOL     OW54031   0.272   1.895   7.532 -0.6552  0.0464 -0.3325
17818SOL    HW154032   0.319   1.831   7.586 -0.7462  0.3549  0.1254
17818SOL    HW254033   0.204   1.929   7.590 -1.1877 -0.1060 -0.8668
17819SOL     OW54034   7.854   2.079   9.405  0.8560  0.0576 -0.1403
17819SOL    HW154035   7.832   2.054   9.316  1.5937 -1.2153  0.0051
17819SOL    HW254036   7.817   2.167   9.416 -1.0210 -0.5836 -1.0129
17820SOL     OW54037   1.587   7.894   3.235 -0.1018 -0.1953 -0.1894
17820SOL    HW154038   1.565   7.965   3.175 -1.6355 -0.5566 -0.1200
17820SOL    HW254039   1.557   7.926   3.321 -3.1872 -1.8039 -0.5192
17821SOL     OW54040   7.312   9.879   9.200  0.1094  0.1784  0.0314
17821SOL    HW154041   7.354   9.793   9.210  0.7019  0.1577 -2.1189
17821SOL    HW254042   7.374   9.940   9.240  0.3817 -0.2449  0.2669
17822SOL     OW54043   8.813   2.798   7.191  0.1278  0.7760  0.0182
17822SOL    HW154044   8.800   2.881   7.236  0.5213  1.5809 -1.3160
17822SOL    HW254045   8.790   2.732   7.256 -0.1954  1.9200  1.0974
17823SOL     OW54046   4.911   9.864   6.166 -0.0013  0.0863  0.0446
17823SOL    HW154047   4.977   9.891   6.230  0.9182  0.1990 -0.9314
17823SOL    HW254048   4.859   9.942   6.150  0.1899  0.2386  0.1614
17824SOL     OW54049   7.001   6.985   8.778 -0.1416  0.2014 -0.1409
17824SOL    HW154050   6.956   7.022   8.854 -0.0786  1.3079 -0.6255
17824SOL    HW254051   7.086   7.028   8.777  0.2928 -0.6421 -0.1999
17825SOL     OW54052   8.980   1.913   8.938 -0.1305 -0.4494 -0.3638
17825SOL    HW154053   8.914   1.848   8.913 -0.6557  0.1978 -0.6779
17825SOL    HW254054   8.980   1.976   8.866  1.1882 -0.6942 -0.6043
17826SOL     OW54055   3.475   1.508   6.349  0.1298 -0.1732 -0.1739
17826SOL    HW154056   3.460   1.424   6.306 -1.7242  0.0715 -0.0867
17826SOL    HW254057   3.476   1.487   6.443  1.4403 -0.3090 -0.1886
17827SOL     OW54058   7.573   7.642   6.832  0.0902  0.2031  0.2901
17827SOL    HW154059   7.495   7.698   6.829  0.5242  0.7951 -0.2569
17827SOL    HW254060   7.539   7.555   6.850 -0.7073  0.4423 -0.0149
17828SOL     OW54061   7.254   8.736   4.745  0.4133 -0.5998  0.8209
17828SOL    HW154062   7.328   8.756   4.802  1.4548  0.0658 -0.6787
17828SOL    HW254063   7.227   8.648   4.771  1.8046 -0.9039  1.3482
17829SOL     OW54064   4.671   8.325   9.574 -0.4688  0.2510 -0.1177
17829SOL    HW154065   4.624   8.399   9.536  0.5947  0.8828 -0.2415
17829SOL    HW254066   4.737   8.302   9.508  0.5489  0.5128  0.7787
17830SOL     OW54067   3.689   2.931   4.992  0.0134 -0.1186 -0.3887
17830SOL    HW154068   3.707   2.838   4.979 -0.6209 -0.1242 -1.3611
17830SOL    HW254069   3.599   2.942   4.963 -0.2817  0.6100  0.7458
17831SOL     OW54070   4.438   1.327   4.814  0.5013 -0.4138 -0.3512
17831SOL    HW154071   4.387   1.253   4.780  0.4919 -0.0430 -1.1950
17831SOL    HW254072   4.516   1.288   4.852  1.0966 -0.8037 -1.8891
17832SOL     OW54073   3.645   8.054   0.357  0.1015 -0.4858 -0.3682
17832SOL    HW154074   3.563   8.005   0.354 -0.2530  0.1234 -1.1385
17832SOL    HW254075   3.652   8.093   0.270 -0.4859  2.1407  0.6589
17833SOL     OW54076   0.051   5.609   8.281  0.3404  0.1950 -0.0256
17833SOL    HW154077   0.081   5.520   8.299 -0.2694 -0.0930 -0.3964
17833SOL    HW254078   0.012   5.638   8.364 -0.3200 -0.2444 -0.1730
17834SOL     OW54079   4.596   9.046   7.789 -0.5561 -0.0081  0.6533
17834SOL    HW154080   4.689   9.049   7.810 -0.6018 -2.6202  1.5566
17834SOL    HW254081   4.565   9.136   7.802  1.1856  0.2875  3.5108
17835SOL     OW54082   1.728   4.453   4.208  0.2654 -0.3532  0.1015
17835SOL    HW154083   1.708   4.388   4.140  0.4347 -1.6889  1.2800
17835SOL    HW254084   1.807   4.497   4.176  0.4366 -1.0626 -0.4920
17836SOL     OW54085   6.756   0.477   9.131 -0.1959 -0.3456  0.8600
17836SOL    HW154086   6.821   0.458   9.198  1.8690 -1.0224 -1.1995
17836SOL    HW254087   6.683   0.417   9.150  1.3534 -2.2191  1.1304
17837SOL     OW54088   4.130   0.294   0.644  0.2723 -0.5892  0.0109
17837SOL    HW154089   4.219   0.328   0.639  1.2989 -2.4139  3.1588
17837SOL    HW254090   4.104   0.310   0.735 -2.7246 -0.0005 -0.8372
17838SOL     OW54091   2.580   1.930   4.408 -0.2070  0.3407 -0.1368
17838SOL    HW154092   2.615   1.855   4.457 -0.5721  0.0629 -0.2940
17838SOL    HW254093   2.641   2.001   4.427  0.7150 -0.2577 -0.7814
17839SOL     OW54094   1.231   5.909   8.897 -0.5377  0.1446 -0.5786
17839SOL    HW154095   1.280   5.831   8.871  0.1674  0.0273  0.9945
17839SOL    HW254096   1.196   5.944   8.815 -0.2172 -1.3806 -1.4012
17840SOL     OW54097   6.125   5.819   6.869 -0.5927 -0.2673  0.4233
17840SOL    HW154098   6.140   5.726   6.886 -2.1081 -0.7039 -0.4422
17840SOL    HW254099   6.072   5.848   6.943 -1.3523 -0.4669 -0.0331
17841SOL     OW54100   3.147   0.058   2.526  0.2920 -0.0367  0.0954
17841SOL    HW154101   3.093  -0.007   2.570  1.4202 -0.5354  0.7981
17841SOL    HW254102   3.085   0.117   2.484 -0.8103 -0.0847  1.5795
17842SOL     OW54103   4.672   9.253   9.808 -0.0098  0.4274  0.6569
17842SOL    HW154104   4.626   9.182   9.852  0.8480 -0.5754 -0.0361
17842SOL    HW254105   4.603   9.315   9.785 -1.2841 -1.6083 -1.4532
17843SOL     OW54106   4.692   4.740   3.803  0.0157 -0.3451  0.7763
17843SOL    HW154107   4.698   4.835   3.812  0.1318 -0.2497 -0.1438
17843SOL    HW254108   4.782   4.709   3.811  0.3289 -0.1165 -1.2604
17844SOL     OW54109   4.808   1.525   8.832 -0.0229  0.2072 -0.0320
17844SOL    HW154110   4.841   1.607   8.795 -1.2106 -0.1680 -2.0454
17844SOL    HW254111   4.843   1.523   8.921  0.0934  2.8604  0.0419
17845SOL     OW54112   8.648   3.704   3.454  0.4200 -0.7945 -0.1672
17845SOL    HW154113   8.607   3.773   3.404 -0.0943 -1.5790 -0.8590
17845SOL    HW254114   8.627   3.724   3.546  0.4900  0.0786 -0.3348
17846SOL     OW54115   0.378   2.583   7.711  0.7282  0.1563 -0.0033
17846SOL    HW154116   0.415   2.576   7.798  0.4083 -0.5272  0.0840
17846SOL    HW254117   0.362   2.492   7.684 -1.7101  0.4098  0.3377
17847SOL     OW54118   8.492   4.850   5.819  0.4783  0.4080 -0.0417
17847SOL    HW154119   8.417   4.909   5.819  2.3443  2.9365  0.3350
17847SOL    HW254120   8.541   4.874   5.897  1.9782 -0.7798 -0.5718
17848SOL     OW54121   3.623   9.088   7.319 -0.5088 -0.3352  0.2299
17848SOL    HW154122   3.611   9.007   7.368 -0.2325 -1.2251 -1.1269
17848SOL    HW254123   3.645   9.060   7.231 -1.0315  1.2186 -0.4352
17849SOL     OW54124   2.543   7.764   9.553 -0.2517  0.0685 -0.0152
17849SOL    HW154125   2.516   7.730   9.467 -0.1405 -0.1684  0.0440
17849SOL    HW254126   2.461   7.787   9.596 -0.3236 -0.0577 -0.0841
17850SOL     OW54127   1.151   5.977   4.558 -0.1808 -0.8517 -0.1098
17850SOL    HW154128   1.229   6.014   4.600  0.2967 -0.7624 -1.0364
17850SOL    HW254129   1.078   6.011   4.610  0.1696  2.0239 -1.2813
17851SOL     OW54130   4.689   6.290   0.141 -0.0453  0.2364 -0.6375
17851SOL    HW154131   4.715   6.333   0.222  1.5701  0.4018 -1.2176
17851SOL    HW254132   4.619   6.346   0.105 -1.0690 -0.0665  0.8121
17852SOL     OW54133   6.492   5.255   0.031  0.1522 -0.0225  0.0687
17852SOL    HW154134   6.452   5.330  -0.014 -1.5552 -1.6568 -1.3273
17852SOL    HW254135   6.423   5.223   0.089  0.6323 -0.8486  0.2046
17853SOL     OW54136   3.365   8.475   5.490 -0.0433  0.4002 -0.0238
17853SOL    HW154137   3.317   8.407   5.538  0.4073  0.1005  0.0067
17853SOL    HW254138   3.440   8.430   5.453 -0.3702  0.6383 -1.0008
17854SOL     OW54139   7.641   1.862   8.016 -0.0167  0.3314  0.3751
17854SOL    HW154140   7.619   1.773   7.988  2.2728 -0.2991  0.3712
17854SOL    HW254141   7.619   1.917   7.940  0.8666 -0.5893 -0.5827
17855SOL     OW54142   2.059   1.902   6.187 -0.8856 -0.2061 -0.5525
17855SOL    HW154143   2.035   1.925   6.277  0.5009  0.4853 -0.3360
17855SOL    HW254144   2.107   1.978   6.155  1.5245 -1.6998 -0.7372
17856SOL     OW54145   9.356   0.316   6.529  0.2913 -0.3750  0.4024
17856SOL    HW154146   9.387   0.386   6.587  2.2439 -1.3826  0.6791
17856SOL    HW254147   9.425   0.249   6.534  0.1068 -0.8952 -2.3902
17857SOL     OW54148   6.612   2.213   8.937  0.1267 -0.0450 -0.1521
17857SOL    HW154149   6.684   2.150   8.939  0.8881  0.6835 -2.1119
17857SOL    HW254150   6.544   2.169   8.886 -0.6967 -0.5478  1.3083
17858SOL     OW54151   8.915   5.446   7.084  0.3951  0.3488 -0.1150
17858SOL    HW154152   8.995   5.455   7.135  0.4943 -0.8789 -0.0042
17858SOL    HW254153   8.920   5.356   7.050 -1.0248  0.1933  0.0596
17859SOL     OW54154   9.939   6.887   6.818 -0.5995  0.0180 -0.3949
17859SOL    HW154155   9.956   6.862   6.727  2.0768 -1.1921  0.3210
17859SOL    HW254156   9.963   6.980   6.822 -3.9208  1.0770 -1.5349
17860SOL     OW54157   2.158   3.619   3.698 -0.4144 -0.3783  0.4004
17860SOL    HW154158   2.086   3.634   3.637 -1.6924 -1.4484  1.5819
17860SOL    HW254159   2.154   3.694   3.758  0.2416  0.1876 -0.2550
17861SOL     OW54160   8.670   8.797   2.835 -0.3855  0.2814 -0.8849
17861SOL    HW154161   8.680   8.883   2.875 -0.8635  1.8194 -3.8047
17861SOL    HW254162   8.760   8.767   2.820 -0.2193  0.3621 -0.0906
17862SOL     OW54163   4.623   2.333   6.375 -0.6828 -0.2310 -0.1075
17862SOL    HW154164   4.565   2.393   6.327 -0.0394 -0.2226 -0.9086
17862SOL    HW254165   4.676   2.391   6.430 -0.6306 -0.1263 -0.2643
17863SOL     OW54166   4.878   5.191   5.089  0.2162 -0.1723  0.2694
17863SOL    HW154167   4.855   5.105   5.053  1.2594  0.1129 -1.1680
17863SOL    HW254168   4.969   5.203   5.064  0.8930  0.2637  2.6868
17864SOL     OW54169   5.239   0.849   6.010  0.1046  0.0898  1.1401
17864SOL    HW154170   5.306   0.801   5.962 -2.1436 -2.8835  0.7263
17864SOL    HW254171   5.207   0.915   5.949  0.4937 -0.5552  0.2281
17865SOL     OW54172   7.227   8.387   0.128  0.1381  0.4125 -0.1236
17865SOL    HW154173   7.196   8.470   0.091 -0.1494 -0.3212 -1.6324
17865SOL    HW254174   7.288   8.353   0.062 -1.8751 -1.8956 -0.9563
17866SOL     OW54175   4.550   8.554   4.341  0.1591 -0.3954  0.3315
17866SOL    HW154176   4.568   8.472   4.386 -0.5035 -0.5732  0.2849
17866SOL    HW254177   4.585   8.622   4.399 -0.0597 -0.6649  0.7828
17867SOL     OW54178   6.588   6.101   0.543  0.6443  0.1319  0.2806
17867SOL    HW154179   6.663   6.061   0.587  0.5925 -0.0556  0.1993
17867SOL    HW254180   6.551   6.161   0.608  0.5170 -0.2038  0.5222
17868SOL     OW54181   0.663   6.199  -0.004 -0.2760 -0.4258  0.6976
17868SOL    HW154182   0.687   6.114   0.033  0.5044  0.6908  2.9606
17868SOL    HW254183   0.567   6.200  -0.004 -0.2976 -1.5183  0.0550
17869SOL     OW54184   0.276   3.977   8.365  0.1884  0.0057  0.3192
17869SOL    HW154185   0.275   3.907   8.299  1.5549 -0.7782  1.0857
17869SOL    HW254186   0.184   3.998   8.379 -0.2347 -1.3299 -0.2655
17870SOL     OW54187   0.940   8.885   4.677  0.1472  0.2351  0.6945
17870SOL    HW154188   0.994   8.944   4.625 -0.0177 -1.1055 -1.1177
17870SOL    HW254189   0.862   8.936   4.700 -0.3871  0.5437 -1.5434
17871SOL     OW54190   7.979   4.067   6.222  0.3611  0.0201 -0.2805
17871SOL    HW154191   7.996   4.143   6.277 -1.6893  0.1334  0.3044
17871SOL    HW254192   8.038   4.076   6.148  1.6920  0.9918  0.8618
17872SOL     OW54193   3.236   1.765   0.093 -0.2105  0.2892  0.5634
17872SOL    HW154194   3.330   1.754   0.108 -0.0121  0.2569 -0.6117
17872SOL    HW254195   3.214   1.847   0.137 -0.5700 -1.7216  4.5810
17873SOL     OW54196   6.127   3.866   2.854 -0.2158  0.3452 -0.4919
17873SOL    HW154197   6.117   3.897   2.764 -0.2230  0.4564 -0.4527
17873SOL    HW254198   6.213   3.898   2.881  0.6900 -1.3931 -1.1424
17874SOL     OW54199   8.219   8.240   4.413 -0.2165  0.3584 -0.0647
17874SOL    HW154200   8.209   8.198   4.327  0.8517  1.6955 -0.8853
17874SOL    HW254201   8.313   8.242   4.427 -0.2715  1.9855  0.1857
17875SOL     OW54202   2.989   4.178   8.162 -0.3921  0.0229  0.5245
17875SOL    HW154203   2.968   4.268   8.186  1.2197  0.2589  1.2043
17875SOL    HW254204   3.082   4.168   8.185 -0.8994 -2.2787  1.9089
17876SOL     OW54205   4.014   6.070   8.524 -0.0120  0.1538  0.0762
17876SOL    HW154206   4.001   6.067   8.429  1.7139  0.1585 -0.1817
17876SOL    HW254207   4.014   6.163   8.546 -0.4882  0.1501  0.0978
17877SOL     OW54208   3.386   0.993   6.706 -0.3422  0.4828 -0.0478
17877SOL    HW154209   3.468   1.009   6.753  0.5770 -0.5008 -1.2343
17877SOL    HW254210   3.413   0.947   6.626 -2.1265 -0.5737 -0.1058
17878SOL     OW54211   2.722   1.991   0.498 -0.4970  0.4304 -0.5700
17878SOL    HW154212   2.732   2.082   0.527 -0.0290  0.2237 -0.0354
17878SOL    HW254213   2.629   1.972   0.509 -0.8730  1.2692 -2.0357
17879SOL     OW54214   0.944   6.384   5.357  0.3412  0.9031  0.4113
17879SOL    HW154215   0.990   6.392   5.440 -1.8916  1.3885  1.6820
17879SOL    HW254216   0.894   6.465   5.349 -1.0527  0.0100 -0.3682
17880SOL     OW54217   2.613   8.680   0.110 -0.0260 -0.2704 -0.2780
17880SOL    HW154218   2.678   8.643   0.170 -1.0699 -1.4323  0.1802
17880SOL    HW254219   2.565   8.604   0.077  0.1388  0.3976 -2.1531
17881SOL     OW54220   5.733   3.995   7.251  0.2072 -0.1049  0.3181
17881SOL    HW154221   5.778   3.976   7.169 -0.6306 -1.4898  0.1619
17881SOL    HW254222   5.680   4.073   7.233  1.2117  0.5313  0.0235
17882SOL     OW54223   4.356   7.236   5.829  0.6927 -0.0120 -0.0482
17882SOL    HW154224   4.380   7.228   5.921  0.8434 -0.7560 -0.1429
17882SOL    HW254225   4.400   7.162   5.787  0.4313  0.1851 -0.6785
17883SOL     OW54226   1.521   3.210   2.178  0.0839  1.1749  0.5070
17883SOL    HW154227   1.594   3.230   2.236 -0.0790  0.8920  0.8121
17883SOL    HW254228   1.476   3.294   2.167 -0.0258  1.1842  0.9923
17884SOL     OW54229   0.738   5.501   5.873  0.3254  0.2060  0.4399
17884SOL    HW154230   0.763   5.590   5.846 -2.3857  1.3133  1.2139
17884SOL    HW254231   0.770   5.445   5.803  1.0443  1.9293 -0.6954
17885SOL     OW54232   9.368   8.682   4.024 -0.3444  0.0680 -0.0490
17885SOL    HW154233   9.450   8.721   3.994 -0.3793 -0.2071 -0.5057
17885SOL    HW254234   9.393   8.629   4.100  0.1128 -1.0335 -0.9415
17886SOL     OW54235   4.469   1.142   4.572 -0.2489 -0.3113  0.5363
17886SOL    HW154236   4.397   1.193   4.535 -1.5969 -1.9975  0.7097
17886SOL    HW254237   4.547   1.178   4.530 -1.0796  2.0761  0.9020
17887SOL     OW54238   2.749   0.936   3.677  0.1644  0.3200 -0.7582
17887SOL    HW154239   2.820   0.998   3.699  0.1895  0.0626 -0.0939
17887SOL    HW254240   2.752   0.930   3.581 -0.9597  2.6774 -1.0040
17888SOL     OW54241   9.258   3.243   7.014  0.0857  0.1822  0.1012
17888SOL    HW154242   9.275   3.320   7.068  0.3675 -0.4312  0.9026
17888SOL    HW254243   9.317   3.176   7.048 -1.0080 -0.7491  0.2100
17889SOL     OW54244   5.511   8.120   7.800 -0.3796 -0.0301  0.5786
17889SOL    HW154245   5.574   8.183   7.765 -0.0923 -0.8992 -0.5030
17889SOL    HW254246   5.562   8.063   7.857 -0.6320  0.6600  1.5231
17890SOL     OW54247   2.954   8.141   4.442 -0.3438 -0.1876  0.0808
17890SOL    HW154248   3.029   8.088   4.414 -0.0479  0.3808 -0.2322
17890SOL    HW254249   2.878   8.087   4.423 -0.0671 -0.3542 -0.5800
17891SOL     OW54250   1.455   6.689   0.816  0.2412 -0.1981 -0.2071
17891SOL    HW154251   1.501   6.665   0.735 -0.1211  0.5295 -0.6381
17891SOL    HW254252   1.381   6.628   0.820 -0.9998  1.1436 -1.5956
17892SOL     OW54253   4.864   4.946   2.878 -0.2502  0.1372  0.4302
17892SOL    HW154254   4.846   4.861   2.839  0.3565  0.5666 -0.8178
17892SOL    HW254255   4.786   4.966   2.930 -1.1251 -0.3949 -0.6559
17893SOL     OW54256   5.238   3.019   7.035 -0.3097  0.2787  0.7523
17893SOL    HW154257   5.221   2.988   6.946 -0.7514  3.1013 -0.2700
17893SOL    HW254258   5.254   2.940   7.086  1.5277 -1.3795 -2.1379
17894SOL     OW54259   1.322   3.673   6.685 -0.7678  0.1722  0.3421
17894SOL    HW154260   1.266   3.639   6.755 -2.4552  2.1101 -0.0055
17894SOL    HW254261   1.371   3.596   6.655 -1.4628 -1.1048  2.2660
17895SOL     OW54262   6.769   5.651   8.034 -0.0849 -0.3674 -0.0600
17895SOL    HW154263   6.724   5.733   8.054 -2.2053 -1.5325  0.2696
17895SOL    HW254264   6.702   5.583   8.045  1.6329 -2.1850 -0.1349
17896SOL     OW54265   8.327   0.121   5.309 -0.7293 -0.4463  0.5290
17896SOL    HW154266   8.245   0.077   5.287 -1.1011  1.2759 -2.1067
17896SOL    HW254267   8.395   0.062   5.276 -1.0043 -0.9677  0.8868
17897SOL     OW54268   2.376   4.311   6.343 -0.2050 -0.0776  0.3921
17897SOL    HW154269   2.453   4.298   6.399  2.1847  0.6314 -2.4302
17897SOL    HW254270   2.338   4.393   6.372 -0.5392 -0.8878  2.4342
17898SOL     OW54271   8.094   0.742   8.638 -0.0685  0.5145  0.0827
17898SOL    HW154272   7.998   0.752   8.640 -0.3405  1.3437 -4.8558
17898SOL    HW254273   8.108   0.648   8.647 -1.3099  0.3593  0.7277
17899SOL     OW54274   8.546   8.939   3.364 -0.3333  0.2737 -0.5075
17899SOL    HW154275   8.569   9.024   3.401 -0.1100  0.4028 -0.9401
17899SOL    HW254276   8.468   8.913   3.413  0.4904  0.0025  0.7160
17900SOL     OW54277   9.211   5.381   5.277 -0.3173 -0.5565  0.0653
17900SOL    HW154278   9.247   5.413   5.194  0.4928 -1.4177  0.0659
17900SOL    HW254279   9.139   5.441   5.297  0.8085  0.9547 -0.1838
17901SOL     OW54280   2.916   7.748   9.949 -0.7103  0.2614  0.1714
17901SOL    HW154281   2.944   7.832   9.984  1.4772 -0.4596  0.3204
17901SOL    HW254282   2.910   7.761   9.855 -0.6706  0.6544  0.2233
17902SOL     OW54283   9.243   5.242   8.725  0.1563 -0.3748  0.5726
17902SOL    HW154284   9.184   5.217   8.797 -1.7080 -0.9605 -1.0558
17902SOL    HW254285   9.209   5.194   8.649  3.2061 -1.2937 -0.3489
17903SOL     OW54286   5.314   7.692   8.339 -0.5012  0.3073 -0.4926
17903SOL    HW154287   5.343   7.604   8.363 -3.0305 -1.1945 -2.3878
17903SOL    HW254288   5.286   7.732   8.421  1.9937 -0.0300  0.6151
17904SOL     OW54289   4.594   0.670   4.382 -0.1557  0.6144  0.8082
17904SOL    HW154290   4.507   0.656   4.422 -0.3864  1.1986  0.5358
17904SOL    HW254291   4.611   0.763   4.398 -0.2797  0.8794 -0.5003
17905SOL     OW54292   8.176   6.521   1.131  0.4087 -0.1419  0.1118
17905SOL    HW154293   8.254   6.476   1.098 -0.2726 -1.0888 -0.2640
17905SOL    HW254294   8.106   6.496   1.070 -0.6180 -0.9538  1.5569
17906SOL     OW54295   0.237   7.751   9.115  0.3335 -0.3016 -0.2717
17906SOL    HW154296   0.156   7.741   9.165 -0.1238 -0.3964 -1.0047
17906SOL    HW254297   0.305   7.760   9.181 -0.2555 -0.3708  0.3626
17907SOL     OW54298   9.227   5.453   7.772 -0.3630  0.3166  0.2113
17907SOL    HW154299   9.213   5.422   7.862 -2.3836 -0.2285 -0.2401
17907SOL    HW254300   9.166   5.527   7.762  0.3704  0.8455 -0.4928
17908SOL     OW54301   5.967   6.447   2.682 -0.4358 -0.4417 -0.3872
17908SOL    HW154302   6.005   6.526   2.720 -0.8349  0.0929 -1.0761
17908SOL    HW254303   6.003   6.376   2.735 -2.2551  0.3412  2.0740
17909SOL     OW54304   9.184   7.639   1.761 -0.4001  0.1319  0.1551
17909SOL    HW154305   9.195   7.551   1.797 -0.5634  0.0738  0.0640
17909SOL    HW254306   9.111   7.631   1.700  1.3642 -0.3608 -2.0630
17910SOL     OW54307   0.998   2.626   6.057 -0.6093  0.1503  0.1758
17910SOL    HW154308   0.938   2.555   6.079  0.1156 -0.9118 -1.1382
17910SOL    HW254309   0.942   2.693   6.018 -1.2506  0.1738  1.1001
17911SOL     OW54310   6.163   1.692   5.324  0.4199  0.4484 -0.0108
17911SOL    HW154311   6.154   1.757   5.394  0.3170  0.3519  0.0656
17911SOL    HW254312   6.161   1.743   5.243 -1.7328  0.3684 -0.0595
17912SOL     OW54313   7.677   0.592   8.265 -0.3880 -0.1153  0.1637
17912SOL    HW154314   7.593   0.546   8.277  1.1201 -2.5741  2.2512
17912SOL    HW254315   7.684   0.603   8.170 -2.4454 -1.1015 -0.1652
17913SOL     OW54316   2.843   9.827   3.177 -0.0169 -0.2413  0.3605
17913SOL    HW154317   2.895   9.907   3.172 -0.0846 -0.2377 -0.4483
17913SOL    HW254318   2.816   9.811   3.087 -1.3090 -0.3236  0.7494
17914SOL     OW54319   9.093   4.016   5.676  0.2946 -0.7395 -0.2617
17914SOL    HW154320   9.162   3.962   5.715 -0.4814 -1.0071  0.7710
17914SOL    HW254321   9.017   4.004   5.733 -0.2453  0.5261 -0.6727
17915SOL     OW54322   7.058   1.496   0.320  0.3944  0.3600 -0.3140
17915SOL    HW154323   6.986   1.494   0.257  0.0623  0.4338  0.0598
17915SOL    HW254324   7.056   1.585   0.356 -0.1823 -0.0302  0.6668
17916SOL     OW54325   8.469   0.707   8.866 -0.5036 -0.1812 -0.0781
17916SOL    HW154326   8.538   0.739   8.924 -0.1134  0.7948 -1.0358
17916SOL    HW254327   8.486   0.614   8.858  1.0928  0.1342 -0.7509
17917SOL     OW54328   8.238   4.434   1.044 -0.0936 -0.7720  0.0183
17917SOL    HW154329   8.165   4.461   0.988 -0.7980 -1.1124  0.7557
17917SOL    HW254330   8.272   4.516   1.080 -1.6320 -0.7293  1.5223
17918SOL     OW54331   3.092   7.954   2.071  0.3276 -0.0046 -0.1194
17918SOL    HW154332   3.063   8.044   2.059  1.0429  0.4209  1.0716
17918SOL    HW254333   3.031   7.901   2.021 -0.3653  1.1142 -0.4780
17919SOL     OW54334   1.235   1.211   0.513  0.1558  0.1386 -0.2707
17919SOL    HW154335   1.244   1.303   0.538 -1.2991 -0.0429  1.0734
17919SOL    HW254336   1.147   1.205   0.477  0.8973 -0.3965 -2.1257
17920SOL     OW54337   8.767   9.441   2.750  0.5762  0.1535  0.8624
17920SOL    HW154338   8.829   9.384   2.795 -0.2392 -0.5850  1.0812
17920SOL    HW254339   8.709   9.473   2.819 -1.5216 -2.0534  0.2475
17921SOL     OW54340   9.742   8.002   0.657  0.2074 -0.3941 -0.7251
17921SOL    HW154341   9.786   7.923   0.688 -0.7853 -1.0403 -0.9068
17921SOL    HW254342   9.765   8.069   0.722 -0.0462 -1.1772  0.2007
17922SOL     OW54343   5.350   0.618   8.748  0.1338 -0.2470  0.5108
17922SOL    HW154344   5.330   0.525   8.733  0.1238 -0.1274 -0.2785
17922SOL    HW254345   5.330   0.660   8.664 -1.8424  0.8037  1.4199
17923SOL     OW54346   8.408   9.370   1.122  0.3862 -0.0785 -0.4289
17923SOL    HW154347   8.328   9.389   1.170 -1.2544 -1.3510 -2.4680
17923SOL    HW254348   8.433   9.281   1.150  0.8902  0.1730 -0.0666
17924SOL     OW54349   4.124   1.949   8.969 -0.7205  0.3503  0.6770
17924SOL    HW154350   4.109   2.027   8.915  1.1300 -0.0678 -0.5145
17924SOL    HW254351   4.201   1.969   9.021 -1.0591 -0.1751  1.4053
17925SOL     OW54352   2.525   4.999   6.900  0.0950 -0.1075 -0.1016
17925SOL    HW154353   2.581   4.927   6.930  0.6726  0.0447 -0.7971
17925SOL    HW254354   2.448   4.995   6.957 -0.2419 -1.7629 -0.6432
17926SOL     OW54355   6.598   3.940   1.929 -0.1107 -0.6022  0.2367
17926SOL    HW154356   6.630   4.009   1.872  0.0762 -0.6426  0.2930
17926SOL    HW254357   6.518   3.909   1.886  0.3086 -0.9900 -0.2875
17927SOL     OW54358   6.434   9.454   2.965 -0.2796 -0.1147 -0.0059
17927SOL    HW154359   6.408   9.469   2.874 -1.5019 -2.2719 -0.0745
17927SOL    HW254360   6.380   9.380   2.994  2.0137 -1.2863  1.6097
17928SOL     OW54361   7.656   1.208   8.756  0.1919 -0.2866  0.3149
17928SOL    HW154362   7.681   1.213   8.664  1.7445  0.2733  0.7328
17928SOL    HW254363   7.712   1.273   8.800 -0.9880 -0.0462  1.5605
17929SOL     OW54364   0.200   3.343   6.244 -0.3824 -0.6771  0.3509
17929SOL    HW154365   0.197   3.354   6.149  0.9633 -1.7434  0.1590
17929SOL    HW254366   0.147   3.416   6.278 -1.0686 -0.4100 -1.2066
17930SOL     OW54367   3.804   7.801   8.322  0.0740 -0.2136  0.3929
17930SOL    HW154368   3.793   7.814   8.416  1.1144  0.6321  0.4241
17930SOL    HW254369   3.785   7.886   8.283  0.5994 -0.2927 -0.0584
17931SOL     OW54370   1.176   2.022   5.813  0.4449 -0.1691  0.3761
17931SOL    HW154371   1.248   2.072   5.774 -0.0035 -0.2674 -0.6148
17931SOL    HW254372   1.192   1.932   5.785  1.1531 -0.5813  2.0093
17932SOL     OW54373   6.292   0.437   1.741  0.8278  0.0136  0.0362
17932SOL    HW154374   6.294   0.399   1.828  2.0090 -0.2238 -0.0893
17932SOL    HW254375   6.270   0.364   1.683 -0.1782  0.2147  0.1363
17933SOL     OW54376   2.853   9.024   5.150 -0.2005 -0.0895 -0.0257
17933SOL    HW154377   2.894   8.970   5.083  1.1173  0.7993  0.0276
17933SOL    HW254378   2.904   9.105   5.150  1.3728 -0.8960  3.6161
17934SOL     OW54379   1.328   0.391   5.161  0.3533 -0.5337 -0.7919
17934SOL    HW154380   1.317   0.407   5.068 -0.9730  0.3049 -0.5218
17934SOL    HW254381   1.387   0.461   5.191  0.3625 -0.4921 -0.9089
17935SOL     OW54382   3.191   9.076   5.064  0.0782  0.3263  0.0439
17935SOL    HW154383   3.268   9.033   5.027  0.0490  0.5970 -0.3381
17935SOL    HW254384   3.120   9.013   5.051 -0.4047  1.2757 -2.3996
17936SOL     OW54385   5.516   3.177   4.277  0.0119 -0.2422  0.0254
17936SOL    HW154386   5.482   3.214   4.195  1.2712  2.2812  0.5425
17936SOL    HW254387   5.469   3.225   4.346 -0.6517 -1.9662  0.8358
17937SOL     OW54388   2.994   1.341   2.763 -0.2808  0.4381 -0.3965
17937SOL    HW154389   3.060   1.329   2.694 -0.4080  2.0926 -0.8515
17937SOL    HW254390   2.934   1.267   2.752 -0.6203  0.9418 -2.4694
17938SOL     OW54391   2.747   7.136   9.788 -0.2707 -0.2233  0.0318
17938SOL    HW154392   2.709   7.186   9.861 -0.8247 -2.4239  1.3561
17938SOL    HW254393   2.724   7.186   9.710  0.6458  2.4321  1.3293
17939SOL     OW54394   4.358   4.634   1.638 -0.1354  0.0987  0.0512
17939SOL    HW154395   4.432   4.695   1.631 -2.3842  3.0475 -0.1640
17939SOL    HW254396   4.326   4.646   1.727 -2.0009  1.0531 -0.7004
17940SOL     OW54397   8.278   7.494   7.031  0.6518  0.1421 -0.1539
17940SOL    HW154398   8.365   7.454   7.039 -0.3378 -2.3867 -0.8780
17940SOL    HW254399   8.248   7.506   7.121  0.9815 -0.8449  0.0998
17941SOL     OW54400   8.830   8.543   2.581 -0.3356 -0.4804 -0.3498
17941SOL    HW154401   8.803   8.506   2.665  3.1416  0.9005  1.6131
17941SOL    HW254402   8.862   8.469   2.531 -0.2419 -1.0579  0.5403
17942SOL     OW54403   2.125   7.836   8.013 -0.2140 -0.0933  0.3510
17942SOL    HW154404   2.172   7.755   8.031  1.5948  1.0070  0.9636
17942SOL    HW254405   2.045   7.830   8.064 -0.9188 -2.1630 -0.9184
17943SOL     OW54406   5.554   7.579   8.994 -0.3663 -0.1938  0.1807
17943SOL    HW154407   5.629   7.554   8.941 -0.0165 -1.5988  1.3033
17943SOL    HW254408   5.528   7.499   9.040 -2.0213  0.4623  0.4678
17944SOL     OW54409   1.064   0.754   4.278 -0.0870 -0.2788 -0.3782
17944SOL    HW154410   0.970   0.755   4.264  0.0731  0.3826 -1.4998
17944SOL    HW254411   1.096   0.684   4.221  0.1748 -0.0883 -0.4656
17945SOL     OW54412   3.001   0.906   4.415 -0.4451 -0.3683  0.0406
17945SOL    HW154413   3.055   0.879   4.341 -1.4590 -1.1993 -0.4210
17945SOL    HW254414   2.951   0.981   4.383  0.3274  0.3355  0.4356
17946SOL     OW54415   1.228   9.887   4.537  0.2357  0.3601 -0.0013
17946SOL    HW154416   1.257   9.879   4.447  0.7121 -1.4538  0.2868
17946SOL    HW254417   1.150   9.833   4.543  0.0796  0.6369  0.6323
17947SOL     OW54418   4.402   4.460   2.006 -0.3663  0.2444  0.3839
17947SOL    HW154419   4.411   4.551   2.034  0.6951  0.5686 -0.8622
17947SOL    HW254420   4.310   4.451   1.981 -0.1270  1.5030 -1.0989
17948SOL     OW54421   6.768   8.136   0.962 -0.2547 -0.0515  0.2688
17948SOL    HW154422   6.828   8.177   1.023  1.5292 -0.1313 -1.3399
17948SOL    HW254423   6.751   8.049   0.999  0.6165 -0.0144  0.7604
17949SOL     OW54424   5.410   4.085   6.978  0.0307 -0.1113 -0.0049
17949SOL    HW154425   5.368   4.022   6.920 -0.5099  1.1014 -0.9860
17949SOL    HW254426   5.496   4.100   6.939  0.8010 -1.4055  1.1209
17950SOL     OW54427   0.841   5.714   4.507 -0.2737 -0.0104  0.5692
17950SOL    HW154428   0.832   5.619   4.498  1.3342 -0.1919  0.5103
17950SOL    HW254429   0.920   5.735   4.457 -1.0148  1.4792 -0.0332
17951SOL     OW54430   9.468   7.547   0.722 -0.0226 -0.4466 -0.5945
17951SOL    HW154431   9.539   7.611   0.716  0.1009 -0.4323  0.6653
17951SOL    HW254432   9.437   7.537   0.632 -0.4625  1.8759 -0.7685
17952SOL     OW54433   1.719   3.266   8.611 -0.1060 -0.1251 -0.3486
17952SOL    HW154434   1.799   3.314   8.633 -0.5896  0.7924 -0.5405
17952SOL    HW254435   1.743   3.216   8.533  0.6490 -0.8550  0.3350
17953SOL     OW54436   9.234   6.557   7.163 -0.9203 -0.2366 -1.1515
17953SOL    HW154437   9.190   6.594   7.087  0.2850  2.6446 -0.5526
17953SOL    HW254438   9.194   6.601   7.238 -0.5138 -1.3509 -0.2507
17954SOL     OW54439   5.056   0.546   3.019 -0.0274  0.1610 -0.4454
17954SOL    HW154440   5.085   0.498   3.097  0.0976 -1.2480 -1.3190
17954SOL    HW254441   5.137   0.582   2.983  0.0366  0.0539 -0.4111
17955SOL     OW54442   0.606   1.506   6.465  0.0536  0.3435 -0.4845
17955SOL    HW154443   0.668   1.578   6.467 -1.2574  1.5149  1.5557
17955SOL    HW254444   0.657   1.429   6.490  0.8189  1.1700  0.5860
17956SOL     OW54445   6.928   3.091   2.445 -0.0654  0.3977 -0.1785
17956SOL    HW154446   6.865   3.078   2.374 -0.8102  0.5399  0.4334
17956SOL    HW254447   6.987   3.159   2.412 -0.8367  0.9851 -0.4004
17957SOL     OW54448   9.349   9.045   0.174 -0.2335  0.5036  0.2805
17957SOL    HW154449   9.434   9.002   0.161 -0.6279 -0.8905  1.9893
17957SOL    HW254450   9.343   9.108   0.102  0.3453 -2.3535 -2.4856
17958SOL     OW54451   7.164   4.401   6.163  0.3374  0.3401 -0.3218
17958SOL    HW154452   7.098   4.460   6.125  1.6097  0.7062 -2.1111
17958SOL    HW254453   7.113   4.330   6.201 -1.1252  0.2200 -2.2997
17959SOL     OW54454   0.460   3.253   2.523  0.1061 -0.1110 -0.3171
17959SOL    HW154455   0.491   3.343   2.512 -0.9215  0.3695  0.5746
17959SOL    HW254456   0.469   3.214   2.435  1.9223  0.3848 -0.3962
17960SOL     OW54457   3.439   9.584   5.009  0.1229  0.5577 -0.1698
17960SOL    HW154458   3.429   9.585   4.914 -0.3615 -1.1495 -0.1642
17960SOL    HW254459   3.528   9.617   5.024  0.6052 -0.1618 -1.2951
17961SOL     OW54460   7.926   6.043   1.721 -0.3609  0.4406 -0.2814
17961SOL    HW154461   8.009   6.087   1.741 -0.1457  0.4981 -1.2717
17961SOL    HW254462   7.952   5.960   1.680 -0.7917  0.3698 -0.4209
17962SOL     OW54463   0.244   1.603   9.193  0.1115 -0.1522 -0.6372
17962SOL    HW154464   0.212   1.615   9.104 -0.9311  2.0935 -0.0271
17962SOL    HW254465   0.179   1.646   9.248  2.3049  1.3289  0.9646
17963SOL     OW54466   6.280   2.558   3.433  0.1934 -0.0205  0.1115
17963SOL    HW154467   6.238   2.513   3.360  1.2976  0.9256 -1.1400
17963SOL    HW254468   6.214   2.621   3.463  0.0500  0.2027 -0.6551
17964SOL     OW54469   6.378   1.195   4.154  0.1748  0.4009 -0.1248
17964SOL    HW154470   6.441   1.129   4.182 -0.3745  0.9666  2.8322
17964SOL    HW254471   6.293   1.151   4.161  0.0230  0.4823 -1.3231
17965SOL     OW54472   5.902   2.415   4.519 -0.2706 -0.4246  0.3914
17965SOL    HW154473   5.940   2.401   4.605 -1.2894  0.1065  0.9405
17965SOL    HW254474   5.826   2.471   4.534  1.1325  2.1035 -1.1920
17966SOL     OW54475   0.930   5.268   4.811  0.2899  0.2331 -0.3937
17966SOL    HW154476   0.966   5.217   4.738 -0.2622 -1.0324  0.1937
17966SOL    HW254477   1.003   5.281   4.871  1.0956  2.4137 -1.7170
17967SOL     OW54478   5.644   7.449   9.403 -0.5353 -0.3622  0.2509
17967SOL    HW154479   5.660   7.528   9.353 -1.0647 -0.7805 -0.6028
17967SOL    HW254480   5.553   7.457   9.432 -0.7396 -0.8751 -0.2425
17968SOL     OW54481   8.692   8.883   9.987  0.8608  0.5363  0.4168
17968SOL    HW154482   8.617   8.833   9.954  1.0646  0.1445  0.5465
17968SOL    HW254483   8.762   8.865   9.924  0.3673  2.3278 -0.7319
17969SOL     OW54484   0.300   4.275   5.598 -0.4292  0.2724  0.2948
17969SOL    HW154485   0.232   4.315   5.652 -0.6056 -0.1813  0.4061
17969SOL    HW254486   0.339   4.207   5.653  0.2826  0.6835  0.3197
17970SOL     OW54487   6.120   0.417   2.246 -0.4034  0.1198  0.0693
17970SOL    HW154488   6.060   0.438   2.318  1.3535 -1.8594  2.3102
17970SOL    HW254489   6.203   0.398   2.290  1.0670 -0.1107 -2.6316
17971SOL     OW54490   7.159   7.697   3.108  0.3082 -0.0413 -0.0682
17971SOL    HW154491   7.095   7.630   3.131  0.3663 -0.2924 -0.5996
17971SOL    HW254492   7.239   7.647   3.088  0.5335  0.2340  0.1332
17972SOL     OW54493   9.552   3.440   7.815  0.5356  0.1460  0.2675
17972SOL    HW154494   9.545   3.356   7.768  2.3771  0.0059  0.1795
17972SOL    HW254495   9.481   3.493   7.779  0.6253 -0.6734 -1.2045
17973SOL     OW54496   2.809   6.183   3.669  0.6168  0.3798 -0.2045
17973SOL    HW154497   2.860   6.117   3.716  1.3670  1.0765 -0.0038
17973SOL    HW254498   2.771   6.237   3.738 -0.1995  0.0247 -0.3611
17974SOL     OW54499   3.494   0.251   9.973  0.2250  0.1404 -0.5082
17974SOL    HW154500   3.400   0.247   9.994  0.7338 -1.9081  1.8160
17974SOL    HW254501   3.498   0.229   9.880 -1.5413 -1.4356 -0.2893
17975SOL     OW54502   2.116   5.474   5.190 -0.1385 -0.3104  0.0210
17975SOL    HW154503   2.141   5.439   5.275 -0.6003 -1.0099 -0.1263
17975SOL    HW254504   2.198   5.506   5.152  0.2809 -1.1660  0.1906
17976SOL     OW54505   6.749   1.486   0.830  0.2026 -0.4808 -0.2672
17976SOL    HW154506   6.755   1.395   0.858 -2.0725 -0.7707 -0.5467
17976SOL    HW254507   6.730   1.535   0.911 -1.5290 -0.6880 -0.5069
17977SOL     OW54508   0.388   4.903   3.958  0.0242  0.6982  0.0493
17977SOL    HW154509   0.379   4.814   3.992 -0.7731  1.0791  0.8718
17977SOL    HW254510   0.369   4.894   3.865 -2.2073  0.3128  0.4769
17978SOL     OW54511   0.690   0.833   7.196  0.0812 -0.3977  0.4040
17978SOL    HW154512   0.692   0.846   7.291  1.4484 -0.7333  0.4378
17978SOL    HW254513   0.746   0.902   7.161 -1.2659  0.4107 -0.2826
17979SOL     OW54514   7.597   6.521   5.293 -0.1550 -0.0461 -0.3469
17979SOL    HW154515   7.688   6.539   5.271 -0.1314 -1.2345 -1.3099
17979SOL    HW254516   7.581   6.570   5.373  1.7324 -0.8911  0.5931
17980SOL     OW54517   9.897   9.935   7.778  0.0214 -0.3309  0.0774
17980SOL    HW154518   9.989   9.931   7.805 -0.0674  0.3435  0.5107
17980SOL    HW254519   9.853   9.872   7.834  0.1313 -0.2447  0.2640
17981SOL     OW54520   1.576   7.038   7.029  0.7693 -0.6906  0.2843
17981SOL    HW154521   1.648   7.026   6.967 -0.0949 -1.6029 -0.5723
17981SOL    HW254522   1.535   6.952   7.037 -1.0082  0.0359 -0.2532
17982SOL     OW54523   7.276   7.326   5.271 -0.4530  0.3193 -0.1147
17982SOL    HW154524   7.366   7.311   5.299 -0.0413 -0.5213 -1.7291
17982SOL    HW254525   7.226   7.258   5.316  0.2172 -1.1129 -1.4197
17983SOL     OW54526   8.992   2.487   5.397 -0.3392 -0.2235  0.2325
17983SOL    HW154527   8.903   2.494   5.431 -0.2427 -1.5864  0.8154
17983SOL    HW254528   9.018   2.578   5.381 -2.1153  0.1713 -0.7386
17984SOL     OW54529   8.069   6.236   9.766  0.2977 -0.0015 -0.3460
17984SOL    HW154530   8.045   6.315   9.719 -3.2890 -0.9694 -0.3930
17984SOL    HW254531   8.085   6.265   9.856 -0.0310  0.9022 -0.5726
17985SOL     OW54532   8.956   1.205   3.662  0.3333 -0.0901  0.3694
17985SOL    HW154533   9.011   1.132   3.633  0.5044  0.0713  0.2871
17985SOL    HW254534   9.016   1.265   3.706  0.4408  0.6320 -0.7119
17986SOL     OW54535   7.070   9.438   4.023  0.0946  0.2316  0.5173
17986SOL    HW154536   7.070   9.350   3.985  0.2912  0.9024 -1.1295
17986SOL    HW254537   7.137   9.486   3.973  0.2998  1.2084  1.6719
17987SOL     OW54538   7.771   1.282   0.155 -0.5501 -0.2174 -0.1517
17987SOL    HW154539   7.734   1.229   0.084 -0.2349  2.0052 -2.0757
17987SOL    HW254540   7.860   1.302   0.126  0.0801 -0.3863  1.5595
17988SOL     OW54541   6.824   1.118   1.545 -0.1630  0.2860  0.5809
17988SOL    HW154542   6.871   1.061   1.605 -0.2469  0.0139  0.3883
17988SOL    HW254543   6.880   1.195   1.537  1.0547 -0.6908 -0.8781
17989SOL     OW54544   7.155   2.886   6.980  0.1703 -0.0086 -0.3909
17989SOL    HW154545   7.202   2.805   7.000  0.1703 -0.9113 -3.5101
17989SOL    HW254546   7.211   2.955   7.015  0.5706 -1.2651  1.6388
17990SOL     OW54547   9.216   1.567   7.866  0.4202  0.4278 -0.0061
17990SOL    HW154548   9.173   1.632   7.921 -1.8637 -0.8608 -0.1662
17990SOL    HW254549   9.215   1.487   7.918 -0.8315 -0.5499 -1.4758
17991SOL     OW54550   4.252   6.404   4.545 -0.4053  0.5538  0.3032
17991SOL    HW154551   4.196   6.369   4.477  1.0625 -0.1392 -0.5943
17991SOL    HW254552   4.254   6.336   4.613  0.0111  0.2047 -0.0537
17992SOL     OW54553   8.118   4.671   9.853  0.4821 -0.3499 -0.0139
17992SOL    HW154554   8.083   4.655   9.765  0.6549  0.9170 -0.3320
17992SOL    HW254555   8.119   4.584   9.894  0.6976 -1.0238 -1.3660
17993SOL     OW54556   6.069   4.031   4.009 -0.1696 -0.2321 -0.4408
17993SOL    HW154557   6.121   4.062   3.935  2.9720 -0.3207  1.5596
17993SOL    HW254558   6.093   4.089   4.081 -3.0678 -0.1829  0.6093
17994SOL     OW54559   3.542   9.423   2.864 -0.2402 -0.1830 -0.0447
17994SOL    HW154560   3.546   9.328   2.856 -2.1835 -0.3174  0.1486
17994SOL    HW254561   3.458   9.448   2.826 -1.5572  1.0129  3.2038
17995SOL     OW54562   2.312   1.091   3.107  0.0007  0.3224 -0.0540
17995SOL    HW154563   2.230   1.042   3.110  0.7218 -0.9793 -0.9110
17995SOL    HW254564   2.291   1.171   3.060 -0.8817  0.2373  0.1794
17996SOL     OW54565   9.838   6.448   6.148 -0.3693 -0.2328 -0.4166
17996SOL    HW154566   9.745   6.468   6.132 -0.1514  0.6588 -0.6651
17996SOL    HW254567   9.880   6.466   6.064  0.2982  1.2355  0.1860
17997SOL     OW54568   3.682   7.573   5.777 -0.4900  0.5788  0.1294
17997SOL    HW154569   3.686   7.665   5.752  0.1383  0.1010 -1.6106
17997SOL    HW254570   3.769   7.538   5.758 -0.4041 -0.1634  1.7166
17998SOL     OW54571   8.476   1.113   7.644 -0.5191 -0.0748  0.1086
17998SOL    HW154572   8.526   1.036   7.617  0.2567 -1.2918  4.2635
17998SOL    HW254573   8.543   1.178   7.667 -0.9751  0.0726  1.0910
17999SOL     OW54574   7.257   6.121   7.638 -0.1526 -0.0947 -0.5025
17999SOL    HW154575   7.228   6.167   7.560  0.0558 -0.3305 -0.7191
17999SOL    HW254576   7.348   6.148   7.649  0.3653 -1.4330 -1.3557
18000SOL     OW54577   1.426   6.865   2.850 -0.3257  0.7066 -0.4646
18000SOL    HW154578   1.387   6.941   2.807  0.6409  1.2723 -0.3766
18000SOL    HW254579   1.519   6.887   2.860 -0.5422  0.7630  2.2372
18001SOL     OW54580   5.188   2.759   7.669  0.5041 -0.1482  0.3459
18001SOL    HW154581   5.198   2.719   7.583  0.2867  1.6209 -0.5411
18001SOL    HW254582   5.261   2.822   7.675 -0.4398  0.9551  0.7199
18002SOL     OW54583   8.486   1.643   0.783 -0.4226  0.4788  0.4004
18002SOL    HW154584   8.439   1.628   0.700 -1.6504 -0.4027  1.2153
18002SOL    HW254585   8.519   1.732   0.775 -1.9710  1.0329 -0.3844
18003SOL     OW54586   1.273   3.889   3.711 -0.6313 -0.1016 -0.2717
18003SOL    HW154587   1.336   3.863   3.644 -0.0422 -0.4929  0.4265
18003SOL    HW254588   1.264   3.984   3.700  1.3415  0.2523  0.6657
18004SOL     OW54589   1.889   7.117   5.943  0.2246  0.5279  0.2348
18004SOL    HW154590   1.941   7.046   5.904 -0.5642  0.1245 -0.1083
18004SOL    HW254591   1.943   7.195   5.930  1.0095  0.0316  0.4173
18005SOL     OW54592   4.163   1.536   4.177  0.0226  0.0249  0.1241
18005SOL    HW154593   4.122   1.481   4.244  0.5169  1.4841  1.6963
18005SOL    HW254594   4.093   1.557   4.116 -0.0278 -2.8927 -0.9507
18006SOL     OW54595   1.335   1.714   1.179  0.5065 -0.2138 -0.3773
18006SOL    HW154596   1.388   1.793   1.192  1.1898 -0.5822 -0.8680
18006SOL    HW254597   1.384   1.663   1.115  0.5124 -1.4351  0.5733
18007SOL     OW54598   5.700   3.933   1.959  0.4566  0.1782 -0.0553
18007SOL    HW154599   5.697   4.029   1.951 -1.7903  0.1031 -0.8539
18007SOL    HW254600   5.614   3.909   1.992  0.8122 -1.6200 -0.3233
18008SOL     OW54601   3.378   6.657   1.259  0.0367 -1.0164 -0.2290
18008SOL    HW154602   3.459   6.618   1.228  0.7780 -0.5938  1.0711
18008SOL    HW254603   3.382   6.647   1.354 -1.1181 -0.3757 -0.0966
18009SOL     OW54604   3.776   0.709   8.606  0.2618 -0.1664  0.5128
18009SOL    HW154605   3.682   0.689   8.601  0.0860  0.8509 -0.7448
18009SOL    HW254606   3.780   0.800   8.634  0.8150  0.2190 -0.7576
18010SOL     OW54607   3.166   5.592   4.315  0.1594 -0.0295  0.1220
18010SOL    HW154608   3.184   5.537   4.239 -1.8472  0.2793 -0.6469
18010SOL    HW254609   3.249   5.637   4.332  1.0057 -1.0402 -1.0853
18011SOL     OW54610   8.551   2.816   5.453  0.6382  0.1738  0.2145
18011SOL    HW154611   8.534   2.722   5.457 -0.2058  0.2929 -0.3279
18011SOL    HW254612   8.636   2.823   5.408  1.1610 -0.3516  1.0938
18012SOL     OW54613   2.023   4.065   0.726 -0.1395 -0.4061  0.1208
18012SOL    HW154614   1.947   4.037   0.676  0.3227 -2.3946  0.4633
18012SOL    HW254615   2.078   4.112   0.663 -0.4878 -1.1422 -0.7473
18013SOL     OW54616   4.107   2.259   6.684 -0.6197 -0.6179  1.0589
18013SOL    HW154617   4.154   2.341   6.701 -1.1275 -0.0030 -0.3739
18013SOL    HW254618   4.019   2.286   6.661 -0.6446 -1.5270  0.0063
18014SOL     OW54619   3.508   4.889   8.643 -0.5774 -0.7173 -0.2604
18014SOL    HW154620   3.501   4.862   8.551  1.9569 -0.2783 -0.6651
18014SOL    HW254621   3.443   4.836   8.689 -1.5321 -1.3362 -2.2067
18015SOL     OW54622   1.813   9.352   8.938  0.0895 -0.3733 -0.4207
18015SOL    HW154623   1.735   9.304   8.909  0.6992 -1.4138 -0.4104
18015SOL    HW254624   1.826   9.322   9.028  0.0306  0.4283 -0.1426
18016SOL     OW54625   6.888   1.823   6.108 -0.3528 -0.1782  0.2246
18016SOL    HW154626   6.793   1.813   6.109 -0.5100  0.7121 -1.3191
18016SOL    HW254627   6.903   1.900   6.053  1.2999 -0.8333 -0.3140
18017SOL     OW54628   3.915   8.170   1.405  0.1899  0.2097 -0.3799
18017SOL    HW154629   3.930   8.264   1.393  1.5445 -0.0383 -0.8563
18017SOL    HW254630   3.939   8.153   1.495  1.8928  0.0059 -0.8400
18018SOL     OW54631   8.581   2.992   6.907 -0.2501 -0.5075  0.3110
18018SOL    HW154632   8.671   3.006   6.879  0.4046 -0.6448  2.2330
18018SOL    HW254633   8.560   3.069   6.960 -1.8895  0.3648 -1.4747
18019SOL     OW54634   0.794   3.097   7.344  0.2356 -0.1705  0.3495
18019SOL    HW154635   0.749   3.013   7.340 -1.1105  0.5620 -0.7112
18019SOL    HW254636   0.863   3.091   7.278  0.5609 -0.6493  0.7232
18020SOL     OW54637   0.454   6.343   3.564 -0.1680 -0.2124  0.3619
18020SOL    HW154638   0.537   6.336   3.610  0.2625  1.0251 -0.1792
18020SOL    HW254639   0.404   6.408   3.613 -0.7392 -0.7643  0.5384
18021SOL     OW54640   7.810   3.691   4.153 -0.1772 -0.7668 -0.3178
18021SOL    HW154641   7.724   3.652   4.163  0.1543 -1.1765  1.0721
18021SOL    HW254642   7.868   3.636   4.206  0.9795 -0.6140 -1.3889
18022SOL     OW54643   7.374   4.670   7.376  0.2541  0.0801  0.2585
18022SOL    HW154644   7.464   4.669   7.409 -0.1336 -3.7251  1.6472
18022SOL    HW254645   7.320   4.658   7.454 -1.3135 -0.1347 -0.8151
18023SOL     OW54646   9.907   2.105   2.801  0.3229  0.4689 -0.4468
18023SOL    HW154647   9.977   2.064   2.750 -0.6145 -0.2635 -1.1736
18023SOL    HW254648   9.893   2.190   2.759  1.9636  1.4115  0.7918
18024SOL     OW54649   4.682   1.454   1.989  0.3128 -0.0420 -0.4087
18024SOL    HW154650   4.768   1.420   1.964  1.4294 -0.0577  2.9832
18024SOL    HW254651   4.667   1.420   2.077 -3.4375 -0.3849 -1.0161
18025SOL     OW54652   3.484   8.363   5.915  0.1084  0.3916 -0.2107
18025SOL    HW154653   3.406   8.378   5.969  1.1463  0.2951  1.3992
18025SOL    HW254654   3.503   8.269   5.926  1.1066  0.6445  0.3826
18026SOL     OW54655   9.377   8.337   5.611 -0.0454 -0.2844  0.3805
18026SOL    HW154656   9.330   8.398   5.554 -0.6537  1.0319  2.1716
18026SOL    HW254657   9.358   8.369   5.700 -0.5720 -3.2443  1.4294
18027SOL     OW54658   1.127   4.201   2.517  0.0805  0.0942 -0.4860
18027SOL    HW154659   1.037   4.186   2.548 -0.2362  0.8909 -0.9871
18027SOL    HW254660   1.154   4.281   2.561  0.6700 -0.3138 -0.0983
18028SOL     OW54661   7.732   9.753   8.548  0.1755  0.7429 -0.2694
18028SOL    HW154662   7.804   9.691   8.562  1.2736  2.3655  2.2264
18028SOL    HW254663   7.751   9.794   8.464  1.6550  0.4136 -0.1234
18029SOL     OW54664   6.952   8.958   2.871 -0.5911  0.1477 -0.1471
18029SOL    HW154665   6.881   9.009   2.910  0.3563  0.4319  1.2656
18029SOL    HW254666   6.962   8.995   2.783 -1.1141  1.1980  0.2151
18030SOL     OW54667   5.251   5.481   4.088  0.1324  0.1927  0.0051
18030SOL    HW154668   5.327   5.535   4.104  0.3153 -0.2402  0.6252
18030SOL    HW254669   5.212   5.467   4.174 -0.1524 -0.3043 -0.1962
18031SOL     OW54670   4.167   7.487   3.809  0.3399  0.0681  0.4563
18031SOL    HW154671   4.078   7.493   3.843  0.4397  1.8195  0.4784
18031SOL    HW254672   4.158   7.504   3.715  0.5799 -0.4781  0.3292
18032SOL     OW54673   2.758   4.447   1.610 -0.2904 -0.0782  1.0197
18032SOL    HW154674   2.677   4.487   1.640  0.6857  1.5933  1.5683
18032SOL    HW254675   2.806   4.427   1.691  0.3200 -0.0013  0.6844
18033SOL     OW54676   5.935   7.891   6.804  0.0544  0.3428  0.3087
18033SOL    HW154677   5.876   7.899   6.729 -0.1720 -0.7043  0.3501
18033SOL    HW254678   5.937   7.978   6.844  1.4878  1.3848 -1.8703
18034SOL     OW54679   2.341   7.732   5.293  0.2661  0.0003 -0.0902
18034SOL    HW154680   2.403   7.728   5.221  0.8013  1.9600  0.1922
18034SOL    HW254681   2.375   7.671   5.358  0.6992 -0.5395 -0.8148
18035SOL     OW54682   9.568   3.791   5.343 -0.3035 -0.5024  0.7541
18035SOL    HW154683   9.646   3.842   5.325 -0.4140 -0.5937 -0.0276
18035SOL    HW254684   9.532   3.771   5.256 -0.8197 -1.0320  1.0822
18036SOL     OW54685   5.995   3.875   1.456 -0.0227 -0.1837 -0.2224
18036SOL    HW154686   6.064   3.867   1.521  0.2825  0.6004 -0.4401
18036SOL    HW254687   5.980   3.969   1.448 -0.6773 -0.3154 -0.6338
18037SOL     OW54688   1.384   3.332   0.829  0.4522 -0.4663 -0.2968
18037SOL    HW154689   1.416   3.421   0.843 -2.1696  0.8311 -1.8117
18037SOL    HW254690   1.325   3.316   0.904  0.5779 -0.7471 -0.2579
18038SOL     OW54691   7.917   3.367   6.828 -0.1074 -0.2127  0.1843
18038SOL    HW154692   7.961   3.282   6.819 -0.1777 -0.2451  0.1511
18038SOL    HW254693   7.987   3.426   6.855 -0.0749 -0.2985  0.2897
18039SOL     OW54694   9.505   5.021   8.471  0.0432  0.5352 -0.0750
18039SOL    HW154695   9.420   5.028   8.516  0.0920 -0.9993  0.3121
18039SOL    HW254696   9.568   5.004   8.542  0.4598  0.3054 -0.4977
18040SOL     OW54697   6.957   6.983   2.767 -0.3107 -0.4877 -0.3982
18040SOL    HW154698   7.015   6.910   2.787  0.6446  0.0809 -1.0001
18040SOL    HW254699   6.967   7.043   2.841  1.1810  0.3818 -1.2638
18041SOL     OW54700   4.019   1.521   4.621 -0.8169  0.3217  0.1677
18041SOL    HW154701   4.043   1.491   4.533 -2.1132  2.1234 -0.8772
18041SOL    HW254702   4.102   1.538   4.664  0.0110 -3.7595  0.5920
18042SOL     OW54703   4.532   0.328   1.908  0.1174 -0.5253 -0.0725
18042SOL    HW154704   4.453   0.278   1.889  0.0797 -0.7321  0.6032
18042SOL    HW254705   4.501   0.417   1.927 -0.0245 -0.7522  0.8115
18043SOL     OW54706   7.277   8.925   2.604  0.0820 -0.0951  0.1453
18043SOL    HW154707   7.314   8.955   2.687  1.1470 -0.7353 -0.0869
18043SOL    HW254708   7.248   8.836   2.621 -2.2245  0.6588  0.5665
18044SOL     OW54709   6.049   8.393   6.956 -0.3520 -0.4417 -0.2540
18044SOL    HW154710   6.096   8.468   6.992  0.5062 -2.6104  3.7896
18044SOL    HW254711   6.094   8.374   6.874  0.9620  1.9827 -0.2025
18045SOL     OW54712   2.558   1.482   6.860 -0.0192  0.0731  0.2532
18045SOL    HW154713   2.508   1.518   6.934  0.9437 -0.9667  1.4462
18045SOL    HW254714   2.552   1.387   6.871  0.9740 -0.0798 -0.4469
18046SOL     OW54715   4.059   0.912   8.371 -0.9707  0.3820 -0.1246
18046SOL    HW154716   4.033   0.935   8.460  1.5712 -0.7519  0.9960
18046SOL    HW254717   4.110   0.987   8.340 -0.1406 -0.0495  0.1719
18047SOL     OW54718   3.107   7.842   1.480 -0.2006  0.4173 -0.0547
18047SOL    HW154719   3.130   7.860   1.389  0.6579 -1.8848 -0.3483
18047SOL    HW254720   3.180   7.877   1.532 -0.3298  1.0463 -0.2891
18048SOL     OW54721   2.615   9.322   9.337  0.0116 -0.2729  0.2642
18048SOL    HW154722   2.604   9.294   9.428 -2.0767  0.5473  0.3337
18048SOL    HW254723   2.635   9.415   9.343 -0.3389 -0.1693 -0.0968
18049SOL     OW54724   7.563   7.297   7.915  0.7394 -0.4024 -0.4861
18049SOL    HW154725   7.522   7.218   7.949 -2.7696  1.3206 -0.3142
18049SOL    HW254726   7.520   7.369   7.962  2.5910  1.7282 -1.8088
18050SOL     OW54727   4.821   5.354   8.476 -0.0738  1.0057 -0.3194
18050SOL    HW154728   4.840   5.416   8.547  0.1419 -0.6487  1.1387
18050SOL    HW254729   4.862   5.393   8.399 -0.6357  3.0588  0.3356
18051SOL     OW54730   2.541   4.865   8.943 -0.0166 -0.1033 -0.0748
18051SOL    HW154731   2.570   4.824   8.862  1.5274 -0.7711  0.7773
18051SOL    HW254732   2.453   4.898   8.923 -0.4236 -1.8662 -1.4503
18052SOL     OW54733   9.051   3.620   0.991  0.3925 -0.1563 -0.6807
18052SOL    HW154734   8.981   3.586   1.046  3.0783 -1.2574  2.4726
18052SOL    HW254735   9.069   3.707   1.028  0.8362 -0.0026 -1.2535
18053SOL     OW54736   2.903   5.605   9.607  0.2058  0.3245 -0.2070
18053SOL    HW154737   2.863   5.547   9.672 -1.1317 -0.6384 -1.8035
18053SOL    HW254738   2.913   5.689   9.653 -0.8830 -0.2590  1.1778
18054SOL     OW54739   6.060   2.203   2.864 -0.5035  0.2229  0.7836
18054SOL    HW154740   6.144   2.187   2.906 -0.3452 -0.3258  0.2541
18054SOL    HW254741   6.038   2.293   2.889  1.4045  1.2928 -1.0839
18055SOL     OW54742   4.566   9.040   8.199  0.3690  0.5131 -0.4698
18055SOL    HW154743   4.471   9.039   8.183  0.4078  1.3607 -0.8567
18055SOL    HW254744   4.574   9.055   8.294  0.1244 -0.6010 -0.2659
18056SOL     OW54745   1.192   9.928   5.653 -0.4721 -0.1847 -0.3432
18056SOL    HW154746   1.236   9.923   5.568  0.4633  0.1703  0.1159
18056SOL    HW254747   1.189  10.021   5.673  1.5079 -0.3960  1.1335
18057SOL     OW54748   3.542   6.946   5.423  0.1430  0.0055 -0.4372
18057SOL    HW154749   3.452   6.921   5.405 -0.5018  2.2062 -0.5438
18057SOL    HW254750   3.573   6.880   5.485 -2.2805  0.4017  1.3607
18058SOL     OW54751   3.970   7.099   3.556  0.1856 -0.4052 -0.2416
18058SOL    HW154752   3.947   7.166   3.491 -1.5403 -0.7417 -0.0117
18058SOL    HW254753   4.058   7.124   3.584  1.6156 -1.0433 -3.6764
18059SOL     OW54754   2.807   9.481   8.569 -0.1387 -0.2401 -0.5412
18059SOL    HW154755   2.822   9.431   8.489  0.7593  0.1210 -0.6133
18059SOL    HW254756   2.712   9.481   8.580 -0.3007  0.0107 -1.8044
18060SOL     OW54757   0.666   9.087   6.891  0.3844  0.2761  0.3449
18060SOL    HW154758   0.607   9.039   6.833  2.0122 -0.0866 -1.0758
18060SOL    HW254759   0.649   9.050   6.978 -3.8738  2.5006  0.6994
18061SOL     OW54760   6.710   1.698   8.828 -0.1192  0.2700  0.1247
18061SOL    HW154761   6.670   1.778   8.862 -0.8419  0.2531 -0.6629
18061SOL    HW254762   6.802   1.720   8.815  0.2583  0.2326  2.2293
18062SOL     OW54763   2.138   4.189   1.893 -0.2885  0.7050 -0.6968
18062SOL    HW154764   2.214   4.133   1.910 -1.0694  0.6127  3.3296
18062SOL    HW254765   2.064   4.129   1.895 -0.7488  1.2123 -1.7363
18063SOL     OW54766   6.725   0.107   9.636 -0.6903  0.1577 -0.5541
18063SOL    HW154767   6.779   0.183   9.612  0.9127 -1.3362 -1.9401
18063SOL    HW254768   6.673   0.090   9.557  0.4996 -1.4185 -1.0328
18064SOL     OW54769   5.201   0.061   3.583  0.5488  0.1433  0.0534
18064SOL    HW154770   5.293   0.035   3.584 -0.1268 -2.5625  2.4963
18064SOL    HW254771   5.152  -0.020   3.595 -2.1734  1.5984 -0.3601
18065SOL     OW54772   4.393   1.369   2.107 -0.2475 -0.1359  0.2463
18065SOL    HW154773   4.356   1.317   2.036  0.0157  0.9823 -0.7363
18065SOL    HW254774   4.392   1.459   2.075  0.0014  0.3907  1.6121
18066SOL     OW54775   8.361   8.361   5.978 -0.5754 -0.2490  0.2340
18066SOL    HW154776   8.440   8.313   5.954  1.1801  0.7595  3.3316
18066SOL    HW254777   8.290   8.300   5.962  0.9544 -1.7001 -1.4347
18067SOL     OW54778   8.038   1.275   2.738 -0.3682  0.5079  0.2875
18067SOL    HW154779   8.093   1.277   2.659 -2.0853  1.9273 -0.9574
18067SOL    HW254780   8.047   1.363   2.775 -1.0576  0.4455  0.6055
18068SOL     OW54781   3.426   9.102   2.974  0.0326 -0.1064 -0.6563
18068SOL    HW154782   3.406   9.028   3.031  1.3809  0.0621  0.0869
18068SOL    HW254783   3.344   9.122   2.930 -0.4122 -1.9361 -0.7433
18069SOL     OW54784   4.484   6.233   2.058 -0.4011  0.0311 -0.0461
18069SOL    HW154785   4.513   6.279   2.136  0.3005 -1.8483  0.8608
18069SOL    HW254786   4.509   6.291   1.985  2.3459  0.2036  0.9029
18070SOL     OW54787   5.477   2.134   6.161  0.2859  0.2576  0.4488
18070SOL    HW154788   5.448   2.139   6.252 -0.8307 -2.4272  0.3385
18070SOL    HW254789   5.445   2.215   6.121 -0.9213  0.5978  2.0012
18071SOL     OW54790   9.026   7.891   2.809 -0.6672  0.5328 -0.4011
18071SOL    HW154791   8.945   7.869   2.762 -1.4692  0.4216  0.9621
18071SOL    HW254792   9.070   7.808   2.821 -1.7302  0.1483  1.2353
18072SOL     OW54793   9.656   9.881   9.136  0.5807 -0.0723 -0.5243
18072SOL    HW154794   9.594   9.865   9.207  2.3014 -1.8773  0.6797
18072SOL    HW254795   9.686   9.971   9.149  0.1225 -0.0445  0.4179
18073SOL     OW54796   0.245   7.469   1.255 -0.4817  0.3726  0.3940
18073SOL    HW154797   0.309   7.539   1.240  1.4828 -1.7045 -1.5573
18073SOL    HW254798   0.278   7.395   1.205 -4.8101 -0.6610 -1.3050
18074SOL     OW54799   2.405   1.119   8.037  0.5245 -0.2935 -0.6406
18074SOL    HW154800   2.457   1.142   7.959  1.3398 -3.9747 -1.3431
18074SOL    HW254801   2.317   1.103   8.002  0.3322  0.1872 -0.3935
18075SOL     OW54802   1.595   2.638   4.506  0.2583 -0.1208 -0.4765
18075SOL    HW154803   1.594   2.619   4.412  0.1407  2.0059 -0.9547
18075SOL    HW254804   1.673   2.692   4.519  0.3057 -0.4398  0.6804
18076SOL     OW54805   5.359   3.262   6.370  0.0161 -0.3286 -0.0126
18076SOL    HW154806   5.320   3.259   6.457 -0.0784  1.3206  0.0425
18076SOL    HW254807   5.289   3.295   6.313  0.5107  0.0316 -0.4268
18077SOL     OW54808   0.653   1.945   1.767  0.3980 -0.4521 -0.2218
18077SOL    HW154809   0.574   1.929   1.818  0.3291  1.6352  0.4254
18077SOL    HW254810   0.633   2.025   1.717  1.7244 -0.4923 -0.8521
18078SOL     OW54811   6.327   8.054   0.853 -0.2805 -0.9786 -0.0524
18078SOL    HW154812   6.392   8.116   0.821 -1.6802  0.6810  0.1834
18078SOL    HW254813   6.354   8.033   0.942 -1.3388  1.6540  0.9747
18079SOL     OW54814   5.121   4.223   0.928  0.1054  0.3369 -0.1626
18079SOL    HW154815   5.178   4.160   0.973  1.6859  1.1906 -0.8869
18079SOL    HW254816   5.180   4.294   0.903 -1.8405  2.9113  1.9775
18080SOL     OW54817   0.367   1.927   4.355  0.3333  0.2622  0.2217
18080SOL    HW154818   0.342   1.910   4.446 -0.8082 -0.1053 -0.1408
18080SOL    HW254819   0.413   2.011   4.358 -1.1593  1.1142  0.9375
18081SOL     OW54820   2.853   9.497   6.493  0.4102 -0.1560  0.2278
18081SOL    HW154821   2.876   9.411   6.458  3.1118  0.5549  0.0152
18081SOL    HW254822   2.853   9.485   6.588 -0.2174 -0.5831  0.1834
18082SOL     OW54823   7.052   8.819   0.084 -0.1412  0.0424 -0.1615
18082SOL    HW154824   7.135   8.799   0.128  0.7288 -0.3863 -1.9093
18082SOL    HW254825   7.054   8.914   0.072 -0.5800  0.2205  1.0513
18083SOL     OW54826   7.824   0.512   8.715  0.1974  0.3152 -0.5272
18083SOL    HW154827   7.786   0.568   8.783 -0.4996 -0.1085 -0.5562
18083SOL    HW254828   7.829   0.568   8.638  0.4344  0.6267 -0.2868
18084SOL     OW54829   5.892   8.703   5.912  0.3075  0.1377 -0.4398
18084SOL    HW154830   5.814   8.686   5.860  0.0598 -0.1812  0.0275
18084SOL    HW254831   5.885   8.795   5.937  0.3397  0.2460 -0.8184
18085SOL     OW54832   2.081   8.123   9.703 -0.4970 -0.1054 -0.2691
18085SOL    HW154833   2.080   8.203   9.755  1.9039 -0.1590 -0.0603
18085SOL    HW254834   2.066   8.152   9.613  0.9772  0.6948 -0.2864
18086SOL     OW54835   8.251   9.718   8.480 -0.1838 -0.0064 -0.0091
18086SOL    HW154836   8.245   9.622   8.483  0.9822 -0.0974 -0.1925
18086SOL    HW254837   8.225   9.740   8.391 -1.7770 -0.0217  0.4171
18087SOL     OW54838   7.937   0.161   1.691 -0.3113 -0.4596  0.0198
18087SOL    HW154839   7.866   0.208   1.735 -1.7745 -1.9814 -0.6335
18087SOL    HW254840   7.996   0.136   1.762 -0.8914  0.0340  0.6919
18088SOL     OW54841   8.422   1.449   4.868 -0.2645 -0.1523 -0.3204
18088SOL    HW154842   8.497   1.395   4.843 -1.4276 -1.5517 -0.9513
18088SOL    HW254843   8.351   1.386   4.884 -1.0565  1.0626  1.2445
18089SOL     OW54844   0.856   5.963   9.888 -0.1701 -0.0584  0.5320
18089SOL    HW154845   0.940   5.937   9.926 -0.1087 -0.1783  0.3166
18089SOL    HW254846   0.879   6.031   9.825  0.0475 -1.6153 -1.1600
18090SOL     OW54847   4.878   1.838   8.009 -0.2161  0.0009  0.0430
18090SOL    HW154848   4.913   1.838   8.098 -0.7271  0.8582  0.2523
18090SOL    HW254849   4.952   1.809   7.955 -0.2270 -1.6121  0.8456
18091SOL     OW54850   1.225   0.744   5.080  0.0315  0.6030 -0.5253
18091SOL    HW154851   1.318   0.751   5.101  0.4057  0.5391 -2.0381
18091SOL    HW254852   1.180   0.767   5.162  1.3616  0.3288  0.3176
18092SOL     OW54853   1.835   1.483   8.023 -0.7444  0.0983 -0.4300
18092SOL    HW154854   1.852   1.554   8.085 -0.0538  0.3345 -0.8815
18092SOL    HW254855   1.810   1.527   7.942 -1.4471 -0.2052 -0.3813
18093SOL     OW54856   7.211   5.425   7.131  0.3930  0.2176 -0.3186
18093SOL    HW154857   7.206   5.339   7.089 -0.7012  0.4621 -0.7136
18093SOL    HW254858   7.180   5.487   7.065  0.2866  0.8105  0.2682
18094SOL     OW54859   2.807   9.856   2.890  0.2993 -1.0226 -0.1452
18094SOL    HW154860   2.816   9.943   2.928  1.2312 -0.2888 -1.9422
18094SOL    HW254861   2.765   9.870   2.806  1.1451 -2.2060 -0.7992
18095SOL     OW54862   4.080   0.808   6.384 -0.6415  0.0670  0.2753
18095SOL    HW154863   4.061   0.902   6.385 -0.0810  0.1822  0.5118
18095SOL    HW254864   4.109   0.789   6.473  0.9473  0.0328 -0.2305
18096SOL     OW54865   4.213   3.684   5.878  0.4671  0.2090 -0.0506
18096SOL    HW154866   4.129   3.664   5.919  0.8384 -0.4226  0.4122
18096SOL    HW254867   4.227   3.777   5.898  0.6136 -0.0685  1.2210
18097SOL     OW54868   3.482   3.916   5.462 -0.0360  0.1262 -0.2545
18097SOL    HW154869   3.516   3.841   5.510 -0.0918 -0.3770 -0.9843
18097SOL    HW254870   3.398   3.887   5.427  0.0548  0.4346 -0.7526
18098SOL     OW54871   3.691   5.145   7.211 -0.3256  0.2950 -0.4168
18098SOL    HW154872   3.784   5.167   7.208 -0.4177  0.9014  0.6204
18098SOL    HW254873   3.646   5.228   7.201 -0.7774 -0.0379 -1.2771
18099SOL     OW54874   0.952   0.624   3.943 -0.1163  0.9049 -0.4365
18099SOL    HW154875   0.983   0.560   4.008 -1.1852  1.3903  0.5946
18099SOL    HW254876   0.911   0.570   3.875 -1.7245  0.4814  0.8153
18100SOL     OW54877   2.703   7.205   2.102 -0.0593  0.3382 -0.3477
18100SOL    HW154878   2.783   7.205   2.154 -0.0412  0.4937 -0.3738
18100SOL    HW254879   2.651   7.133   2.138  0.8567 -0.9552 -1.5307
18101SOL     OW54880   3.508   9.931   0.884 -0.5401 -0.7908  0.1951
18101SOL    HW154881   3.449   9.865   0.921 -0.7474 -0.0543  1.2337
18101SOL    HW254882   3.464   9.960   0.804 -0.3357 -2.0415 -0.4032
18102SOL     OW54883   4.065   2.872   1.462  0.9281  0.2127  0.5473
18102SOL    HW154884   3.997   2.893   1.399 -0.5159  1.2766  2.3468
18102SOL    HW254885   4.135   2.831   1.410  0.1164  1.6169 -1.8038
18103SOL     OW54886   1.976   7.370   5.872 -0.0998  0.1773 -0.7393
18103SOL    HW154887   2.011   7.447   5.827  0.2260  0.3248 -0.2412
18103SOL    HW254888   1.908   7.405   5.929  0.6774  0.2187  0.1717
18104SOL     OW54889   7.053   5.433   2.623 -0.1639 -0.5126 -0.5780
18104SOL    HW154890   7.013   5.508   2.579  0.2762  0.1914  0.2085
18104SOL    HW254891   7.135   5.418   2.575  0.6106  0.6315  0.3431
18105SOL     OW54892   5.692   4.632   1.643  0.0471  0.2005 -0.2542
18105SOL    HW154893   5.715   4.633   1.736  0.1514  0.5045 -0.2840
18105SOL    HW254894   5.762   4.681   1.600 -0.9475  1.6674 -0.2746
18106SOL     OW54895   9.679   1.628   1.039  0.2704  0.0980 -0.2432
18106SOL    HW154896   9.758   1.575   1.050 -0.8440 -1.6703 -0.2853
18106SOL    HW254897   9.690   1.670   0.954  1.0308 -0.3920 -0.4000
18107SOL     OW54898   0.952   2.020   8.884  0.3452 -0.1739 -0.0384
18107SOL    HW154899   0.924   2.012   8.975 -0.7368  1.3032 -0.2087
18107SOL    HW254900   0.871   2.033   8.835  0.6472 -3.0932 -1.5631
18108SOL     OW54901   8.396   1.260   8.733 -0.4871  0.2652 -0.3458
18108SOL    HW154902   8.484   1.228   8.718  0.0805  1.8482 -0.6068
18108SOL    HW254903   8.393   1.345   8.688 -1.9020  0.5906  0.2904
18109SOL     OW54904   8.677   1.062   8.203 -0.1286  0.0350  0.4677
18109SOL    HW154905   8.745   1.128   8.211  0.5456 -0.4811 -0.7353
18109SOL    HW254906   8.648   1.068   8.112 -1.5630  0.1149  0.9147
18110SOL     OW54907   4.197   5.968   5.209  0.4788 -0.7882 -0.1298
18110SOL    HW154908   4.273   6.003   5.162  0.4427  2.0825  1.6958
18110SOL    HW254909   4.122   6.013   5.170 -0.1568 -2.4014 -0.8326
18111SOL     OW54910   2.698   1.415   4.134  0.1068  0.2326 -0.4239
18111SOL    HW154911   2.687   1.409   4.229  0.3874  0.2938 -0.3840
18111SOL    HW254912   2.634   1.480   4.106 -1.4997 -1.3303 -0.5739
18112SOL     OW54913   5.343   5.098   7.867 -0.2952  0.1484  0.2752
18112SOL    HW154914   5.420   5.043   7.884 -0.1250  0.0750 -0.6835
18112SOL    HW254915   5.376   5.188   7.878 -0.3356  0.0976  0.8778
18113SOL     OW54916   5.880   7.137   8.646 -0.4404  0.6223 -0.4692
18113SOL    HW154917   5.804   7.086   8.676  0.2641  0.3382  0.8898
18113SOL    HW254918   5.842   7.203   8.588 -1.5570 -0.4070 -0.9611
18114SOL     OW54919   6.612   1.931   8.531  0.3639  0.1498 -0.0451
18114SOL    HW154920   6.623   1.855   8.474 -2.0623 -1.5255  1.5231
18114SOL    HW254921   6.527   1.918   8.573 -0.5977  4.2059 -0.3110
18115SOL     OW54922   4.272   7.195   2.402  0.1533 -0.4422  0.0362
18115SOL    HW154923   4.300   7.110   2.366 -0.3124 -0.2273 -0.8644
18115SOL    HW254924   4.205   7.226   2.342  0.9965  1.0269 -0.2153
18116SOL     OW54925   3.261   0.099   2.891 -0.5010 -0.1137 -0.2437
18116SOL    HW154926   3.271   0.193   2.878  1.7709 -0.0416  1.4045
18116SOL    HW254927   3.268   0.061   2.804 -1.1370  1.1900 -0.8878
18117SOL     OW54928   7.081   5.859   5.955 -0.2216  0.1978  0.1041
18117SOL    HW154929   7.011   5.873   5.891  1.3950  0.1645 -1.7611
18117SOL    HW254930   7.159   5.897   5.914  1.0141 -0.3749  1.8135
18118SOL     OW54931   0.646   6.119   1.973 -0.1243  0.1660  0.1060
18118SOL    HW154932   0.720   6.133   2.032 -0.2914  1.2803  0.0588
18118SOL    HW254933   0.661   6.031   1.936  0.6777  0.0108  0.7910
18119SOL     OW54934   1.072   5.363   4.530 -0.0396  0.4076 -0.1359
18119SOL    HW154935   1.128   5.437   4.555  0.3993  0.0637 -0.0955
18119SOL    HW254936   1.085   5.355   4.435  0.8132 -0.3543  0.0409
18120SOL     OW54937   2.112   3.333   1.719 -0.6160 -0.4220  0.1311
18120SOL    HW154938   2.179   3.287   1.770  0.2278 -1.4247 -1.7777
18120SOL    HW254939   2.037   3.338   1.778  1.2806  1.3588  2.6219
18121SOL     OW54940   5.585   8.581   5.429  0.5007  0.5133  0.2594
18121SOL    HW154941   5.543   8.651   5.378 -0.1561  0.0804  0.1897
18121SOL    HW254942   5.568   8.604   5.520 -0.1099  0.2153  0.2264
18122SOL     OW54943   3.759   6.476   2.158 -0.3418 -0.2612  0.5265
18122SOL    HW154944   3.664   6.464   2.151 -0.1060 -2.7245  0.7366
18122SOL    HW254945   3.796   6.403   2.110  1.5032  0.9880 -0.0580
18123SOL     OW54946   7.654   3.017   2.364 -0.2381 -0.1960  0.2749
18123SOL    HW154947   7.661   3.006   2.269 -2.0840  2.2647 -0.2565
18123SOL    HW254948   7.562   2.999   2.384 -0.9649  3.3492  0.8074
18124SOL     OW54949   0.271   9.903   0.550 -0.0496 -0.3332 -0.0776
18124SOL    HW154950   0.232   9.989   0.531 -0.5457 -0.3959  0.6515
18124SOL    HW254951   0.222   9.842   0.494  1.3651  0.0375 -1.8329
18125SOL     OW54952   4.688   1.586   0.170  0.2344  0.6186 -0.1251
18125SOL    HW154953   4.709   1.550   0.256 -0.4098 -2.8199 -1.2344
18125SOL    HW254954   4.761   1.560   0.114 -0.5867  0.4147 -1.1453
18126SOL     OW54955   1.608   6.929   0.214  0.3419  0.4819 -0.0929
18126SOL    HW154956   1.635   6.955   0.302 -1.3470 -1.4363  1.0604
18126SOL    HW254957   1.548   6.998   0.186 -1.4917 -0.3711  1.5554
18127SOL     OW54958   9.463   9.614   9.136 -0.3752  0.5849  0.5582
18127SOL    HW154959   9.436   9.682   9.198 -1.3845 -0.2287  1.0465
18127SOL    HW254960   9.502   9.546   9.191 -1.8219 -0.4141  0.4040
18128SOL     OW54961   9.723   2.273   6.258 -0.3040  0.1146  0.3044
18128SOL    HW154962   9.746   2.228   6.340 -0.8206 -0.3648  0.1938
18128SOL    HW254963   9.663   2.213   6.214 -0.6784  0.7347 -0.0460
18129SOL     OW54964   1.713   5.483   7.718 -0.0963 -0.0314 -0.1324
18129SOL    HW154965   1.806   5.505   7.712 -0.2295  0.9301  0.9689
18129SOL    HW254966   1.671   5.540   7.654 -0.0624  0.4534  0.2741
18130SOL     OW54967   9.577   9.030   3.703  0.0149  0.1157  0.2610
18130SOL    HW154968   9.622   9.038   3.619 -1.9678 -0.4795 -0.9273
18130SOL    HW254969   9.517   9.105   3.704 -0.0779  0.0353  1.0978
18131SOL     OW54970   8.819   5.880   2.758  0.1715  0.2452  0.5097
18131SOL    HW154971   8.804   5.832   2.839  0.0517  0.6414  0.7227
18131SOL    HW254972   8.900   5.842   2.722  0.8169  0.7815  1.3532
18132SOL     OW54973   7.127   6.403   2.047  0.2939  0.4882 -0.1551
18132SOL    HW154974   7.062   6.463   2.083  0.7444  0.2683  1.0702
18132SOL    HW254975   7.211   6.445   2.067  0.5456  1.1067 -2.3223
18133SOL     OW54976   3.146   0.716   5.843 -0.0015  0.6027  0.5113
18133SOL    HW154977   3.211   0.686   5.906 -0.3138  0.1575  0.6267
18133SOL    HW254978   3.182   0.692   5.757  0.0515  0.4924  0.5650
18134SOL     OW54979   0.451   0.198   2.710  0.1516  0.4196 -0.3361
18134SOL    HW154980   0.392   0.192   2.635 -1.4182 -0.4973  0.8948
18134SOL    HW254981   0.408   0.261   2.769  2.4041  2.7527 -1.0340
18135SOL     OW54982   1.468   5.204   9.667 -0.1476 -0.1524 -0.0497
18135SOL    HW154983   1.478   5.294   9.698  0.9223 -0.2403 -0.0889
18135SOL    HW254984   1.422   5.159   9.738 -1.0689  0.5080 -0.2063
18136SOL     OW54985   6.646   1.619   7.832  0.3492 -0.7559  0.1481
18136SOL    HW154986   6.735   1.621   7.798  1.1896  0.8878  2.2931
18136SOL    HW254987   6.602   1.692   7.787  1.2513  0.9369  1.8616
18137SOL     OW54988   0.122   2.435   8.632 -0.4732 -0.0504  1.0263
18137SOL    HW154989   0.111   2.510   8.573  0.4760 -1.2902 -0.8092
18137SOL    HW254990   0.154   2.473   8.714 -0.9114  1.6252  0.4572
18138SOL     OW54991   3.710   7.238   6.304 -0.3912  0.1830 -0.1601
18138SOL    HW154992   3.720   7.333   6.297 -2.4768  0.3558 -2.8173
18138SOL    HW254993   3.671   7.223   6.390  2.3222  1.3828  1.3847
18139SOL     OW54994   3.897   0.131   8.471 -0.5002 -0.6637 -0.4328
18139SOL    HW154995   3.822   0.172   8.513 -0.0232  0.7087 -0.8552
18139SOL    HW254996   3.967   0.135   8.536 -0.2945 -0.2770 -0.6732
18140SOL     OW54997   6.361   9.839   3.565 -0.3682 -0.2141 -0.0051
18140SOL    HW154998   6.435   9.780   3.554  1.3260  1.8728 -0.4415
18140SOL    HW254999   6.389   9.901   3.633 -1.3336  1.1538 -0.7928
18141SOL     OW55000   4.786   8.527   3.600 -0.0063  0.1914  0.0454
18141SOL    HW155001   4.819   8.571   3.679  0.6432  0.6630 -0.4788
18141SOL    HW255002   4.727   8.591   3.560 -0.7474 -0.2495  0.4221
18142SOL     OW55003   4.742   5.554   0.352 -0.5882  0.1637 -0.0629
18142SOL    HW155004   4.795   5.494   0.299  0.9813 -0.7995  2.4158
18142SOL    HW255005   4.765   5.641   0.319  1.8879 -0.2855  0.2803
18143SOL     OW55006   7.910   9.804   0.446  0.1849  0.4139 -0.1150
18143SOL    HW155007   7.860   9.841   0.519  0.5037  2.0598 -0.7080
18143SOL    HW255008   7.922   9.712   0.470  0.5977  0.9894  2.0875
18144SOL     OW55009   7.641   0.691   9.828 -0.3033  0.6422 -0.0123
18144SOL    HW155010   7.663   0.622   9.765  0.1389 -0.5973  1.4306
18144SOL    HW255011   7.704   0.761   9.810 -0.2402  0.3487 -0.9885
18145SOL     OW55012   4.406   0.979   0.987  0.1018 -0.2111  0.4908
18145SOL    HW155013   4.423   1.063   1.028  0.6658 -0.5236  0.9071
18145SOL    HW255014   4.474   0.921   1.021  0.8955 -0.3673 -1.2272
18146SOL     OW55015   1.499   8.313   2.854  0.5249 -0.0039 -0.0945
18146SOL    HW155016   1.416   8.336   2.813  0.7485  0.1947 -0.4301
18146SOL    HW255017   1.567   8.349   2.797  0.8321  1.3968  1.0786
18147SOL     OW55018   3.656   2.759   1.174 -0.5336 -0.2525 -0.7005
18147SOL    HW155019   3.569   2.794   1.193 -0.2723 -0.0448  0.1318
18147SOL    HW255020   3.667   2.773   1.080 -1.1892  0.1934 -0.7147
18148SOL     OW55021   2.019   0.609   2.048 -0.3319 -0.4538 -0.6553
18148SOL    HW155022   2.001   0.517   2.068  0.7450 -0.8499 -1.4231
18148SOL    HW255023   2.102   0.627   2.093 -0.5726  0.1609 -0.4523
18149SOL     OW55024   3.076   5.270   4.211  0.3573 -0.1975 -0.0587
18149SOL    HW155025   3.107   5.323   4.138  0.9047  0.4794  0.6523
18149SOL    HW255026   3.018   5.205   4.170  1.6224 -0.6310 -1.2528
18150SOL     OW55027   5.281   7.376   5.816 -0.1996 -0.0474 -0.0036
18150SOL    HW155028   5.275   7.471   5.816 -2.2739 -0.0860 -2.1440
18150SOL    HW255029   5.292   7.352   5.725  0.2553 -1.8771  0.4937
18151SOL     OW55030   3.258   5.842   0.987 -0.6980 -0.0715 -0.2261
18151SOL    HW155031   3.193   5.836   1.057 -2.2700  1.2009 -1.4944
18151SOL    HW255032   3.230   5.777   0.923 -0.3446  0.0522 -0.5106
18152SOL     OW55033   9.067   1.339   7.403 -0.7843  0.0226  0.2428
18152SOL    HW155034   9.036   1.417   7.450 -1.7795 -0.4401  0.3859
18152SOL    HW255035   9.130   1.299   7.463 -1.3210 -0.0360  0.7781
18153SOL     OW55036   7.237   6.198   0.913  0.3900  0.8393 -0.6381
18153SOL    HW155037   7.213   6.223   1.002 -0.9793 -3.2010  0.3607
18153SOL    HW255038   7.159   6.152   0.880  2.4783 -2.0582 -1.9593
18154SOL     OW55039   1.815   6.895   6.468  0.4009 -0.0588 -0.1702
18154SOL    HW155040   1.857   6.929   6.389 -0.7357 -0.3277 -0.9103
18154SOL    HW255041   1.871   6.822   6.495  0.5755 -0.2248 -0.9568
18155SOL     OW55042   5.850   6.234   1.848  0.1443 -0.2124  0.0363
18155SOL    HW155043   5.939   6.222   1.879 -1.2220 -0.9203  4.3920
18155SOL    HW255044   5.811   6.146   1.853 -0.9464  0.1556 -1.3810
18156SOL     OW55045   0.505   9.073   4.298  0.6701 -0.1902  0.3332
18156SOL    HW155046   0.442   9.003   4.317  3.5276 -3.0953  0.0885
18156SOL    HW255047   0.560   9.037   4.229  0.7348  3.5029 -1.7756
18157SOL     OW55048   6.836   0.302   7.215 -0.1593  0.5893  0.4699
18157SOL    HW155049   6.819   0.209   7.229  0.3260  0.1612 -1.5367
18157SOL    HW255050   6.868   0.307   7.125 -0.2168  2.7128  0.5332
18158SOL     OW55051   5.620   9.404   0.701 -0.2556  0.2461  0.0884
18158SOL    HW155052   5.525   9.392   0.694 -0.3774 -0.0004  1.6826
18158SOL    HW255053   5.648   9.336   0.763  1.0763 -0.1275 -0.8851
18159SOL     OW55054   7.907   9.333   9.216 -0.0355 -0.4513  0.2942
18159SOL    HW155055   7.985   9.388   9.208 -0.2648  0.2896  2.5865
18159SOL    HW255056   7.941   9.247   9.241  0.0981 -0.2543  0.8100
18160SOL     OW55057   0.749   8.424   5.101 -0.3747  0.3660 -0.1438
18160SOL    HW155058   0.762   8.417   5.195  2.3104  2.7308 -0.1845
18160SOL    HW255059   0.801   8.353   5.064  0.7656  1.0202  0.1458
18161SOL     OW55060   9.041   0.956   0.766 -0.3070  0.2428  0.4938
18161SOL    HW155061   9.013   1.047   0.761 -0.6422  0.0753 -1.9722
18161SOL    HW255062   8.960   0.906   0.774 -0.2083  0.1152  0.6957
18162SOL     OW55063   2.033   4.448   1.223  0.5778  0.3973  0.1321
18162SOL    HW155064   1.978   4.379   1.186 -0.4651  2.1391 -1.7530
18162SOL    HW255065   2.122   4.416   1.210  0.1274 -0.5095 -0.9339
18163SOL     OW55066   6.914   8.492   0.890  0.1080 -0.0613 -0.2242
18163SOL    HW155067   6.880   8.469   0.804  0.1156 -0.1880 -0.1938
18163SOL    HW255068   6.929   8.587   0.886  2.4730 -0.4138 -1.2032
18164SOL     OW55069   4.336   6.032   3.571  0.1339 -0.4813 -0.0088
18164SOL    HW155070   4.340   5.951   3.622  0.1645 -0.5829 -0.1720
18164SOL    HW255071   4.312   6.100   3.634  1.1483 -0.4283  0.3339
18165SOL     OW55072   8.145   6.398   8.995  0.0517  0.0623 -0.0972
18165SOL    HW155073   8.113   6.484   8.969  0.0801 -0.7236 -3.1176
18165SOL    HW255074   8.119   6.389   9.087  0.6074  3.4936  0.5492
18166SOL     OW55075   8.002   7.590   4.782  0.4618  0.1221 -0.0116
18166SOL    HW155076   8.089   7.604   4.746  0.7614 -0.4732  0.4562
18166SOL    HW255077   8.009   7.507   4.831 -0.3128  0.1564  0.1794
18167SOL     OW55078   9.834   1.063   8.321  0.3019  0.0349 -0.1028
18167SOL    HW155079   9.786   0.982   8.303 -0.0018 -0.3091  1.9990
18167SOL    HW255080   9.924   1.042   8.299 -0.0879 -0.1279 -1.6887
18168SOL     OW55081   9.336   7.636   1.423  0.2196  0.2594  0.8890
18168SOL    HW155082   9.422   7.598   1.445  0.5847  0.8353  0.4899
18168SOL    HW255083   9.315   7.692   1.498 -0.4331 -0.8734  1.5937
18169SOL     OW55084   0.465   8.196   8.848 -0.5007 -0.0960 -0.1579
18169SOL    HW155085   0.558   8.209   8.870  0.0534 -1.0615 -1.7058
18169SOL    HW255086   0.428   8.284   8.844  0.1493  0.2699  1.1910
18170SOL     OW55087   0.026   6.851   2.072 -1.0591 -0.3997  0.3584
18170SOL    HW155088   0.050   6.784   2.008  1.8136 -1.9001  2.7588
18170SOL    HW255089   0.081   6.926   2.050 -1.0011 -0.4564  0.3095
18171SOL     OW55090   3.034   4.725   6.516 -0.1308  0.3662 -0.3475
18171SOL    HW155091   3.004   4.754   6.430 -1.2606 -2.1522 -0.8832
18171SOL    HW255092   3.101   4.659   6.497 -1.4972 -1.3829  0.5913
18172SOL     OW55093   4.134   6.657   8.279  0.0209  0.0604 -0.0642
18172SOL    HW155094   4.177   6.578   8.247 -0.6756  0.0211 -0.9542
18172SOL    HW255095   4.091   6.694   8.201 -0.6342  0.6799  0.5733
18173SOL     OW55096   5.592   7.639   7.657  0.4969 -0.4259  1.1905
18173SOL    HW155097   5.579   7.632   7.562 -0.0716  1.1435  1.1168
18173SOL    HW255098   5.614   7.550   7.685 -0.9366 -1.2571 -0.1685
18174SOL     OW55099   9.125   6.372   8.650  0.4264  0.9372  0.5867
18174SOL    HW155100   9.193   6.415   8.599  0.0909  0.8855  0.0891
18174SOL    HW255101   9.072   6.443   8.686 -0.5212  0.9666 -0.7680
18175SOL     OW55102   3.719   2.301   8.997  0.0755  0.2727 -0.3805
18175SOL    HW155103   3.713   2.266   8.908 -1.1416 -0.5575  0.0049
18175SOL    HW255104   3.761   2.232   9.047 -0.1660  0.3259 -0.1036
18176SOL     OW55105   0.492   6.423   5.093  0.0247 -0.2693  0.4641
18176SOL    HW155106   0.573   6.386   5.056 -1.0702 -0.3441 -2.1089
18176SOL    HW255107   0.522   6.485   5.159  2.1499 -0.8093  0.0975
18177SOL     OW55108   7.062   7.406   7.195 -0.6168  0.5122 -0.5461
18177SOL    HW155109   7.129   7.468   7.165 -2.3161  1.7118 -2.0913
18177SOL    HW255110   6.996   7.462   7.236  0.3440 -0.8390  3.2616
18178SOL     OW55111   4.249   7.232   8.348  0.2590  0.2923  1.1813
18178SOL    HW155112   4.217   7.318   8.321 -0.3513 -0.6117 -1.2620
18178SOL    HW255113   4.341   7.246   8.369  0.9605  1.0934 -1.9676
18179SOL     OW55114   3.569   8.261   0.825 -0.0471 -0.1090 -0.8152
18179SOL    HW155115   3.647   8.210   0.848 -0.2324  0.0341  0.1461
18179SOL    HW255116   3.524   8.207   0.760  1.2964  0.2125 -2.0713
18180SOL     OW55117   6.564   3.704   9.905  0.3877  0.0240  0.4178
18180SOL    HW155118   6.654   3.728   9.928 -0.3831  3.3390  0.4849
18180SOL    HW255119   6.567   3.685   9.811  1.3011 -0.9556  0.6244
18181SOL     OW55120   9.850   4.332   2.625 -0.0183 -0.5424 -0.1240
18181SOL    HW155121   9.848   4.236   2.628 -0.7604 -0.5080  1.1305
18181SOL    HW255122   9.846   4.353   2.532  1.1849 -1.7363 -0.4817
18182SOL     OW55123   3.931   8.377   4.577  0.0578 -0.2116 -0.1820
18182SOL    HW155124   3.879   8.456   4.589  0.2023 -0.1364 -0.0496
18182SOL    HW255125   3.880   8.324   4.516 -0.4763 -0.4114  0.4276
18183SOL     OW55126   4.790   3.275   3.378 -1.0688  0.0475 -0.4734
18183SOL    HW155127   4.843   3.343   3.420 -0.6475 -0.8576  0.5093
18183SOL    HW255128   4.843   3.195   3.384 -1.7053 -0.4592 -1.2770
18184SOL     OW55129   0.642   1.357   7.819 -0.4791  0.3026 -0.3841
18184SOL    HW155130   0.683   1.299   7.755  0.0773  1.2275 -0.8869
18184SOL    HW255131   0.576   1.405   7.769 -0.7147  0.3463 -0.0385
18185SOL     OW55132   3.829   1.377   5.570 -0.4666  0.0011 -0.1162
18185SOL    HW155133   3.922   1.394   5.586 -0.6372  1.6817 -0.6712
18185SOL    HW255134   3.827   1.323   5.491  0.0154  1.9202 -1.5137
18186SOL     OW55135   6.720   7.366   5.547 -0.6635 -0.6644 -0.4494
18186SOL    HW155136   6.702   7.425   5.473 -2.0121 -1.4223 -0.7654
18186SOL    HW255137   6.645   7.378   5.606 -0.5975 -1.5233 -0.1791
18187SOL     OW55138   1.813   8.196   8.446 -0.1385 -0.3244 -0.1972
18187SOL    HW155139   1.800   8.126   8.510 -0.0379 -0.1800 -0.0157
18187SOL    HW255140   1.892   8.241   8.476 -1.7059  1.6134  1.3385
18188SOL     OW55141   4.485   0.604   9.511  0.1305  0.2404 -0.1755
18188SOL    HW155142   4.468   0.547   9.586  1.5208 -1.6308 -1.2214
18188SOL    HW255143   4.461   0.692   9.542  1.0969 -0.3845  2.6031
18189SOL     OW55144   9.058   8.526   8.499  0.0444 -0.1415  0.6723
18189SOL    HW155145   9.043   8.550   8.408  1.4397 -1.0804  0.1620
18189SOL    HW255146   8.995   8.456   8.516  0.7900 -1.0111 -0.0572
18190SOL     OW55147   5.855   1.572   9.222 -0.1586 -0.4650 -0.1411
18190SOL    HW155148   5.862   1.493   9.275  0.7540 -0.3472 -0.0647
18190SOL    HW255149   5.908   1.554   9.145 -0.3092 -0.0943 -0.3345
18191SOL     OW55150   6.295   5.372   0.276  0.1134  0.3107  0.3318
18191SOL    HW155151   6.273   5.334   0.191  0.3005 -1.0769  0.8848
18191SOL    HW255152   6.276   5.465   0.266  0.3349  0.2112 -1.2998
18192SOL     OW55153   9.929   3.481   0.418  0.2491  0.4041 -0.5751
18192SOL    HW155154   9.942   3.575   0.406 -1.4453  0.7508 -0.0401
18192SOL    HW255155   9.866   3.475   0.491  0.8392 -1.1674 -0.1568
18193SOL     OW55156   5.025   6.161   7.803 -0.6664  0.1882 -0.2021
18193SOL    HW155157   5.046   6.069   7.785  2.3259  0.5725  0.7106
18193SOL    HW255158   4.952   6.158   7.864 -0.6471 -1.5841 -0.2171
18194SOL     OW55159   0.768   3.833   4.227 -0.3575  0.1331 -0.3526
18194SOL    HW155160   0.802   3.882   4.302 -0.2992 -1.2710  0.5957
18194SOL    HW255161   0.813   3.870   4.151 -0.1856  1.3909  0.3297
18195SOL     OW55162   5.086   8.344   2.819  0.9975  0.3172  0.4180
18195SOL    HW155163   4.997   8.320   2.794  0.4021  0.1860  2.4715
18195SOL    HW255164   5.137   8.333   2.739 -0.7150 -0.1380 -0.6719
18196SOL     OW55165   9.348   5.909   4.705  0.2502  0.0407  0.3212
18196SOL    HW155166   9.311   5.927   4.792 -0.7742 -0.1670 -0.0472
18196SOL    HW255167   9.292   5.839   4.670  0.9350 -0.1969 -0.3243
18197SOL     OW55168   7.927   1.993   0.237 -0.0706 -0.6990 -0.4226
18197SOL    HW155169   7.906   1.973   0.328 -1.2793 -0.2694 -0.5952
18197SOL    HW255170   7.973   1.915   0.206  0.9086 -0.6088  0.7146
18198SOL     OW55171   4.381   2.343   4.120  0.1924 -0.0078  0.1959
18198SOL    HW155172   4.349   2.363   4.208  0.8820  0.7571  0.2787
18198SOL    HW255173   4.474   2.322   4.132  0.1723 -0.4190 -0.2883
18199SOL     OW55174   3.885   8.063   5.453  0.4313  0.6435  0.5850
18199SOL    HW155175   3.832   7.984   5.438 -2.1099  2.0246  1.5468
18199SOL    HW255176   3.971   8.041   5.418 -0.9102 -1.5587 -1.7277
18200SOL     OW55177   2.529   5.616   9.597 -0.1009 -0.0446 -0.0664
18200SOL    HW155178   2.570   5.638   9.681  1.8773 -0.0926 -0.9689
18200SOL    HW255179   2.530   5.520   9.595  0.0446 -0.0398 -0.2312
18201SOL     OW55180   9.811   8.964   5.414 -0.2366  0.0130 -0.1277
18201SOL    HW155181   9.730   8.913   5.416 -1.0716  1.2188 -1.1284
18201SOL    HW255182   9.827   8.980   5.320 -0.0992  1.6632  0.1369
18202SOL     OW55183   6.054   8.909   7.244  0.4853 -0.6341 -0.5541
18202SOL    HW155184   6.112   8.942   7.176  0.4308 -2.0875 -1.3547
18202SOL    HW255185   6.112   8.863   7.305  0.3638 -0.6063 -0.4167
18203SOL     OW55186   1.369   0.853   1.506 -0.0109 -0.2852 -0.1013
18203SOL    HW155187   1.282   0.853   1.546  0.3256  0.5002  0.6737
18203SOL    HW255188   1.400   0.763   1.517  0.2023 -0.0341  1.7681
18204SOL     OW55189   8.440   6.899   4.390 -0.1988  0.3719  0.0820
18204SOL    HW155190   8.486   6.970   4.435 -0.4971 -0.2154  1.3888
18204SOL    HW255191   8.348   6.925   4.391 -0.2758  0.1086  0.3358
18205SOL     OW55192   4.704   1.114   8.644  0.0286 -0.0440 -0.5851
18205SOL    HW155193   4.732   1.179   8.708 -0.3243 -1.4379  1.0648
18205SOL    HW255194   4.671   1.165   8.570  0.1220  1.6317  0.4842
18206SOL     OW55195   1.731   8.589   5.792 -0.0958  0.2399  0.3395
18206SOL    HW155196   1.780   8.510   5.814 -1.4528 -0.9848 -0.8115
18206SOL    HW255197   1.642   8.572   5.821 -0.4847  1.2087 -0.2199
18207SOL     OW55198   1.263   8.410   9.190  0.1528 -0.6550  0.2743
18207SOL    HW155199   1.202   8.448   9.253 -1.0650 -0.5381 -0.9164
18207SOL    HW255200   1.333   8.374   9.243 -0.1872  0.5539  1.6181
18208SOL     OW55201   8.370   0.043   1.915  0.0744 -0.2354 -0.0338
18208SOL    HW155202   8.386   0.096   1.993 -0.3385  0.8395 -0.6690
18208SOL    HW255203   8.457   0.012   1.890  0.5133  1.1725 -0.3578
18209SOL     OW55204   5.918   6.992   8.396  0.3458  0.5491  0.3962
18209SOL    HW155205   5.921   7.031   8.483 -3.6121  0.8448  0.5779
18209SOL    HW255206   5.961   6.907   8.406  0.6823  0.9114  2.4158
18210SOL     OW55207   5.385   6.122   2.494 -0.3932  0.2372 -0.0118
18210SOL    HW155208   5.354   6.203   2.534 -0.4976  0.7295 -1.0635
18210SOL    HW255209   5.359   6.129   2.402 -0.9089 -1.2424 -0.0056
18211SOL     OW55210   6.552   1.831   7.717 -0.2503 -0.3043 -0.3026
18211SOL    HW155211   6.485   1.844   7.650  1.4331 -0.0262 -2.0127
18211SOL    HW255212   6.608   1.908   7.710  0.1979 -0.4659  1.1724
18212SOL     OW55213   1.737   9.246   3.191  0.9580 -0.2510  0.4513
18212SOL    HW155214   1.780   9.331   3.179  1.6343 -0.9151 -2.8095
18212SOL    HW255215   1.794   9.197   3.250  1.6359  0.8535  0.7366
18213SOL     OW55216   7.472   4.667   7.001 -0.5015 -0.8264 -0.6232
18213SOL    HW155217   7.545   4.640   6.945 -0.6393  1.2177 -1.8793
18213SOL    HW255218   7.489   4.625   7.085  2.4976  0.1076 -0.6604
18214SOL     OW55219   4.590   4.642   2.258 -0.3964  0.4183 -0.1583
18214SOL    HW155220   4.648   4.673   2.326 -1.2480 -0.8409  1.2033
18214SOL    HW255221   4.552   4.722   2.220  0.8821  1.1699  0.0972
18215SOL     OW55222   9.871   7.511   7.677  0.2530 -0.1020 -0.6641
18215SOL    HW155223   9.901   7.532   7.589 -0.6662  0.1190 -0.9328
18215SOL    HW255224   9.776   7.521   7.673  0.2172  0.1256  0.4045
18216SOL     OW55225   4.781   4.271   5.701  0.1363 -0.2209 -0.6502
18216SOL    HW155226   4.874   4.249   5.710  0.5284  0.0050 -3.3766
18216SOL    HW255227   4.781   4.363   5.674 -0.9568  0.0514  0.2062
18217SOL     OW55228   2.790   0.321   7.369  0.0729 -0.1555 -0.8960
18217SOL    HW155229   2.848   0.327   7.292  0.9204  0.5551 -0.2181
18217SOL    HW255230   2.744   0.405   7.371 -1.0498 -0.7299 -1.4521
18218SOL     OW55231   4.177   3.509   4.382 -0.0865  0.4833 -0.3983
18218SOL    HW155232   4.244   3.458   4.336  1.7716  2.0023  0.4774
18218SOL    HW255233   4.101   3.452   4.384  1.6381 -1.9967 -0.0832
18219SOL     OW55234   7.898   3.093   1.153  0.1405 -0.0819  0.6452
18219SOL    HW155235   7.856   3.116   1.069 -1.3442 -1.4278  0.9749
18219SOL    HW255236   7.826   3.093   1.216  1.2841  1.2227  2.0379
18220SOL     OW55237   9.332   4.983   0.417  0.0585 -0.3795  0.3543
18220SOL    HW155238   9.342   4.916   0.350  0.3942  0.6761 -0.6896
18220SOL    HW255239   9.237   4.993   0.428 -0.0145 -0.0916 -0.4711
18221SOL     OW55240   1.746   1.738   7.260 -0.6238  0.3264  0.2156
18221SOL    HW155241   1.768   1.682   7.187  1.6539 -0.2973  1.2996
18221SOL    HW255242   1.678   1.797   7.226 -1.9119 -1.9541 -1.4166
18222SOL     OW55243   3.143   1.530   9.951 -0.3784  0.3543 -0.1139
18222SOL    HW155244   3.147   1.552   9.858 -0.5107  1.9707  0.2424
18222SOL    HW255245   3.179   1.607   9.995 -1.3946  0.0770  1.2399
18223SOL     OW55246   3.768   8.562   1.079 -0.5089  0.7846 -0.7995
18223SOL    HW155247   3.760   8.602   1.166 -1.2459  1.3270 -1.1096
18223SOL    HW255248   3.679   8.542   1.053 -0.1698 -1.1451 -0.6485
18224SOL     OW55249   7.085   8.312   0.766 -0.1300  0.2677  0.2093
18224SOL    HW155250   7.069   8.388   0.822  0.9054 -0.2154  1.1850
18224SOL    HW255251   7.124   8.247   0.823 -1.3908 -1.1993 -0.5066
18225SOL     OW55252   7.878   2.211   5.047  0.2187  0.6539  0.6139
18225SOL    HW155253   7.903   2.192   5.138  0.1445 -0.2784  0.4563
18225SOL    HW255254   7.838   2.298   5.050 -0.6740  0.2343  1.6519
18226SOL     OW55255   6.775   4.013   9.789  0.1123  0.6359  0.4336
18226SOL    HW155256   6.753   3.989   9.879  0.3505 -0.2711  0.2677
18226SOL    HW255257   6.691   4.009   9.743  0.3348 -1.4578  0.0923
18227SOL     OW55258   3.489   3.008   9.399 -0.0850 -0.0718 -0.1099
18227SOL    HW155259   3.442   2.976   9.322  0.4250  0.8463 -0.8235
18227SOL    HW255260   3.551   2.938   9.420 -0.6174 -0.5747 -0.1633
18228SOL     OW55261   0.312   3.674   5.066  0.4902  0.3493  1.2951
18228SOL    HW155262   0.263   3.756   5.069  1.4904  0.9927  0.6321
18228SOL    HW255263   0.335   3.664   4.974  0.1049 -0.8460  1.3217
18229SOL     OW55264   0.541   4.044   7.723  0.1818 -0.0750  0.7648
18229SOL    HW155265   0.613   3.984   7.705  0.6581  0.8767 -0.6723
18229SOL    HW255266   0.557   4.076   7.812  2.1487  0.9286  0.1069
18230SOL     OW55267   2.873   7.952   5.276 -0.1543  0.7409 -0.3172
18230SOL    HW155268   2.823   7.881   5.315  0.5343  0.8052  0.7115
18230SOL    HW255269   2.931   7.982   5.346  2.9119 -0.7693 -1.9780
18231SOL     OW55270   6.468   1.022   9.019  0.2223 -0.2163 -0.0678
18231SOL    HW155271   6.513   1.066   9.091  0.1046  0.5041 -0.4288
18231SOL    HW255272   6.522   0.945   9.001  0.9651  0.2904 -0.0625
18232SOL     OW55273   7.699   4.105   6.536 -0.0228 -0.0197 -0.3348
18232SOL    HW155274   7.606   4.092   6.519  0.1462  1.0827 -2.5327
18232SOL    HW255275   7.702   4.173   6.604 -0.8082 -0.2813 -0.0342
18233SOL     OW55276   4.201   9.156   4.052  0.3105  0.2406  0.0556
18233SOL    HW155277   4.194   9.202   4.136  0.2976  2.3366 -1.0310
18233SOL    HW255278   4.289   9.175   4.021 -0.0838  0.4951 -0.9507
18234SOL     OW55279   6.190   8.492   7.689  0.2647  0.1312 -0.2473
18234SOL    HW155280   6.167   8.436   7.764  0.5721  1.0140  0.5227
18234SOL    HW255281   6.137   8.457   7.616  0.0704 -0.8361  0.3309
18235SOL     OW55282   3.735   4.316   4.133  0.2199 -0.1694 -0.0121
18235SOL    HW155283   3.643   4.291   4.127  0.1218 -0.4080  2.0322
18235SOL    HW255284   3.775   4.249   4.188  1.0732  1.2798  1.1990
18236SOL     OW55285   9.739   5.136   2.905 -0.5153  0.7507 -0.2722
18236SOL    HW155286   9.739   5.175   2.817  0.0526 -1.4824 -1.3408
18236SOL    HW255287   9.758   5.209   2.963 -0.4501  2.2291 -2.0376
18237SOL     OW55288   1.041   5.793   5.871  0.2858  0.3839 -0.5151
18237SOL    HW155289   1.072   5.800   5.961 -1.1292  0.8932 -0.0356
18237SOL    HW255290   1.103   5.844   5.820  1.4685 -0.4340  0.0647
18238SOL     OW55291   9.869   6.909   8.325 -0.3035  0.6703 -0.0656
18238SOL    HW155292   9.802   6.840   8.320 -1.7828  2.0843 -0.4532
18238SOL    HW255293   9.824   6.989   8.299  1.7024  1.5980 -0.9289
18239SOL     OW55294   5.512   5.077   5.341 -0.1635  0.0551  0.1397
18239SOL    HW155295   5.451   5.019   5.386 -1.0040  1.0022  0.2295
18239SOL    HW255296   5.457   5.141   5.296  0.4770 -1.8150 -3.7433
18240SOL     OW55297   3.698   3.724   0.063  0.2634  0.0319 -0.1038
18240SOL    HW155298   3.700   3.805   0.116 -0.0637  0.2208 -0.3803
18240SOL    HW255299   3.696   3.654   0.128 -2.0423  0.2839  0.1864
18241SOL     OW55300   8.422   7.360   4.110  0.0325  0.0381 -0.4160
18241SOL    HW155301   8.507   7.367   4.066 -0.1419 -1.6826 -1.1077
18241SOL    HW255302   8.360   7.347   4.039 -0.4403 -1.4038  0.2410
18242SOL     OW55303   4.135   2.535   4.649 -0.1448 -0.4354 -0.0700
18242SOL    HW155304   4.203   2.543   4.716  0.2859 -1.0750 -0.4231
18242SOL    HW255305   4.097   2.448   4.663 -1.2724  0.1218  0.4682
18243SOL     OW55306   6.354   8.824   4.399 -0.1357  0.3180  0.1158
18243SOL    HW155307   6.366   8.740   4.355  0.1178  0.3765  0.0689
18243SOL    HW255308   6.364   8.889   4.330 -0.1289  0.3961  0.1895
18244SOL     OW55309   1.718   3.185   2.588  0.3849 -0.1616 -0.5105
18244SOL    HW155310   1.638   3.232   2.561 -0.0755  0.3771  1.6198
18244SOL    HW255311   1.776   3.254   2.620  1.1503 -0.7142 -0.6922
18245SOL     OW55312   4.431   3.593   5.732 -0.2678  0.1947 -0.3169
18245SOL    HW155313   4.343   3.603   5.769 -1.1584  1.4896 -2.6148
18245SOL    HW255314   4.473   3.677   5.749  0.5805 -0.4360  0.8084
18246SOL     OW55315   3.020   1.396   2.080 -0.3084  0.1229  0.3835
18246SOL    HW155316   3.081   1.454   2.035 -0.3292  1.4350  1.9593
18246SOL    HW255317   3.048   1.398   2.171 -2.3044  0.2816  1.0461
18247SOL     OW55318   5.720   8.622   5.017 -0.2009 -0.0116  0.2450
18247SOL    HW155319   5.771   8.636   5.097 -0.0402 -0.4420  0.2204
18247SOL    HW255320   5.688   8.533   5.024  0.3297 -0.2697 -0.4562
18248SOL     OW55321   4.058   0.242   2.789  0.2725 -0.5487 -0.2642
18248SOL    HW155322   3.965   0.223   2.782  0.0807  0.0227  0.5166
18248SOL    HW255323   4.088   0.188   2.862 -0.4318  2.4129  2.4692
18249SOL     OW55324   1.103   5.834   1.774 -0.0170  1.2282  0.0837
18249SOL    HW155325   1.097   5.772   1.846  1.6184  0.7285 -0.1666
18249SOL    HW255326   1.035   5.899   1.793 -0.7212  0.2266  1.1775
18250SOL     OW55327   8.480   4.522   4.982 -0.2599 -0.0937  0.5012
18250SOL    HW155328   8.400   4.555   5.022 -0.0297  2.6499 -1.0400
18250SOL    HW255329   8.548   4.538   5.048 -0.4464  0.8943  0.4621
18251SOL     OW55330   8.123   5.166   6.547  0.2689  0.6195 -0.0206
18251SOL    HW155331   8.030   5.151   6.564  0.7783  0.1410  2.8714
18251SOL    HW255332   8.145   5.106   6.476 -1.5000  0.3137 -0.3398
18252SOL     OW55333   8.009   9.645   7.451 -0.3865  0.7382  0.8173
18252SOL    HW155334   8.088   9.609   7.492  1.4000  2.0294 -1.2520
18252SOL    HW255335   7.940   9.634   7.516  1.7529  0.5933  3.1799
18253SOL     OW55336   1.628   4.353   9.801 -0.9526 -0.3413 -0.6607
18253SOL    HW155337   1.637   4.260   9.782 -0.6904 -0.1453 -1.5240
18253SOL    HW255338   1.684   4.366   9.878  0.0218 -0.6637 -1.2934
18254SOL     OW55339   6.632   3.881   8.144  0.1039 -0.6818  0.2163
18254SOL    HW155340   6.599   3.853   8.059 -1.3034  2.6671 -0.4844
18254SOL    HW255341   6.570   3.845   8.207 -1.0253 -0.0883 -0.5309
18255SOL     OW55342   8.427   9.287   2.025  0.1218 -0.0869  0.2672
18255SOL    HW155343   8.419   9.219   1.959  2.4423 -1.5802  1.3872
18255SOL    HW255344   8.520   9.289   2.047  0.3832  4.1996 -0.3721
18256SOL     OW55345   8.348   0.591   8.270  0.4341 -0.0115  0.7585
18256SOL    HW155346   8.390   0.642   8.200 -0.8675  3.0768  2.0265
18256SOL    HW255347   8.415   0.585   8.339  0.1176  1.5194  1.2412
18257SOL     OW55348   3.872   7.462   4.750  0.1232 -0.1761 -0.9295
18257SOL    HW155349   3.840   7.373   4.760 -0.4482  0.2166  1.1625
18257SOL    HW255350   3.967   7.453   4.744  0.0537 -0.9213 -0.9293
18258SOL     OW55351   5.649   5.426   8.713  0.3595 -0.3461  0.1589
18258SOL    HW155352   5.691   5.482   8.778 -0.2855 -0.6806  0.8797
18258SOL    HW255353   5.593   5.485   8.662 -1.0016 -0.4487  1.4840
18259SOL     OW55354   0.905   1.634   2.146 -0.4141  0.1524 -0.3065
18259SOL    HW155355   0.848   1.557   2.141  0.0149 -0.3540  1.5025
18259SOL    HW255356   0.869   1.696   2.084 -3.0769 -0.0621  0.9206
18260SOL     OW55357   8.662   0.215   7.929  0.0048  0.2143  0.1564
18260SOL    HW155358   8.753   0.231   7.901  0.0556  0.3448  0.3905
18260SOL    HW255359   8.626   0.159   7.861  0.5021 -0.4896  0.4565
18261SOL     OW55360   1.458   4.778   2.730 -0.1171  0.4959  0.9610
18261SOL    HW155361   1.536   4.739   2.769  0.4791  1.3049  0.5983
18261SOL    HW255362   1.437   4.851   2.788  1.8435  2.8714 -1.0930
18262SOL     OW55363   8.444   5.351   6.793  0.0990 -0.0877  0.0670
18262SOL    HW155364   8.357   5.312   6.780 -0.4749  1.3100 -0.5010
18262SOL    HW255365   8.426   5.443   6.812  1.3331 -0.3354  2.9025
18263SOL     OW55366   9.812   6.914   0.202 -0.0968  0.3653  0.0636
18263SOL    HW155367   9.803   6.906   0.297 -0.3203  1.5280  0.1549
18263SOL    HW255368   9.870   6.990   0.190 -0.1743  0.3064 -0.7340
18264SOL     OW55369   6.728   5.242   0.225  0.2964 -0.1440 -0.0328
18264SOL    HW155370   6.651   5.273   0.177 -1.6362 -1.2063  2.1210
18264SOL    HW255371   6.777   5.321   0.246 -2.0970  1.0825  1.4570
18265SOL     OW55372   2.183   4.429   2.646  0.1967  0.4214  0.1631
18265SOL    HW155373   2.125   4.486   2.595 -1.9370 -0.9477  0.8911
18265SOL    HW255374   2.182   4.466   2.734 -1.9319 -1.0785  0.8705
18266SOL     OW55375   5.946   1.724   6.575 -0.2698 -0.1268 -0.1451
18266SOL    HW155376   5.918   1.815   6.566  0.9207  0.0762 -2.2300
18266SOL    HW255377   5.873   1.673   6.539 -0.0095  0.1242 -1.0329
18267SOL     OW55378   9.465   4.068   8.485  0.1557 -0.0359  0.2271
18267SOL    HW155379   9.424   4.145   8.524  1.8313  0.7009  0.6261
18267SOL    HW255380   9.468   4.004   8.556 -0.0417  0.0168  0.2819
18268SOL     OW55381   0.667   5.809   0.039  0.5101 -0.1027 -0.2057
18268SOL    HW155382   0.659   5.879   0.104  0.9660 -0.4292  0.2124
18268SOL    HW255383   0.726   5.844  -0.027  1.1946 -0.2979  0.2946
18269SOL     OW55384   0.655   4.521   0.859 -0.0899 -0.0288  0.0926
18269SOL    HW155385   0.627   4.438   0.895  0.9168  0.1233  1.2796
18269SOL    HW255386   0.574   4.570   0.845 -0.6132 -0.8186  0.3235
18270SOL     OW55387   1.637   0.560   6.010  0.1500  0.1082  0.0932
18270SOL    HW155388   1.568   0.615   6.048  1.1383  0.6463  1.1853
18270SOL    HW255389   1.655   0.599   5.925 -0.5645  0.2432  0.0009
18271SOL     OW55390   7.855   3.835   0.385 -0.2756  0.4244 -0.0038
18271SOL    HW155391   7.914   3.863   0.455  0.5590 -0.6835 -0.2386
18271SOL    HW255392   7.895   3.868   0.305  0.7547 -1.3707 -0.2906
18272SOL     OW55393   8.303   5.059   2.686  0.2412  0.1467  0.0031
18272SOL    HW155394   8.317   5.055   2.781  1.1394 -0.1581 -0.1364
18272SOL    HW255395   8.228   5.002   2.671  0.5028 -0.3335  0.4588
18273SOL     OW55396   8.772   0.850   2.851 -0.1007 -0.2374 -0.3629
18273SOL    HW155397   8.725   0.921   2.896 -1.1691 -0.6654 -0.7749
18273SOL    HW255398   8.823   0.808   2.919  0.2376  0.6838 -0.0359
18274SOL     OW55399   2.535   7.787   9.879 -0.0977  0.7176 -0.3280
18274SOL    HW155400   2.542   7.867   9.827 -0.2571  0.8754 -0.1080
18274SOL    HW255401   2.601   7.797   9.948 -0.1176  0.6614 -0.3003
18275SOL     OW55402   7.139   2.936   8.208  0.0777 -0.3790  0.1184
18275SOL    HW155403   7.134   2.845   8.179 -1.3389 -0.9260  1.8423
18275SOL    HW255404   7.047   2.962   8.220  0.4679  1.1681  0.0115
18276SOL     OW55405   9.608   6.967   7.552  0.0821  0.2723  0.3669
18276SOL    HW155406   9.624   7.027   7.624 -0.0671  1.6842 -0.7321
18276SOL    HW255407   9.689   6.916   7.544 -0.3482 -0.7930  2.2854
18277SOL     OW55408   3.568   8.880   0.791  0.1758 -0.2186 -0.3825
18277SOL    HW155409   3.600   8.790   0.804  2.1682  0.5114  0.0022
18277SOL    HW255410   3.647   8.932   0.775 -0.9848  1.4108 -1.0601
18278SOL     OW55411   7.336   3.687   9.640  0.2079 -0.6251 -0.2298
18278SOL    HW155412   7.280   3.609   9.646  0.2244 -0.5829  0.4535
18278SOL    HW255413   7.378   3.679   9.554 -1.6928 -0.0778 -1.2690
18279SOL     OW55414   3.390   4.896   2.657  0.1673 -0.4494 -0.4994
18279SOL    HW155415   3.392   4.919   2.564 -0.5054 -0.2338 -0.4686
18279SOL    HW255416   3.320   4.951   2.693 -0.2527 -1.2655 -0.0637
18280SOL     OW55417   7.384   0.254   7.782 -0.5355 -0.0229  0.2340
18280SOL    HW155418   7.439   0.186   7.741 -0.8954 -0.3533  0.2881
18280SOL    HW255419   7.296   0.233   7.753 -0.9430 -0.8443  1.9352
18281SOL     OW55420   2.080   3.746   0.422 -0.2698  1.0529 -0.0423
18281SOL    HW155421   2.073   3.752   0.327  1.2283  0.1437 -0.2480
18281SOL    HW255422   2.125   3.827   0.448 -0.2888  1.1008 -0.1576
18282SOL     OW55423   1.109   8.152   0.450 -0.4639  0.3243  0.3165
18282SOL    HW155424   1.201   8.176   0.450  0.0593 -1.5892  0.7429
18282SOL    HW255425   1.100   8.087   0.381 -2.0595  2.2875 -1.4939
18283SOL     OW55426   0.612   3.922   9.292  0.2084 -0.0537 -0.2433
18283SOL    HW155427   0.591   4.003   9.245  0.4044 -0.6440 -1.4023
18283SOL    HW255428   0.695   3.940   9.336  1.3479 -0.2143 -2.1614
18284SOL     OW55429   4.811   0.916   6.913  0.0048  0.1520  0.2825
18284SOL    HW155430   4.758   0.974   6.968 -0.2390  1.0767 -0.8754
18284SOL    HW255431   4.894   0.963   6.902  0.1470 -0.1446  0.0811
18285SOL     OW55432   1.729   7.261   6.656 -0.0350 -0.3967 -0.1212
18285SOL    HW155433   1.702   7.210   6.580 -0.1057  2.3618 -2.1204
18285SOL    HW255434   1.649   7.305   6.684 -0.1647 -1.9341  2.0949
18286SOL     OW55435   7.194   6.696   7.488 -0.5011 -0.0668  0.6058
18286SOL    HW155436   7.249   6.773   7.473  0.0842 -0.8338 -1.7507
18286SOL    HW255437   7.163   6.705   7.578 -0.7787  3.1065  0.3140
18287SOL     OW55438   6.820   5.146   5.142 -0.7256  0.1934 -0.0382
18287SOL    HW155439   6.869   5.133   5.061 -0.9077 -1.8312  0.1260
18287SOL    HW255440   6.770   5.227   5.127 -0.5318  0.0205 -1.8345
18288SOL     OW55441   3.442   9.954   7.189 -0.0057  0.3149  0.0725
18288SOL    HW155442   3.479   9.872   7.222 -0.7636  0.5508  1.6136
18288SOL    HW255443   3.440  10.012   7.265  0.3453  1.7314 -0.9408
18289SOL     OW55444   7.690   0.292   4.473 -0.0243 -0.1722  0.6277
18289SOL    HW155445   7.623   0.347   4.431 -0.1163 -1.2461 -0.6882
18289SOL    HW255446   7.661   0.285   4.564 -1.2684  0.0529  0.2685
18290SOL     OW55447   0.176   1.226   1.923 -0.8906  0.6753 -0.4687
18290SOL    HW155448   0.097   1.252   1.969 -0.6992  2.0089 -0.8621
18290SOL    HW255449   0.176   1.130   1.928 -2.1867  0.6847  0.0800
18291SOL     OW55450   2.339   8.723   6.821 -0.1188 -0.1083 -0.1036
18291SOL    HW155451   2.267   8.780   6.848 -1.1648 -0.9474 -0.9792
18291SOL    HW255452   2.361   8.753   6.733 -0.3516 -0.7402 -0.3803
18292SOL     OW55453   7.115   8.172   9.230  0.4525 -0.1639  0.2141
18292SOL    HW155454   7.060   8.156   9.307  0.8455 -0.6627  0.3938
18292SOL    HW255455   7.204   8.151   9.259  0.6736  0.1642 -0.2179
18293SOL     OW55456   3.901   0.710   3.141 -0.2149  0.5409  0.3014
18293SOL    HW155457   3.930   0.800   3.146  1.0109  0.2021 -0.4057
18293SOL    HW255458   3.811   0.715   3.107  0.0185  1.4560 -0.1890
18294SOL     OW55459   6.412   4.701   6.113 -0.3270 -0.2081  0.5838
18294SOL    HW155460   6.345   4.758   6.075 -0.7599 -0.9880  0.1596
18294SOL    HW255461   6.492   4.754   6.110 -0.0195 -0.6243 -2.6349
18295SOL     OW55462   3.182   3.854   7.241 -0.1996 -0.7847 -0.3390
18295SOL    HW155463   3.119   3.806   7.295 -2.1045  3.9500  2.2474
18295SOL    HW255464   3.242   3.894   7.304  0.1685  1.5034 -2.0000
18296SOL     OW55465   5.764   9.686   2.072  0.0309 -0.1602  0.0786
18296SOL    HW155466   5.831   9.648   2.130 -0.9571 -0.8816  0.7776
18296SOL    HW255467   5.814   9.720   1.998  1.3483  0.8404  1.3555
18297SOL     OW55468   7.573   5.740   7.215 -0.0936 -0.0698  0.6297
18297SOL    HW155469   7.596   5.698   7.131 -0.4157 -1.9115  1.4034
18297SOL    HW255470   7.524   5.818   7.190  0.3475 -0.2514 -0.9117
18298SOL     OW55471   3.934   6.665   3.397 -0.5340  0.3512  0.4054
18298SOL    HW155472   3.960   6.750   3.433  1.0101 -0.0711  0.3523
18298SOL    HW255473   3.842   6.676   3.375 -0.3136  2.0868  0.2048
18299SOL     OW55474   7.961   1.857   2.480  0.3270 -0.2682  0.2221
18299SOL    HW155475   8.002   1.940   2.455 -0.1663 -0.3920 -1.0784
18299SOL    HW255476   7.909   1.878   2.558  0.8166  0.4605  0.3639
18300SOL     OW55477   5.445   2.244   4.965 -0.0801 -0.1894 -0.0743
18300SOL    HW155478   5.503   2.242   4.889  1.0183  0.2325  0.7188
18300SOL    HW255479   5.406   2.331   4.963  0.2779 -0.0235  0.0763
18301SOL     OW55480   5.881   4.760   7.387 -0.1284 -0.6063 -0.3383
18301SOL    HW155481   5.899   4.838   7.335  1.1164  0.3087  1.3525
18301SOL    HW255482   5.841   4.794   7.468 -2.8966 -2.0433 -0.9598
18302SOL     OW55483   5.215   6.776   3.314  0.1438 -0.1337 -1.0034
18302SOL    HW155484   5.175   6.713   3.374  0.2391  0.8138  0.0873
18302SOL    HW255485   5.302   6.793   3.351  0.8471 -0.7258 -2.3015
18303SOL     OW55486   5.391   9.474   1.517 -0.4423  0.3479  0.0601
18303SOL    HW155487   5.431   9.545   1.567  0.2975  0.2884 -0.4377
18303SOL    HW255488   5.461   9.411   1.505 -1.1042 -0.4988  0.5266
18304SOL     OW55489   6.797   6.682   7.550 -0.0222 -0.7542  0.1235
18304SOL    HW155490   6.810   6.646   7.638 -0.7155  0.7254  0.8543
18304SOL    HW255491   6.749   6.613   7.504 -2.1490 -0.5126  1.7826
18305SOL     OW55492   5.811   7.170   1.176  0.2631 -0.2921  0.3316
18305SOL    HW155493   5.759   7.250   1.184 -0.2431 -0.7219  1.5872
18305SOL    HW255494   5.787   7.118   1.253 -0.2676 -2.1414 -0.9972
18306SOL     OW55495   2.335   0.997   6.937 -0.1159  0.0576 -0.6235
18306SOL    HW155496   2.312   0.927   6.875  1.0874 -0.9986  0.0657
18306SOL    HW255497   2.388   1.058   6.885  2.1482 -1.5657 -0.4043
18307SOL     OW55498   0.517   3.424   2.258  0.2391 -0.3917  0.3365
18307SOL    HW155499   0.593   3.437   2.201 -1.0234  2.0384 -0.9581
18307SOL    HW255500   0.442   3.422   2.199 -1.0359  1.2524  1.7694
18308SOL     OW55501   6.986   5.023   6.160 -1.0538  0.1793  0.1774
18308SOL    HW155502   6.909   5.054   6.113 -1.1047  0.7391  0.6120
18308SOL    HW255503   6.976   5.058   6.249  0.7579  2.1901 -0.3017
18309SOL     OW55504   8.683   6.189   9.006  0.6661  0.1366 -0.7070
18309SOL    HW155505   8.749   6.243   8.963 -0.6157  2.1935 -0.2203
18309SOL    HW255506   8.601   6.212   8.961 -0.4390  1.0954  1.6501
18310SOL     OW55507   0.664   8.754   9.712  0.0758  0.7052  0.9632
18310SOL    HW155508   0.732   8.801   9.760  1.6045 -1.3292  0.8796
18310SOL    HW255509   0.711   8.699   9.650 -1.7779  1.2768 -1.0921
18311SOL     OW55510   0.103   4.868   0.401 -0.1872  0.0546 -0.1006
18311SOL    HW155511   0.158   4.873   0.480 -0.7415  1.5970  0.2271
18311SOL    HW255512   0.159   4.899   0.331 -0.2785  0.5164  0.0288
18312SOL     OW55513   9.425   8.048   8.528 -0.4451  0.1855 -1.1258
18312SOL    HW155514   9.359   8.077   8.590  1.3239  0.8569  0.5585
18312SOL    HW255515   9.409   8.100   8.449 -1.7620  0.4756 -0.6916
18313SOL     OW55516   5.653   9.056   9.590 -0.2402  0.3548  0.4521
18313SOL    HW155517   5.683   9.117   9.657  1.4274 -0.0377  0.1007
18313SOL    HW255518   5.692   9.088   9.509  1.5189 -1.6822  0.4033
18314SOL     OW55519   0.419   0.689   8.189  0.4899 -1.0220 -0.1168
18314SOL    HW155520   0.470   0.655   8.115 -0.9437  0.5605 -1.9208
18314SOL    HW255521   0.478   0.752   8.231  0.7922 -0.7767 -0.8844
18315SOL     OW55522   4.608   2.074   6.897 -0.7259  0.2085  0.0249
18315SOL    HW155523   4.686   2.037   6.856 -0.9326  0.3093 -0.4581
18315SOL    HW255524   4.565   2.123   6.827 -1.2689  0.0847  0.2693
18316SOL     OW55525   9.783   1.323   3.958  0.0291 -0.0760  0.5740
18316SOL    HW155526   9.707   1.266   3.966 -0.0971 -0.3657 -1.8367
18316SOL    HW255527   9.826   1.318   4.043 -1.5430 -1.4866  1.3480
18317SOL     OW55528   9.397   8.977   7.271  1.0235  0.6401 -0.6278
18317SOL    HW155529   9.379   9.069   7.252 -0.0613  0.7750  0.8468
18317SOL    HW255530   9.338   8.928   7.213  0.4962  0.9262 -0.3427
18318SOL     OW55531   2.060   0.626   5.722  0.0196 -0.4170 -0.5111
18318SOL    HW155532   2.001   0.551   5.723 -1.0265  0.3286  2.1556
18318SOL    HW255533   2.138   0.595   5.768  0.3446 -0.3820 -1.0283
18319SOL     OW55534   3.285   8.781   0.037 -0.4479  0.7645 -0.0722
18319SOL    HW155535   3.292   8.870   0.072  1.1444  0.1399  1.3718
18319SOL    HW255536   3.348   8.730   0.089 -0.6034 -1.0012 -1.5174
18320SOL     OW55537   4.379   0.894   9.518 -0.2055  0.3505  0.5968
18320SOL    HW155538   4.405   0.985   9.504 -1.8141  0.9966  1.5057
18320SOL    HW255539   4.380   0.884   9.613 -0.2194 -0.5476  0.5085
18321SOL     OW55540   8.333   9.560   2.041  0.3191 -0.2191  0.0414
18321SOL    HW155541   8.341   9.464   2.041 -0.0569 -0.2545  0.4503
18321SOL    HW255542   8.423   9.591   2.028  0.2819 -0.6228 -1.2849
18322SOL     OW55543   4.545   8.238   8.787  0.1480  0.3110 -0.1507
18322SOL    HW155544   4.524   8.283   8.705 -1.1236 -0.3537 -0.2211
18322SOL    HW255545   4.537   8.305   8.855  0.0595  0.6023 -0.4490
18323SOL     OW55546   0.274   6.505   4.159  0.1633  0.2687  0.3110
18323SOL    HW155547   0.187   6.537   4.134 -0.8703 -1.6760  1.1757
18323SOL    HW255548   0.307   6.570   4.221  0.3928  2.2519 -1.7879
18324SOL     OW55549   2.872   0.890   2.411  0.5351  0.0146 -0.3652
18324SOL    HW155550   2.937   0.958   2.395  0.5069 -0.4775 -2.8794
18324SOL    HW255551   2.790   0.926   2.377 -0.0743 -0.2226  0.7951
18325SOL     OW55552   0.891   2.585   9.265  0.7398  0.2687 -0.8531
18325SOL    HW155553   0.887   2.630   9.350  0.6524 -1.9742  0.4137
18325SOL    HW255554   0.919   2.652   9.204  1.6976  1.7811  1.1203
18326SOL     OW55555   7.820   9.051   2.518 -0.0662  0.1232 -0.0584
18326SOL    HW155556   7.816   9.147   2.517  0.1687  0.1408  0.3703
18326SOL    HW255557   7.745   9.024   2.570  0.4798  0.1220  0.7453
18327SOL     OW55558   6.425   3.727   2.467  0.0641 -0.0623  0.4582
18327SOL    HW155559   6.491   3.796   2.461 -0.5113  0.4679  0.1662
18327SOL    HW255560   6.365   3.744   2.394  0.8872 -1.9143 -0.7179
18328SOL     OW55561   9.530   0.119   1.733 -0.1677  0.0242 -0.0208
18328SOL    HW155562   9.487   0.140   1.650 -0.9004  1.0028  0.5702
18328SOL    HW255563   9.496   0.185   1.794  0.6752 -0.4168  0.9533
18329SOL     OW55564   4.306   6.645   7.234  0.3117 -0.2422  0.3221
18329SOL    HW155565   4.365   6.718   7.216  0.0228 -0.0906 -0.0170
18329SOL    HW255566   4.360   6.581   7.282  0.2606  0.7128  1.7230
18330SOL     OW55567   1.511   5.443   0.304  0.6049 -0.3773 -0.2611
18330SOL    HW155568   1.465   5.524   0.327 -0.6458 -0.8126 -1.1485
18330SOL    HW255569   1.587   5.442   0.362 -0.3813  0.4744  1.1080
18331SOL     OW55570   6.473   9.070   3.702 -0.1530  0.2136  0.0407
18331SOL    HW155571   6.517   9.138   3.753  1.6455 -0.6654 -0.2316
18331SOL    HW255572   6.458   8.999   3.764 -3.4585  1.3342  0.7135
18332SOL     OW55573   8.413   5.744   2.243 -0.2267  0.2811  0.5792
18332SOL    HW155574   8.459   5.692   2.310  0.1278  0.3527  0.3943
18332SOL    HW255575   8.359   5.680   2.198  1.8998 -0.4305 -1.1529
18333SOL     OW55576   2.052   5.572   9.095 -0.5259 -0.3961  0.4922
18333SOL    HW155577   2.137   5.591   9.135 -0.7417  1.9239  0.0415
18333SOL    HW255578   2.029   5.484   9.125  1.1984 -0.3530  2.0784
18334SOL     OW55579   4.775   5.013   1.561  0.1634 -0.3400  0.3904
18334SOL    HW155580   4.804   5.063   1.637  0.7293 -0.1636  0.0701
18334SOL    HW255581   4.846   5.024   1.497 -1.0246  0.8717 -0.7846
18335SOL     OW55582   2.656   7.983   2.185  0.0270 -0.4812 -0.9667
18335SOL    HW155583   2.707   8.026   2.254 -0.7827 -2.2231  0.8348
18335SOL    HW255584   2.686   7.892   2.187 -0.8031 -0.7980 -2.1648
18336SOL     OW55585   3.477   2.923   3.597  0.2930 -0.1678  0.0024
18336SOL    HW155586   3.477   3.019   3.598  1.7611 -0.1293 -0.8740
18336SOL    HW255587   3.554   2.899   3.649 -0.5139 -0.9115  0.8913
18337SOL     OW55588   2.049   7.402   1.210 -0.4249 -0.3782  0.0508
18337SOL    HW155589   2.110   7.343   1.164 -0.8983 -0.9007  0.0925
18337SOL    HW255590   2.100   7.436   1.284  0.7405  1.3439 -1.4241
18338SOL     OW55591   8.768   7.295   7.452  1.0726  0.0465 -0.3171
18338SOL    HW155592   8.777   7.381   7.413  2.1203 -0.5376 -1.4278
18338SOL    HW255593   8.857   7.259   7.454  0.6885 -0.9274  0.3148
18339SOL     OW55594   6.699   9.927   0.132 -0.2444 -0.4312 -0.1737
18339SOL    HW155595   6.734   9.965   0.051  2.4324 -0.8084  0.6841
18339SOL    HW255596   6.719   9.993   0.199  0.7625 -1.5476  0.6784
18340SOL     OW55597   6.205   5.482   1.552  0.6332  0.3780  0.1233
18340SOL    HW155598   6.287   5.465   1.507  1.1430 -0.7496  1.4089
18340SOL    HW255599   6.203   5.577   1.564  1.1770  0.5343 -0.9537
18341SOL     OW55600   5.813   7.086   0.074 -0.3233 -0.2263  0.0371
18341SOL    HW155601   5.886   7.089   0.136 -1.2785  1.9802  1.1585
18341SOL    HW255602   5.842   7.139  -0.000  0.2015 -1.5530 -0.7349
18342SOL     OW55603   2.942   8.697   9.987  0.2706 -0.0001  0.3911
18342SOL    HW155604   3.004   8.637   9.945 -0.5007 -1.9656  1.9207
18342SOL    HW255605   2.994   8.774  10.009  1.1276  0.3108 -2.3167
18343SOL     OW55606   7.924   3.443   3.677 -0.5347 -0.1801  0.5531
18343SOL    HW155607   7.918   3.365   3.733  0.2319 -1.6009 -1.2198
18343SOL    HW255608   7.835   3.456   3.645 -0.5354 -0.8243  0.2673
18344SOL     OW55609   2.299   3.772   8.839 -0.2136 -0.2151 -0.1279
18344SOL    HW155610   2.376   3.826   8.821  0.5010 -0.8365  0.9393
18344SOL    HW255611   2.226   3.824   8.806  0.4452  1.3893  0.8000
18345SOL     OW55612   8.031   9.397   8.250 -0.4490 -0.3210  0.0283
18345SOL    HW155613   8.021   9.305   8.277 -0.6429  0.2038  1.9023
18345SOL    HW255614   7.948   9.438   8.273 -0.4238  0.3045 -0.9394
18346SOL     OW55615   4.818   8.280   2.784 -0.6584 -0.0316  0.3135
18346SOL    HW155616   4.754   8.284   2.855  1.1942 -1.0111  2.1402
18346SOL    HW255617   4.840   8.188   2.776  0.2350  0.2384 -0.5639
18347SOL     OW55618   1.074   2.157   5.474 -0.0526  0.1306  0.8867
18347SOL    HW155619   1.127   2.233   5.497 -0.3675  0.7848 -0.4747
18347SOL    HW255620   0.991   2.172   5.518  0.6252 -0.5934  2.5149
18348SOL     OW55621   4.535   5.703   5.507  0.0120  0.1041  0.0894
18348SOL    HW155622   4.521   5.746   5.591 -1.3228 -1.6487  0.8254
18348SOL    HW255623   4.473   5.629   5.507  0.8369 -0.6569 -1.9145
18349SOL     OW55624   6.855   6.402   3.067  0.0412 -0.4118 -0.4959
18349SOL    HW155625   6.880   6.316   3.102  0.8334 -0.0700 -0.1957
18349SOL    HW255626   6.883   6.400   2.976  2.0922  0.2992  0.0693
18350SOL     OW55627   2.700   5.238   5.150  0.9429  0.0601 -0.1413
18350SOL    HW155628   2.791   5.222   5.175  0.8775 -0.3546 -0.1678
18350SOL    HW255629   2.656   5.153   5.161  0.7326  0.0688 -0.8546
18351SOL     OW55630   1.635   2.233   6.855  0.2614  0.5890 -0.3569
18351SOL    HW155631   1.672   2.310   6.812 -0.5126  1.1344 -0.0921
18351SOL    HW255632   1.701   2.206   6.918 -0.7128  3.1138  1.9628
18352SOL     OW55633   6.945   9.417   8.259  0.1859 -0.3489 -0.1660
18352SOL    HW155634   6.998   9.338   8.271 -0.7301 -0.9227  0.2597
18352SOL    HW255635   6.995   9.486   8.303  0.7791 -0.7763 -0.1509
18353SOL     OW55636   7.687   4.579   6.853 -0.4996  0.1115 -0.5269
18353SOL    HW155637   7.781   4.579   6.834 -0.6604  0.1707 -1.3973
18353SOL    HW255638   7.667   4.488   6.873 -0.9695 -0.8404 -4.4227
18354SOL     OW55639   6.966   6.833   4.740  0.3863  0.5781  0.6134
18354SOL    HW155640   6.917   6.751   4.734 -0.3639  0.8253  2.5509
18354SOL    HW255641   6.979   6.860   4.649  0.8946 -1.7988 -0.1033
18355SOL     OW55642   3.541   3.481   2.642  0.0128 -0.0790  0.3911
18355SOL    HW155643   3.482   3.419   2.598  0.0991 -0.5835  0.9602
18355SOL    HW255644   3.531   3.563   2.594 -0.5615 -0.3771 -0.0076
18356SOL     OW55645   8.319   1.082   2.101  0.1935 -0.1037  0.8187
18356SOL    HW155646   8.389   1.039   2.150 -0.1840 -1.1038  0.5160
18356SOL    HW255647   8.342   1.068   2.009  0.6407  1.3298  0.6881
18357SOL     OW55648   1.519   7.796   6.724 -0.0010 -0.5170 -0.3147
18357SOL    HW155649   1.517   7.701   6.725 -0.8653 -0.5334  1.4955
18357SOL    HW255650   1.612   7.818   6.723  0.2095 -1.3788 -0.5330
18358SOL     OW55651   8.072   9.879   6.405 -0.9599 -0.5026  0.0223
18358SOL    HW155652   8.076   9.925   6.321 -0.9896  1.2171  0.9303
18358SOL    HW255653   8.050   9.789   6.381 -1.0009 -0.0533 -1.8085
18359SOL     OW55654   2.800   2.912   9.623 -0.1364  0.0754 -0.4717
18359SOL    HW155655   2.740   2.888   9.552 -1.1249 -1.3447  0.7615
18359SOL    HW255656   2.837   2.828   9.652 -1.1455  0.3288  1.8241
18360SOL     OW55657   0.557   4.755   8.043 -0.4657 -0.3647 -0.4930
18360SOL    HW155658   0.480   4.794   8.083 -0.0606  1.5631 -1.4598
18360SOL    HW255659   0.631   4.801   8.082 -0.0527  1.3846 -3.0890
18361SOL     OW55660   4.589   5.902   1.145  0.0335 -0.4918  0.3595
18361SOL    HW155661   4.537   5.974   1.108 -1.0487 -1.5994 -0.3795
18361SOL    HW255662   4.541   5.824   1.120  1.3896 -1.5024  0.8199
18362SOL     OW55663   4.575   0.889   4.550 -0.0546 -0.7941 -0.4761
18362SOL    HW155664   4.580   0.850   4.637  0.4876 -1.9213 -0.9898
18362SOL    HW255665   4.532   0.973   4.564 -2.7625 -2.2355  0.4498
18363SOL     OW55666   9.371   6.946   0.687  0.3979  0.0849 -0.2688
18363SOL    HW155667   9.329   6.940   0.772  1.2312  2.1325  0.3426
18363SOL    HW255668   9.444   6.884   0.691 -0.3275 -0.7835 -0.0187
18364SOL     OW55669   3.759   8.933   7.559  0.1133  0.3574 -0.8498
18364SOL    HW155670   3.804   9.013   7.532  1.0767 -0.6999 -2.5420
18364SOL    HW255671   3.821   8.863   7.539 -1.9730 -1.1143 -2.6796
18365SOL     OW55672   7.691   7.494   6.037 -0.0008 -0.1220  0.3038
18365SOL    HW155673   7.707   7.517   6.128  1.1344  1.0227 -0.1603
18365SOL    HW255674   7.597   7.475   6.033 -0.0143 -0.4649  1.7555
18366SOL     OW55675   0.413   0.376   4.545  0.0740 -0.2432 -0.5249
18366SOL    HW155676   0.413   0.468   4.518  1.2381 -0.1244 -0.1839
18366SOL    HW255677   0.372   0.376   4.632  1.2912  0.1749  0.0781
18367SOL     OW55678   3.657   1.725   1.417  0.0249 -0.4318  0.6428
18367SOL    HW155679   3.574   1.705   1.460 -0.8904  0.0951 -0.8028
18367SOL    HW255680   3.633   1.779   1.342  1.8197  0.9931  1.0003
18368SOL     OW55681   5.096   6.757   9.057  0.5168  0.6162 -0.5062
18368SOL    HW155682   5.092   6.825   8.989  1.8887  1.1865 -0.0503
18368SOL    HW255683   5.045   6.793   9.129  0.4736  0.7689 -0.6110
18369SOL     OW55684   5.188   5.040   0.885  0.3814 -0.8808 -0.2253
18369SOL    HW155685   5.150   5.040   0.973  0.0101  0.2369 -0.3711
18369SOL    HW255686   5.116   5.015   0.828  0.3465 -0.5715 -0.3167
18370SOL     OW55687   8.916   6.253   0.158  0.3190  0.0986 -0.7995
18370SOL    HW155688   8.972   6.195   0.108 -0.7361  1.2329 -3.4853
18370SOL    HW255689   8.883   6.199   0.230  3.9551 -0.8488  0.3496
18371SOL     OW55690   9.200   8.770   0.132 -0.6615 -0.3816 -0.2566
18371SOL    HW155691   9.147   8.791   0.055 -1.5869  0.1631  0.5185
18371SOL    HW255692   9.233   8.855   0.163 -3.5293 -0.0314  2.2463
18372SOL     OW55693   1.534   9.100   4.737  0.5310  0.7663  0.1676
18372SOL    HW155694   1.505   9.185   4.704  0.2105  0.7059  0.2944
18372SOL    HW255695   1.456   9.060   4.775  0.1897 -0.4310 -1.6411
18373SOL     OW55696   1.247   2.390   0.802  0.2793  0.5119 -0.7900
18373SOL    HW155697   1.235   2.325   0.872 -0.4309  1.6375  0.1652
18373SOL    HW255698   1.244   2.339   0.721  3.1155 -1.1260 -0.0007
18374SOL     OW55699   0.892   3.840   6.953  0.3757 -0.3319  0.3387
18374SOL    HW155700   0.934   3.766   6.997 -1.9871 -1.5504  0.7079
18374SOL    HW255701   0.828   3.800   6.894 -0.1340  1.4116 -0.3633
18375SOL     OW55702   6.514   6.447   9.017 -0.4370  0.4596  0.6454
18375SOL    HW155703   6.575   6.426   9.088  0.4466  1.7768  0.2916
18375SOL    HW255704   6.544   6.394   8.943  0.0755  0.8647  0.5644
18376SOL     OW55705   4.554   9.540   3.320  0.7696  0.3627  0.1133
18376SOL    HW155706   4.649   9.548   3.320  0.6861  1.4501 -0.1435
18376SOL    HW255707   4.530   9.534   3.228  0.5123  1.2835  0.1081
18377SOL     OW55708   0.723   4.339   5.962 -0.5551 -0.4445  0.1876
18377SOL    HW155709   0.784   4.345   6.035 -0.2134 -1.6106  0.0161
18377SOL    HW255710   0.731   4.423   5.917 -1.9444  0.9550  2.3467
18378SOL     OW55711   1.071   1.963   0.722  0.4337  0.6240 -0.6971
18378SOL    HW155712   0.994   1.960   0.777  0.7691 -0.4232 -0.2562
18378SOL    HW255713   1.054   2.035   0.660 -1.1932 -0.0393 -1.0738
18379SOL     OW55714   1.962   3.588   6.763 -0.3288  0.2103 -0.0498
18379SOL    HW155715   2.028   3.533   6.722 -0.9553  0.5664 -1.6017
18379SOL    HW255716   2.005   3.673   6.775 -0.8180  0.8099 -2.1793
18380SOL     OW55717   5.427   1.735   7.512  0.0769 -0.1079  0.1666
18380SOL    HW155718   5.332   1.737   7.522  0.0512  1.6077 -0.0525
18380SOL    HW255719   5.456   1.667   7.573 -1.3138 -0.9888 -0.1069
18381SOL     OW55720   7.814   7.190   9.599 -0.3142 -0.6323  0.3424
18381SOL    HW155721   7.869   7.250   9.548 -1.3561 -0.3072 -0.4282
18381SOL    HW255722   7.871   7.115   9.617  0.4505 -0.2047 -0.2354
18382SOL     OW55723   0.197   3.914   0.208  0.5346  0.1471 -0.1796
18382SOL    HW155724   0.102   3.910   0.196  0.4228  2.5839 -0.5985
18382SOL    HW255725   0.231   3.945   0.124  1.5920  0.3126  0.2908
18383SOL     OW55726   1.002   4.640   8.497  0.1187 -0.0519  0.5511
18383SOL    HW155727   1.024   4.715   8.552  1.2947 -0.1700  0.2734
18383SOL    HW255728   0.917   4.611   8.529  0.3390  0.4729  1.6610
18384SOL     OW55729   9.084   4.593   4.690 -0.0702  0.4585 -0.0539
18384SOL    HW155730   9.064   4.643   4.770  2.3049 -0.1117  1.0011
18384SOL    HW255731   9.054   4.505   4.709  1.4030  0.0759  0.7138
18385SOL     OW55732   8.238   5.291   8.844  0.1848 -0.3113  0.0624
18385SOL    HW155733   8.171   5.247   8.898  0.4783 -0.2979  0.4465
18385SOL    HW255734   8.189   5.351   8.789 -0.1670 -0.6662 -0.0162
18386SOL     OW55735   9.351   2.173   1.870 -0.7049  0.4673 -0.3071
18386SOL    HW155736   9.341   2.081   1.847 -0.8185  1.1973 -3.6426
18386SOL    HW255737   9.446   2.185   1.879 -0.7503 -0.1860  1.5268
18387SOL     OW55738  -0.003   6.148   2.359  0.2033 -0.2005  0.1111
18387SOL    HW155739   0.001   6.070   2.303 -0.1381  0.7434 -1.2996
18387SOL    HW255740   0.079   6.194   2.341 -0.6581  0.9881 -1.0205
18388SOL     OW55741   4.448   5.041   5.189  0.2320  0.0644 -0.6529
18388SOL    HW155742   4.448   5.057   5.095 -3.0075 -1.1579 -0.9924
18388SOL    HW255743   4.488   4.955   5.199  1.4356  0.5919 -0.7613
18389SOL     OW55744   9.158   6.961   1.865 -0.4086  0.2070  0.2429
18389SOL    HW155745   9.174   6.920   1.780 -0.6376  1.7956 -0.6133
18389SOL    HW255746   9.063   6.957   1.876 -0.3184 -0.5981  0.7498
18390SOL     OW55747   2.384   3.805   7.041  0.0793  0.0541  0.0912
18390SOL    HW155748   2.459   3.852   7.079  0.4409 -1.0610  0.8260
18390SOL    HW255749   2.307   3.854   7.072  0.4734  0.7399  0.0048
18391SOL     OW55750   1.530   3.598   0.853  0.0131 -0.2826  0.5339
18391SOL    HW155751   1.602   3.660   0.845 -0.9023  0.8496  0.8370
18391SOL    HW255752   1.454   3.652   0.878 -0.8700 -1.4790  0.5190
18392SOL     OW55753   4.744   2.937   0.977 -0.4300 -0.7578  0.2475
18392SOL    HW155754   4.781   2.898   1.056 -0.3357  0.8587  1.0483
18392SOL    HW255755   4.724   2.863   0.920  1.7258 -1.8231  0.8057
18393SOL     OW55756   3.451   6.728   4.163 -0.1881 -0.1318  0.2179
18393SOL    HW155757   3.492   6.813   4.148 -0.0467 -0.2174  0.1129
18393SOL    HW255758   3.414   6.734   4.251 -0.3465  0.1050  0.1381
18394SOL     OW55759   1.253   4.729   0.969 -0.4358 -0.5277  0.0295
18394SOL    HW155760   1.265   4.801   1.031 -0.8625 -0.7776  0.4141
18394SOL    HW255761   1.197   4.764   0.901  0.3031 -0.1510 -0.3948
18395SOL     OW55762   0.382   8.714   8.556 -0.1541 -0.2145 -0.0189
18395SOL    HW155763   0.472   8.698   8.528 -0.2794  1.0277 -1.2663
18395SOL    HW255764   0.385   8.706   8.652  1.5662  1.0386  0.0858
18396SOL     OW55765   7.539   4.403   1.875 -0.3643  0.0563  0.1542
18396SOL    HW155766   7.478   4.454   1.823  0.3389  1.7969  0.9482
18396SOL    HW255767   7.621   4.406   1.826  0.0424  0.8821  0.8660
18397SOL     OW55768   4.710   1.138  -0.016  0.2950 -0.4028 -0.4088
18397SOL    HW155769   4.675   1.132   0.073  0.9116 -0.1781 -0.1528
18397SOL    HW255770   4.765   1.061  -0.026  0.8034 -0.0504 -0.3434
18398SOL     OW55771   0.404   9.786   3.922 -0.2886 -0.2258  0.5165
18398SOL    HW155772   0.462   9.718   3.889  0.8340 -1.0073  3.7028
18398SOL    HW255773   0.462   9.860   3.939 -0.6871 -0.0776  1.2687
18399SOL     OW55774   8.492   1.341   8.254 -0.1670  0.1290 -0.8983
18399SOL    HW155775   8.442   1.423   8.258  0.5817  0.5689  0.0891
18399SOL    HW255776   8.582   1.368   8.237 -0.1101 -0.5894 -1.7918
18400SOL     OW55777   6.584   4.976   7.332 -0.0544 -0.2787 -0.7391
18400SOL    HW155778   6.625   5.058   7.304 -1.4361  0.6026 -0.2931
18400SOL    HW255779   6.561   4.932   7.250 -1.2271  0.8127 -1.0406
18401SOL     OW55780   7.726   1.559   8.517  0.3903  0.3941  0.4549
18401SOL    HW155781   7.799   1.501   8.495  0.3795 -0.0979  1.6278
18401SOL    HW255782   7.670   1.558   8.439  0.6794 -0.7393  0.2430
18402SOL     OW55783   4.211   4.622   6.655  0.1694  0.0575  0.5124
18402SOL    HW155784   4.281   4.561   6.631  1.1710  1.3129  0.1125
18402SOL    HW255785   4.257   4.700   6.686 -1.0824  0.3056  1.8660
18403SOL     OW55786   3.917   4.424   5.517  0.2015 -0.0456 -0.2222
18403SOL    HW155787   3.960   4.345   5.549 -0.4122  0.0948  1.0111
18403SOL    HW255788   3.830   4.422   5.557 -0.8849 -0.2170 -2.4919
18404SOL     OW55789   3.242   1.836   0.955  0.1886 -0.1617 -0.0270
18404SOL    HW155790   3.267   1.919   0.996  1.0587  0.4569 -1.6906
18404SOL    HW255791   3.310   1.774   0.981 -0.1169 -0.1923  0.7058
18405SOL     OW55792   3.433   5.954   0.183 -0.1319  0.3930 -0.1708
18405SOL    HW155793   3.509   5.924   0.133 -1.3184 -2.1281 -0.5771
18405SOL    HW255794   3.363   5.961   0.117 -0.6830  1.1352  0.4733
18406SOL     OW55795   6.515   6.113   3.785  0.1887  0.2559 -0.1477
18406SOL    HW155796   6.490   6.188   3.733  0.0591  1.0501  1.0258
18406SOL    HW255797   6.599   6.085   3.748  0.1350  0.8379 -0.7186
18407SOL     OW55798   1.433   6.583   4.074  0.3461 -0.3623  0.0723
18407SOL    HW155799   1.436   6.656   4.012 -0.6776 -0.6243 -0.3003
18407SOL    HW255800   1.516   6.588   4.121  2.1907 -1.4253 -2.7700
18408SOL     OW55801   7.334   0.862   5.725 -0.4171 -0.1032  0.0900
18408SOL    HW155802   7.370   0.808   5.794 -1.1628  0.2657  0.7815
18408SOL    HW255803   7.242   0.838   5.721 -0.3109 -0.3966 -1.0489
18409SOL     OW55804   7.484   2.944   2.691 -0.4759  0.2469  0.0566
18409SOL    HW155805   7.513   2.874   2.750 -1.8408 -0.1340  0.3093
18409SOL    HW255806   7.403   2.976   2.731 -0.4585  1.2136 -0.6634
18410SOL     OW55807   7.436   5.227   2.938  0.2891  0.0608 -0.0266
18410SOL    HW155808   7.454   5.172   3.014  0.2635  0.5070  0.3058
18410SOL    HW255809   7.348   5.261   2.953  0.3455  0.2758 -0.1781
18411SOL     OW55810   6.579   0.721   8.682  0.4539 -0.0377  0.1703
18411SOL    HW155811   6.493   0.762   8.672  0.7697  0.6880  0.3733
18411SOL    HW255812   6.614   0.716   8.593  0.4438  0.2091  0.1510
18412SOL     OW55813   9.581   5.428   9.952  0.3640  0.1554 -0.3646
18412SOL    HW155814   9.565   5.512   9.909  2.7069  1.5333  1.2348
18412SOL    HW255815   9.646   5.447  10.020  1.8024 -3.1546 -0.6019
18413SOL     OW55816   5.912   6.113   9.226  0.1832  0.3161 -0.0355
18413SOL    HW155817   5.975   6.135   9.295  0.5271 -0.3782 -0.1192
18413SOL    HW255818   5.894   6.196   9.182 -0.4502  0.8641  1.2321
18414SOL     OW55819   8.244   6.541   6.776 -0.1066  0.1682 -0.6313
18414SOL    HW155820   8.193   6.560   6.698  2.0798 -0.6172 -2.3757
18414SOL    HW255821   8.286   6.624   6.798 -0.1887  0.2281 -0.7012
18415SOL     OW55822   9.324   4.755   3.162  0.6192  0.2028 -0.3047
18415SOL    HW155823   9.329   4.724   3.071 -1.0043  0.6691 -0.5889
18415SOL    HW255824   9.282   4.684   3.210  1.6389 -0.1168  0.1513
18416SOL     OW55825   8.105   6.221   2.370 -0.1129 -0.0613 -0.2640
18416SOL    HW155826   8.166   6.287   2.336 -0.2226  0.4672  0.5451
18416SOL    HW255827   8.127   6.213   2.463 -0.3710 -0.8757 -0.2646
18417SOL     OW55828   4.523   5.253   2.442 -0.3003 -0.2428 -0.1275
18417SOL    HW155829   4.614   5.247   2.471 -0.2796 -0.1475 -0.1730
18417SOL    HW255830   4.472   5.233   2.521 -0.2340 -0.8134 -0.2288
18418SOL     OW55831   4.779   9.464   9.016 -0.4942  0.0882 -0.2597
18418SOL    HW155832   4.831   9.390   9.048 -0.3600 -0.5644 -1.9022
18418SOL    HW255833   4.691   9.429   9.006 -0.7514  0.5592  0.3345
18419SOL     OW55834   9.135   4.022   3.847  0.2506  0.0473  0.1295
18419SOL    HW155835   9.073   4.056   3.782 -2.9681 -2.0844  1.8135
18419SOL    HW255836   9.146   3.930   3.823 -0.7898 -0.7052  2.3042
18420SOL     OW55837   2.609   3.783   1.587  0.1543  0.3001  0.0548
18420SOL    HW155838   2.689   3.764   1.637 -0.1087  0.7576  0.6650
18420SOL    HW255839   2.542   3.730   1.629  0.4834 -1.6004 -1.6638
18421SOL     OW55840   3.720   7.759   6.944  0.2996 -0.1003  0.4334
18421SOL    HW155841   3.691   7.677   6.984  3.7249 -0.6390  2.2032
18421SOL    HW255842   3.731   7.819   7.018  1.2557  0.7937 -0.4035
18422SOL     OW55843   2.206   6.067   1.371 -0.4392 -0.0922  0.4383
18422SOL    HW155844   2.139   6.135   1.377 -0.2643  0.0605  0.7427
18422SOL    HW255845   2.269   6.101   1.307 -0.6788 -0.2564  0.1191
18423SOL     OW55846   3.684   6.275   8.399  0.0395 -0.2238 -0.1368
18423SOL    HW155847   3.758   6.335   8.404 -1.0017  1.0374  2.1008
18423SOL    HW255848   3.628   6.311   8.330  0.7598 -0.2603 -0.7396
18424SOL     OW55849   1.397   4.533   0.708  0.0917  0.3219 -0.1430
18424SOL    HW155850   1.429   4.518   0.797 -1.1175 -1.1744  0.0779
18424SOL    HW255851   1.464   4.493   0.652  0.0487 -0.2127  0.1799
18425SOL     OW55852   9.476   8.809   9.053  0.2418 -0.0966  0.1286
18425SOL    HW155853   9.451   8.891   9.011  0.2743  0.4320  1.0941
18425SOL    HW255854   9.460   8.824   9.146  2.2209 -0.4421  0.5703
18426SOL     OW55855   6.983   2.810   3.930  0.3177  0.1125 -0.1430
18426SOL    HW155856   7.030   2.859   3.997 -1.0194 -1.0280  1.7111
18426SOL    HW255857   7.045   2.744   3.900  0.9967  0.7644 -0.2100
18427SOL     OW55858   0.684   0.475   5.445  0.0827 -0.1041  0.5753
18427SOL    HW155859   0.604   0.523   5.428  0.6197  0.7331  0.3415
18427SOL    HW255860   0.713   0.506   5.531  0.2998 -0.2019  0.5385
18428SOL     OW55861   1.837   6.417   8.604  0.1423 -0.3524  1.1700
18428SOL    HW155862   1.861   6.326   8.620  0.0741 -0.4711  0.6217
18428SOL    HW255863   1.741   6.417   8.600  0.1861 -0.5388 -0.3911
18429SOL     OW55864   1.350   6.910   8.102  0.8053  0.6288 -0.5254
18429SOL    HW155865   1.321   6.871   8.185  2.1146  0.8377  0.0482
18429SOL    HW255866   1.376   6.835   8.048 -0.6119  0.4460 -1.0039
18430SOL     OW55867   1.390   2.953   3.754  0.0745  0.1335 -0.2663
18430SOL    HW155868   1.419   3.024   3.698  1.3287 -0.1587 -0.0079
18430SOL    HW255869   1.470   2.921   3.796 -0.7112 -0.2449  0.9928
18431SOL     OW55870   8.598   1.893   0.547  0.8591  0.1247 -0.3164
18431SOL    HW155871   8.595   1.936   0.632 -0.8459 -0.6699  0.0640
18431SOL    HW255872   8.550   1.951   0.488 -0.6910 -0.7958  0.0022
18432SOL     OW55873   9.885   2.132   5.056  0.5914 -0.0378  0.6135
18432SOL    HW155874   9.961   2.082   5.027  0.2424 -0.8257  1.0039
18432SOL    HW255875   9.827   2.066   5.095 -0.3263  0.5271  0.2424
18433SOL     OW55876   9.363   8.703   2.739 -0.0118 -0.1348 -0.2999
18433SOL    HW155877   9.369   8.769   2.670  1.1708 -0.2014 -0.2904
18433SOL    HW255878   9.325   8.749   2.814  0.0992  0.3342 -0.5279
18434SOL     OW55879   2.752   5.069   7.602 -0.2839  0.4485 -0.2370
18434SOL    HW155880   2.761   5.101   7.513  0.7380 -1.5576 -0.9182
18434SOL    HW255881   2.794   5.137   7.656 -0.3777  1.3968 -1.3215
18435SOL     OW55882   5.281   6.091   4.711  0.0610 -0.0920  0.0709
18435SOL    HW155883   5.336   6.044   4.648  1.2740 -0.4737  1.3618
18435SOL    HW255884   5.341   6.152   4.754 -1.1611  1.5578 -0.4821
18436SOL     OW55885   4.420   0.759   2.716  0.4115  0.3090  0.0923
18436SOL    HW155886   4.426   0.850   2.689 -0.2804  0.2204 -0.3876
18436SOL    HW255887   4.456   0.709   2.642  0.5471  0.1821  0.2438
18437SOL     OW55888   4.702   6.034   4.347 -0.4394 -0.0293 -0.6973
18437SOL    HW155889   4.706   6.019   4.442 -1.4725 -1.2653 -0.8247
18437SOL    HW255890   4.609   6.027   4.326 -0.1745 -0.1519 -1.8782
18438SOL     OW55891   1.753   1.690   9.633  0.2497  0.0153  0.2328
18438SOL    HW155892   1.675   1.645   9.601 -0.1142 -0.5727  1.8479
18438SOL    HW255893   1.724   1.781   9.647  0.1342  0.0332 -0.1151
18439SOL     OW55894   4.367   0.079   4.938 -0.3041  0.0331  0.4653
18439SOL    HW155895   4.271   0.085   4.939 -0.4748 -1.7572  2.6229
18439SOL    HW255896   4.385  -0.013   4.919  1.0168  0.3521  0.0731
18440SOL     OW55897   6.068   4.995   7.579 -0.1219  0.6997 -0.9403
18440SOL    HW155898   6.066   5.089   7.564  0.8261  0.6137 -1.6449
18440SOL    HW255899   5.983   4.976   7.620 -0.0764  1.9428 -0.2048
18441SOL     OW55900   4.214   9.438   7.824 -0.0177 -0.2700 -0.4829
18441SOL    HW155901   4.182   9.439   7.914 -1.3513  1.9151 -0.8934
18441SOL    HW255902   4.134   9.438   7.770  0.7323 -0.3002 -1.6385
18442SOL     OW55903   8.012   7.512   4.234 -0.2040  0.3219 -0.8082
18442SOL    HW155904   7.933   7.563   4.253 -0.5275 -0.3226 -0.4166
18442SOL    HW255905   8.070   7.575   4.191  0.5946  1.8707  2.2477
18443SOL     OW55906   5.667   0.680   1.032 -0.1102 -0.2728 -0.0291
18443SOL    HW155907   5.629   0.639   0.954  0.2277 -0.5649 -0.0415
18443SOL    HW255908   5.595   0.731   1.069  0.1448  1.1339 -1.3926
18444SOL     OW55909   8.927   7.030   2.785  0.0811  0.0896 -0.0961
18444SOL    HW155910   8.901   7.110   2.739 -1.1892  0.2223  0.7984
18444SOL    HW255911   8.844   6.987   2.806  0.7549 -1.4705 -0.5496
18445SOL     OW55912   3.435   8.801   7.318 -0.0138  0.3639  1.0349
18445SOL    HW155913   3.436   8.714   7.358  0.8855  0.2614  0.8205
18445SOL    HW255914   3.388   8.856   7.381  0.2057 -0.0867  1.5985
18446SOL     OW55915   1.252   9.844   4.848 -0.2535 -0.4236  0.0611
18446SOL    HW155916   1.236   9.821   4.757 -1.2965  0.5810 -0.0358
18446SOL    HW255917   1.290   9.766   4.886 -1.2194 -1.3893 -0.8731
18447SOL     OW55918   9.329   4.227   5.838  0.2349 -0.3252  0.3670
18447SOL    HW155919   9.352   4.176   5.916 -0.2979 -2.0249 -0.5200
18447SOL    HW255920   9.406   4.219   5.781  0.4162  0.4595  0.4946
18448SOL     OW55921   7.303   8.710   6.717 -0.0630  0.3937  0.0295
18448SOL    HW155922   7.246   8.699   6.793 -0.6504  0.1032 -0.4452
18448SOL    HW255923   7.274   8.643   6.655  0.7681  0.2729 -0.2381
18449SOL     OW55924   8.345   9.643   9.707 -0.2076 -0.9818  0.3921
18449SOL    HW155925   8.331   9.731   9.671  1.4944 -1.6810 -2.2519
18449SOL    HW255926   8.417   9.654   9.770 -1.3557 -0.2017  1.6200
18450SOL     OW55927   5.098   7.723   3.980  0.2205  0.0157 -0.8201
18450SOL    HW155928   5.170   7.786   3.981  0.8477 -0.6490  1.7095
18450SOL    HW255929   5.125   7.655   4.042 -2.3206 -0.5625 -0.2622
18451SOL     OW55930   6.426   7.327   5.326 -0.3434  0.4054  0.1243
18451SOL    HW155931   6.354   7.351   5.384 -1.1555  0.8790 -1.0310
18451SOL    HW255932   6.383   7.296   5.246  0.7360  0.0109 -0.3258
18452SOL     OW55933   5.174   0.560   9.795 -0.0292  0.2307  0.0763
18452SOL    HW155934   5.257   0.513   9.796  0.1725  0.5828  0.4110
18452SOL    HW255935   5.108   0.495   9.818  0.5347  0.6238  3.1595
18453SOL     OW55936   8.816   4.031   6.242  0.2530  0.1764  0.3308
18453SOL    HW155937   8.755   3.990   6.180 -0.2233 -0.4242  1.1843
18453SOL    HW255938   8.892   4.054   6.188 -0.5136  0.5079 -0.6618
18454SOL     OW55939   5.913   9.798   3.539 -0.1771 -0.5016  0.0304
18454SOL    HW155940   5.851   9.846   3.484  0.3232 -0.1544 -0.2342
18454SOL    HW255941   5.999   9.827   3.510  0.1162 -0.9787  0.3988
18455SOL     OW55942   2.318   4.989   2.896  0.2809  0.2394 -0.2503
18455SOL    HW155943   2.324   4.947   2.810  0.6090  0.4250 -0.3177
18455SOL    HW255944   2.354   4.924   2.956 -0.4036 -0.0893 -0.1830
18456SOL     OW55945   4.952   1.768   1.568  0.1642  0.2590  0.1021
18456SOL    HW155946   5.033   1.723   1.591 -0.5574 -1.6373 -0.7985
18456SOL    HW255947   4.977   1.859   1.556  1.6327  0.2433  2.4485
18457SOL     OW55948   2.381   0.399   8.731  0.6778  0.3536  0.1309
18457SOL    HW155949   2.326   0.442   8.665  0.7958  0.8002  0.3198
18457SOL    HW255950   2.392   0.310   8.699 -0.3323  0.1950  0.1871
18458SOL     OW55951   0.666   4.857   5.854  0.0311 -0.0822  0.6523
18458SOL    HW155952   0.718   4.858   5.935  0.5069 -1.3872  0.3862
18458SOL    HW255953   0.706   4.925   5.799 -0.0394  0.5340  1.3340
18459SOL     OW55954   3.986   5.338   2.450 -0.0987 -0.1682  0.7230
18459SOL    HW155955   3.958   5.247   2.464 -1.2267  0.1655  0.7881
18459SOL    HW255956   3.919   5.390   2.495  0.5981  0.6978  0.7870
18460SOL     OW55957   8.618   5.424   2.146  0.1527  0.4332  0.3851
18460SOL    HW155958   8.528   5.425   2.179 -0.3726 -0.5524 -0.9201
18460SOL    HW255959   8.653   5.339   2.173  0.9287  1.0614  1.4257
18461SOL     OW55960   0.995   7.491   6.878  0.7495 -0.3911  0.3165
18461SOL    HW155961   0.903   7.518   6.880  0.5480 -1.0083 -0.4006
18461SOL    HW255962   1.026   7.504   6.968  0.2484  0.7799  0.3436
18462SOL     OW55963   1.615   8.040   2.466 -0.9895 -0.2509  0.6907
18462SOL    HW155964   1.613   8.005   2.555 -3.0239 -1.4666  0.2548
18462SOL    HW255965   1.548   8.109   2.465  0.6810  1.4347  0.6741
18463SOL     OW55966   6.308   6.639   6.346 -0.2849  0.1016 -0.5669
18463SOL    HW155967   6.258   6.557   6.337 -0.3813  0.2409 -1.3698
18463SOL    HW255968   6.281   6.674   6.431 -0.2180 -0.7132 -0.1957
18464SOL     OW55969   5.266   8.491   3.077  0.2163  0.0353 -1.0714
18464SOL    HW155970   5.344   8.542   3.100  0.1304 -0.6208  0.8436
18464SOL    HW255971   5.197   8.525   3.133  0.0792 -1.9144  0.0242
18465SOL     OW55972   0.329   1.980   8.965 -0.1161  0.2757  0.1874
18465SOL    HW155973   0.288   1.911   8.911  1.3272 -0.5929  0.1519
18465SOL    HW255974   0.330   2.057   8.908  0.0814 -0.2376 -0.5283
18466SOL     OW55975   1.596   4.292   4.549 -0.2521  0.0226 -0.0669
18466SOL    HW155976   1.521   4.242   4.581  1.4088 -1.4539  1.8756
18466SOL    HW255977   1.630   4.240   4.476 -0.1340 -0.2414  0.1727
18467SOL     OW55978   5.896   1.313   2.558 -0.5106 -0.3057 -0.5514
18467SOL    HW155979   5.910   1.339   2.649  0.8513 -2.2559 -0.1562
18467SOL    HW255980   5.916   1.219   2.556 -1.7136 -0.5829 -2.6165
18468SOL     OW55981   1.208   2.965   3.499 -0.3832 -0.5505  0.4768
18468SOL    HW155982   1.159   2.976   3.417  0.2464  0.3807  0.2065
18468SOL    HW255983   1.224   2.871   3.504  0.4993 -0.5255 -1.0504
18469SOL     OW55984   6.989   1.175   0.387  0.0774 -0.3626 -0.0984
18469SOL    HW155985   6.906   1.129   0.404 -0.9949  1.7421  0.8339
18469SOL    HW255986   7.057   1.109   0.402 -1.3472 -1.5928  1.3205
18470SOL     OW55987   6.484   9.126   9.352  0.0004  0.0413  0.2847
18470SOL    HW155988   6.532   9.169   9.423  0.8373  1.1390 -0.8922
18470SOL    HW255989   6.509   9.175   9.274 -0.6906 -1.2997 -0.8157
18471SOL     OW55990   9.597   2.004   9.927  0.2100 -0.6273  0.2452
18471SOL    HW155991   9.593   1.910   9.910 -2.5300 -0.4683 -0.3587
18471SOL    HW255992   9.632   2.042   9.846  2.0838 -1.1263  0.7678
18472SOL     OW55993   4.618   3.563   7.578  0.5062  0.4661 -0.0349
18472SOL    HW155994   4.712   3.574   7.593  0.2727 -0.1552  2.2538
18472SOL    HW255995   4.582   3.548   7.665 -1.8165  1.2846 -0.8002
18473SOL     OW55996   6.646   4.137   4.265  0.4019  0.2603 -0.2310
18473SOL    HW155997   6.607   4.071   4.321  1.1942 -1.3912 -1.5158
18473SOL    HW255998   6.621   4.111   4.176 -0.4405  2.5301 -0.7267
18474SOL     OW55999   7.490   3.293   6.442 -0.0994  0.3360 -0.1298
18474SOL    HW156000   7.532   3.260   6.522 -0.7765  2.1918  1.0689
18474SOL    HW256001   7.562   3.325   6.388  0.3228 -0.4666 -0.0595
18475SOL     OW56002   1.206   0.498   9.719 -0.3124  0.3219  0.4817
18475SOL    HW156003   1.229   0.448   9.798  0.5741 -0.5877 -0.3280
18475SOL    HW256004   1.288   0.539   9.693 -0.1203 -0.9020 -1.0046
18476SOL     OW56005   2.644   8.453   4.909  0.1424 -0.3209  0.3638
18476SOL    HW156006   2.673   8.364   4.929 -2.2431 -1.7711 -1.9041
18476SOL    HW256007   2.700   8.482   4.837 -1.1865 -1.4317 -1.1842
18477SOL     OW56008   7.413   9.110   2.228 -0.3294 -0.2305 -0.1159
18477SOL    HW156009   7.341   9.140   2.173 -1.0862  1.5235  1.7332
18477SOL    HW256010   7.378   9.032   2.273 -0.4498 -0.4110 -0.5170
18478SOL     OW56011   7.621   5.749   2.423 -0.5342 -0.0404 -0.0893
18478SOL    HW156012   7.569   5.805   2.365 -2.1624 -1.2229  0.1724
18478SOL    HW256013   7.698   5.726   2.371 -0.4063  1.4679 -0.6203
18479SOL     OW56014   3.776   0.526   5.174  0.5847  0.0646 -0.3813
18479SOL    HW156015   3.779   0.520   5.079 -0.6496  0.5391 -0.4628
18479SOL    HW256016   3.830   0.602   5.195  1.1503 -0.2488 -0.6588
18480SOL     OW56017   6.717   0.133   0.311 -0.2617 -0.1060  0.0898
18480SOL    HW156018   6.781   0.142   0.382 -0.6526  0.2609  0.4063
18480SOL    HW256019   6.679   0.221   0.302 -1.2990 -0.4964  0.4710
18481SOL     OW56020   2.939   7.671   2.289 -0.3407  0.7000  0.3669
18481SOL    HW156021   2.931   7.659   2.384  1.2274  1.0227  0.5649
18481SOL    HW256022   3.033   7.661   2.272 -0.7738 -1.0499 -1.3981
18482SOL     OW56023   1.975   6.629   7.463  0.0987  0.2731 -0.4170
18482SOL    HW156024   2.011   6.561   7.406 -0.6146 -1.0809  0.6948
18482SOL    HW256025   1.933   6.691   7.403  0.8829 -0.1696 -1.4598
18483SOL     OW56026   6.734   8.260   1.773  0.0370 -0.1625 -0.1577
18483SOL    HW156027   6.682   8.196   1.822 -2.9565  1.3536 -1.0689
18483SOL    HW256028   6.791   8.299   1.838 -3.2445  1.2419  2.1567
18484SOL     OW56029   3.709   8.979   8.628 -0.5289 -0.4609 -0.5358
18484SOL    HW156030   3.678   8.961   8.539 -2.2844  0.8772 -0.2511
18484SOL    HW256031   3.753   9.064   8.622  0.4465 -0.9308 -0.3286
18485SOL     OW56032   6.901   9.677   3.290  0.2010  0.0705 -0.0948
18485SOL    HW156033   6.981   9.625   3.282  0.2521  0.4109 -2.6651
18485SOL    HW256034   6.900   9.732   3.212 -2.3371  0.3786  0.0619
18486SOL     OW56035   6.874   1.651   7.621 -0.1084 -0.5708 -0.0874
18486SOL    HW156036   6.878   1.563   7.585  1.3613 -0.4174 -0.3675
18486SOL    HW256037   6.926   1.704   7.561 -0.8678  0.4713  0.1431
18487SOL     OW56038   2.444   0.471   2.389 -0.4592  0.3256 -0.0824
18487SOL    HW156039   2.461   0.412   2.463 -2.2719 -0.0984  0.0566
18487SOL    HW256040   2.462   0.417   2.312 -0.8839 -0.0177  0.0509
18488SOL     OW56041   0.965   8.768   9.829 -0.4900  0.4656  0.3832
18488SOL    HW156042   0.940   8.843   9.883 -0.2758 -0.4176  1.7407
18488SOL    HW256043   0.920   8.693   9.869  2.0390 -0.7114  1.1981
18489SOL     OW56044   6.423   2.591   3.018 -0.7459 -0.1328 -1.1409
18489SOL    HW156045   6.398   2.556   2.933 -2.8050 -0.3355 -0.5177
18489SOL    HW256046   6.342   2.587   3.070  0.4388  0.0041  0.8150
18490SOL     OW56047   7.071   7.309   1.927 -0.3371 -0.4505  0.7318
18490SOL    HW156048   7.111   7.265   1.852 -3.5581 -0.9932 -0.7997
18490SOL    HW256049   7.052   7.237   1.988  0.0352 -0.3200  1.0081
18491SOL     OW56050   8.333   1.376   5.945  0.2320 -0.3600 -0.1130
18491SOL    HW156051   8.245   1.383   5.982 -0.2110 -0.5322 -1.1117
18491SOL    HW256052   8.320   1.339   5.858  1.2639 -0.0625 -0.4104
18492SOL     OW56053   0.677   7.164   9.413 -0.0192  0.0675 -0.2613
18492SOL    HW156054   0.684   7.175   9.318 -1.2073  1.8323 -0.1952
18492SOL    HW256055   0.602   7.107   9.426 -1.3108  1.6690 -0.3765
18493SOL     OW56056   9.742   3.964   3.284  0.0408 -0.1696  0.4044
18493SOL    HW156057   9.793   3.988   3.361 -0.7336  1.3033  0.4781
18493SOL    HW256058   9.709   4.046   3.250 -0.8123 -0.9367 -0.6871
18494SOL     OW56059   7.071   6.604   4.348 -0.0372 -0.3789 -0.7818
18494SOL    HW156060   7.138   6.578   4.411 -0.6450 -1.3671 -0.5092
18494SOL    HW256061   7.020   6.524   4.333 -0.3961  0.0407 -1.9188
18495SOL     OW56062   5.307   2.239   0.050  0.0760 -0.9280  0.3325
18495SOL    HW156063   5.287   2.240  -0.044  0.2281 -0.0764  0.2989
18495SOL    HW256064   5.235   2.190   0.089 -0.0513 -1.1891 -0.2178
18496SOL     OW56065   4.363   2.601   8.343 -0.3336 -0.0859  0.0805
18496SOL    HW156066   4.297   2.583   8.276  0.1944  2.9645 -1.4398
18496SOL    HW256067   4.438   2.547   8.318 -0.4946  0.2690 -1.2655
18497SOL     OW56068   1.191   9.904   8.697  0.3236 -0.0990  0.3275
18497SOL    HW156069   1.277   9.885   8.736  0.1496 -0.9118  0.3331
18497SOL    HW256070   1.166   9.822   8.654 -0.1359  0.3531 -0.2749
18498SOL     OW56071   6.904   3.103   4.639  0.2643 -0.2565 -0.6749
18498SOL    HW156072   6.979   3.043   4.642  0.7138  0.3483  0.9255
18498SOL    HW256073   6.874   3.109   4.729 -0.3345  1.2534 -0.9436
18499SOL     OW56074   6.005   9.874   7.645  0.0822 -0.1058  0.1446
18499SOL    HW156075   6.091   9.836   7.661  0.0266 -1.7305 -2.7112
18499SOL    HW256076   6.016   9.925   7.564 -1.5305 -0.0026 -0.0523
18500SOL     OW56077   1.972   4.664   9.705  0.1503  0.4801 -0.4888
18500SOL    HW156078   1.932   4.712   9.632 -0.2680  1.2173  0.2051
18500SOL    HW256079   2.065   4.659   9.683  0.1338  1.2765 -0.7684
18501SOL     OW56080   0.339   5.812   9.374 -0.1879 -0.5968  0.0676
18501SOL    HW156081   0.294   5.824   9.458  0.1510  0.3182  0.1297
18501SOL    HW256082   0.344   5.900   9.337 -0.2293 -0.9761 -0.8645
18502SOL     OW56083   9.501   0.568   1.875  0.0113  0.0588 -0.4390
18502SOL    HW156084   9.588   0.542   1.843 -0.7390 -1.5702 -1.3121
18502SOL    HW256085   9.500   0.663   1.866  2.2631  0.3042  1.1212
18503SOL     OW56086   7.580   2.170   1.742 -0.3612 -0.3840  0.0626
18503SOL    HW156087   7.542   2.229   1.807  0.2844  1.1619 -0.8865
18503SOL    HW256088   7.545   2.201   1.659  1.6960  0.0907 -0.6769
18504SOL     OW56089   6.933   0.961   5.985  0.2833  0.5002  0.1652
18504SOL    HW156090   7.014   0.972   6.036  0.7413 -0.2904 -0.3608
18504SOL    HW256091   6.866   0.942   6.050  0.6191  0.6874  0.5726
18505SOL     OW56092   0.438   8.752   2.067 -0.2081 -0.0738  0.3822
18505SOL    HW156093   0.400   8.791   2.146 -1.4418 -1.8182  0.7239
18505SOL    HW256094   0.408   8.807   1.995 -1.6580 -0.1734  0.8691
18506SOL     OW56095   9.199   9.419   8.270  0.5079  0.8346  0.8194
18506SOL    HW156096   9.124   9.465   8.232  2.1429  1.4080 -1.9981
18506SOL    HW256097   9.171   9.397   8.359 -2.6994  1.6276  0.1349
18507SOL     OW56098   3.002   3.826   2.272 -0.4412  0.0214  0.0584
18507SOL    HW156099   3.054   3.760   2.225  1.0074  1.3411 -0.2312
18507SOL    HW256100   2.959   3.776   2.342 -0.0380 -1.3797 -0.6432
18508SOL     OW56101   5.151   2.341   2.174  0.5372  0.0599  1.1919
18508SOL    HW156102   5.214   2.399   2.217  0.0737  0.0497  1.9093
18508SOL    HW256103   5.116   2.392   2.101  0.3231  0.5927  1.6643
18509SOL     OW56104   9.789   6.191   2.086 -0.3031  0.0340 -0.1617
18509SOL    HW156105   9.851   6.165   2.154  1.6872  1.8979 -1.1377
18509SOL    HW256106   9.771   6.110   2.038  0.3791 -0.7870  0.9095
18510SOL     OW56107   5.078   0.117   7.650 -0.2796 -0.0414  0.1140
18510SOL    HW156108   5.098   0.201   7.691  1.9259 -0.4059 -0.0730
18510SOL    HW256109   5.123   0.052   7.704 -0.6167 -0.9233 -0.6343
18511SOL     OW56110   3.258   2.167   9.304 -0.3816  0.4163 -0.0977
18511SOL    HW156111   3.305   2.237   9.258  0.3002 -0.4721 -0.8190
18511SOL    HW256112   3.325   2.127   9.360 -0.8011  0.4216  0.4121
18512SOL     OW56113   6.126   5.869   4.723 -0.1501  0.1930  0.0753
18512SOL    HW156114   6.103   5.942   4.666  0.9913  0.5949  0.1095
18512SOL    HW256115   6.107   5.791   4.671  0.8826  0.5582 -0.8788
18513SOL     OW56116   1.658   5.373   7.080 -0.5724 -0.1051  0.4649
18513SOL    HW156117   1.595   5.326   7.134 -0.7916 -0.4035 -0.0376
18513SOL    HW256118   1.737   5.318   7.081 -0.7339 -0.3521  0.1091
18514SOL     OW56119   9.683   6.830   3.665  0.0929 -0.3905  0.0596
18514SOL    HW156120   9.747   6.761   3.649  0.7845  0.4266 -0.8328
18514SOL    HW256121   9.605   6.803   3.617  1.1555  0.5621 -2.3799
18515SOL     OW56122   4.101   4.530   2.697  0.5666  0.0537 -0.3402
18515SOL    HW156123   4.193   4.542   2.722  0.7104 -0.0016 -0.8387
18515SOL    HW256124   4.093   4.437   2.680  0.4416  0.0739 -0.3884
18516SOL     OW56125   0.114   3.637   2.849  0.1861 -0.2897  0.1579
18516SOL    HW156126   0.168   3.690   2.908 -0.3905  0.1388  0.3065
18516SOL    HW256127   0.149   3.548   2.859 -0.1103 -0.2866  1.3998
18517SOL     OW56128   0.333   3.876   1.678 -0.1685  0.0884 -0.7271
18517SOL    HW156129   0.239   3.857   1.682 -0.5078  1.7577  0.6934
18517SOL    HW256130   0.338   3.962   1.637  0.8166 -0.3073 -1.4729
18518SOL     OW56131   6.641   7.782   1.983  0.3584 -0.4486  0.4021
18518SOL    HW156132   6.569   7.822   1.935  0.2086  0.9325  1.7046
18518SOL    HW256133   6.648   7.693   1.948 -0.9337 -0.0798 -0.8358
18519SOL     OW56134   8.698   0.396   6.708  0.0487 -0.2616 -0.0333
18519SOL    HW156135   8.751   0.453   6.762 -0.2211 -0.4512  0.4341
18519SOL    HW256136   8.739   0.310   6.716 -0.8658 -0.6149  1.0909
18520SOL     OW56137   3.231   5.495   9.037  0.5374 -0.3873 -0.2042
18520SOL    HW156138   3.189   5.409   9.039 -1.6917  0.6408  1.1488
18520SOL    HW256139   3.160   5.557   9.019  1.8639  1.2853 -0.0212
18521SOL     OW56140   3.075   8.465   9.027  0.0135  0.2813 -0.1014
18521SOL    HW156141   3.052   8.372   9.025  0.2660  0.1915 -3.0965
18521SOL    HW256142   2.997   8.509   8.992  0.5823  0.9818 -0.5097
18522SOL     OW56143   5.034   1.645   8.498  0.0474 -0.4101 -0.3679
18522SOL    HW156144   4.982   1.565   8.503 -0.4462 -0.3374 -2.7974
18522SOL    HW256145   5.123   1.615   8.479 -0.1226 -0.4291 -1.1993
18523SOL     OW56146   3.553   1.140   3.917 -0.2383  0.1549 -0.6523
18523SOL    HW156147   3.460   1.131   3.899 -0.1961  1.4622 -1.6926
18523SOL    HW256148   3.564   1.109   4.007 -1.3666 -1.6692 -1.0923
18524SOL     OW56149   0.688   0.560   7.762 -0.0226 -0.0534 -0.3721
18524SOL    HW156150   0.704   0.466   7.775 -1.3685 -0.4632 -1.4851
18524SOL    HW256151   0.775   0.597   7.749  0.6144 -0.9957  0.8646
18525SOL     OW56152   9.432   0.758   8.895  0.6738  0.2160 -0.0189
18525SOL    HW156153   9.411   0.665   8.909  0.1280  0.4840  1.0528
18525SOL    HW256154   9.480   0.759   8.812 -1.8466 -0.6950 -1.6297
18526SOL     OW56155   8.383   5.033   4.756 -0.2774  0.0047  0.1442
18526SOL    HW156156   8.436   5.105   4.792  0.9990 -0.8267  0.0162
18526SOL    HW256157   8.376   4.971   4.828 -1.9444  0.5155  0.4662
18527SOL     OW56158   1.935   7.797   1.766  0.4792  0.0284  0.2628
18527SOL    HW156159   1.862   7.849   1.799  0.9208 -0.2802  1.7909
18527SOL    HW256160   1.953   7.733   1.835  2.3363  0.2414  0.0332
18528SOL     OW56161   1.661   3.470   7.450 -0.2670  0.2848  0.1181
18528SOL    HW156162   1.604   3.443   7.378 -1.1979  0.8922  0.6039
18528SOL    HW256163   1.725   3.399   7.458 -0.5530 -0.0997 -0.8698
18529SOL     OW56164   0.033   4.352   4.676 -0.2181 -0.2202  0.3432
18529SOL    HW156165  -0.022   4.324   4.603 -0.4820  0.3540  0.3201
18529SOL    HW256166   0.016   4.288   4.745  1.1702 -1.6678 -0.5981
18530SOL     OW56167   6.301   4.621   9.952 -0.3381  0.6167 -0.5328
18530SOL    HW156168   6.215   4.624   9.909  0.3941  1.9328 -1.9925
18530SOL    HW256169   6.351   4.692   9.911  0.6188  1.6059  2.1035
18531SOL     OW56170   2.726   4.595   3.363  0.4750 -0.3246 -0.2745
18531SOL    HW156171   2.780   4.523   3.396 -1.1374 -0.9436  1.1522
18531SOL    HW256172   2.726   4.584   3.268  0.1079 -2.3549 -0.0816
18532SOL     OW56173   0.066   7.854   4.929 -0.0554  0.3890  0.8528
18532SOL    HW156174  -0.021   7.833   4.965 -0.1337 -0.5863  0.1264
18532SOL    HW256175   0.117   7.774   4.941  0.6771  0.8752  1.0416
18533SOL     OW56176   4.981   9.178   6.735  0.0861  0.2219  0.4605
18533SOL    HW156177   5.046   9.176   6.806  1.9718  0.9386 -1.1734
18533SOL    HW256178   4.956   9.086   6.723  2.2727 -0.3277 -0.1488
18534SOL     OW56179   3.381   3.515   1.158 -0.1335 -0.3528 -0.2569
18534SOL    HW156180   3.355   3.446   1.219  0.9471 -2.3774 -1.9742
18534SOL    HW256181   3.307   3.576   1.158 -1.7339 -2.1961  0.3324
18535SOL     OW56182   1.913   9.180   0.251 -0.0328 -0.3094 -0.2798
18535SOL    HW156183   1.893   9.120   0.323 -1.0478 -0.0392 -0.3200
18535SOL    HW256184   1.970   9.130   0.193  0.2448 -0.7616  0.3741
18536SOL     OW56185   4.622   1.273   8.435  0.0988  0.1400  0.1182
18536SOL    HW156186   4.572   1.355   8.442  0.8795  0.5713  0.7701
18536SOL    HW256187   4.618   1.250   8.342 -0.5072  0.6721  0.0072
18537SOL     OW56188   2.018   4.400   6.782 -0.0946  0.1078  0.2749
18537SOL    HW156189   2.111   4.405   6.760 -0.2279 -0.2625 -0.4025
18537SOL    HW256190   1.984   4.330   6.726 -0.6381 -0.2409  1.0234
18538SOL     OW56191   8.735   5.920   7.322 -0.5347  0.0089  0.4421
18538SOL    HW156192   8.751   5.944   7.231 -0.1716 -1.6032  0.0370
18538SOL    HW256193   8.677   5.988   7.355 -2.1364 -0.2937 -1.5156
18539SOL     OW56194   8.288   9.063   3.948  0.0187 -0.1929  0.6814
18539SOL    HW156195   8.271   9.155   3.970  0.5485  0.2037 -0.4889
18539SOL    HW256196   8.204   9.030   3.915  0.5134  0.7496 -1.7110
18540SOL     OW56197   3.180   1.121   7.353 -0.2067 -0.7673  0.1319
18540SOL    HW156198   3.268   1.112   7.390 -0.6932 -0.4397  1.4283
18540SOL    HW256199   3.182   1.206   7.308  0.6025 -1.4847 -1.2476
18541SOL     OW56200   5.505   7.769   1.274 -0.4223 -0.1637  0.5751
18541SOL    HW156201   5.458   7.851   1.289 -1.1947 -0.1656 -1.5160
18541SOL    HW256202   5.458   7.728   1.201  0.8374 -1.7787  0.6288
18542SOL     OW56203   8.412   9.001   8.782 -0.6093 -0.3058  0.0049
18542SOL    HW156204   8.455   9.083   8.759 -3.0379  0.4578 -2.4363
18542SOL    HW256205   8.355   9.024   8.856 -2.5677  0.8333 -1.7111
18543SOL     OW56206   0.012   3.013   7.929  0.3110 -0.5226 -0.5859
18543SOL    HW156207  -0.023   2.950   7.866  1.2862 -0.8182 -0.8586
18543SOL    HW256208   0.077   2.963   7.979 -0.5694 -0.3275  0.7759
18544SOL     OW56209   1.009   9.834   4.204 -0.6267  0.2139 -0.2530
18544SOL    HW156210   1.019   9.870   4.116 -0.2701  0.6267 -0.0448
18544SOL    HW256211   1.098   9.806   4.228 -0.8021 -0.2978 -0.1963
18545SOL     OW56212   3.049   2.686   8.910 -0.6725  0.6837 -0.6061
18545SOL    HW156213   3.126   2.681   8.966 -1.0788  1.3486  0.0190
18545SOL    HW256214   3.084   2.703   8.823 -0.0892  0.5368 -0.4046
18546SOL     OW56215   0.848   1.178   6.770 -0.1332 -0.4409  0.0819
18546SOL    HW156216   0.817   1.138   6.851  1.5863 -0.0571  0.9620
18546SOL    HW256217   0.777   1.162   6.707 -1.0389 -1.6777  1.3591
18547SOL     OW56218   7.314   7.010   4.680  0.1350 -0.3704 -0.8076
18547SOL    HW156219   7.372   6.986   4.753  0.6618 -1.4737 -1.5653
18547SOL    HW256220   7.362   7.079   4.634 -0.1232  0.2103 -0.2343
18548SOL     OW56221   0.903   2.678   2.345  0.6531 -0.0103  0.7633
18548SOL    HW156222   0.948   2.672   2.430  3.1339 -1.1182 -0.5314
18548SOL    HW256223   0.911   2.591   2.307 -0.1698  0.5407 -0.7464
18549SOL     OW56224   2.407   1.854   7.352  0.5093  0.5085 -0.0600
18549SOL    HW156225   2.365   1.768   7.361  0.5643  0.5340  0.4478
18549SOL    HW256226   2.499   1.833   7.334  0.8208  0.4552  1.4912
18550SOL     OW56227   9.701   0.363   5.566  0.5422 -0.2658 -0.0496
18550SOL    HW156228   9.728   0.430   5.629 -0.0574 -1.2778  1.3411
18550SOL    HW256229   9.676   0.288   5.620 -0.9728 -0.8319 -1.4433
18551SOL     OW56230   2.526   8.816   7.578 -0.0437 -0.2395 -0.1178
18551SOL    HW156231   2.454   8.844   7.634 -0.5036 -1.9170  0.1667
18551SOL    HW256232   2.595   8.880   7.595  0.2807 -1.3003  3.3452
18552SOL     OW56233   6.038   2.407   3.792  0.6699  0.0144 -0.5380
18552SOL    HW156234   6.125   2.378   3.763  1.4336  2.5654 -1.0024
18552SOL    HW256235   6.050   2.429   3.884  0.0469 -1.2535 -0.1368
18553SOL     OW56236   3.521   0.435   9.647 -0.0740 -0.2623  0.2001
18553SOL    HW156237   3.439   0.444   9.598  0.0808 -0.3390 -0.0747
18553SOL    HW256238   3.524   0.342   9.671  0.4313 -0.4822 -0.6760
18554SOL     OW56239   8.515   2.356   6.940 -0.4408 -0.1761  0.2430
18554SOL    HW156240   8.595   2.326   6.896  1.0381  0.2189  2.4822
18554SOL    HW256241   8.464   2.398   6.871  0.2521 -2.3486 -1.7165
18555SOL     OW56242   3.823   5.454   6.318  0.0024  0.1612  0.2748
18555SOL    HW156243   3.873   5.526   6.355 -2.2053  1.0201  1.8105
18555SOL    HW256244   3.759   5.495   6.260 -0.0973 -0.7210 -0.2681
18556SOL     OW56245   0.608   5.558   8.986 -0.0501  0.1872 -0.6718
18556SOL    HW156246   0.624   5.580   9.077  0.6106  1.0780 -0.9930
18556SOL    HW256247   0.572   5.469   8.988 -1.1605  0.6318  0.5345
18557SOL     OW56248   0.512   1.662   7.913  0.2510  0.2718  0.5706
18557SOL    HW156249   0.442   1.684   7.851 -0.8062 -0.7954  1.3357
18557SOL    HW256250   0.509   1.732   7.978  0.6795  0.8422 -0.0057
18558SOL     OW56251   9.097   4.770   2.743  0.1361 -0.5226  0.1444
18558SOL    HW156252   9.190   4.755   2.761  0.4586 -0.5129 -1.3688
18558SOL    HW256253   9.066   4.687   2.708 -0.3879 -0.4665  0.4681
18559SOL     OW56254   7.169   2.145   5.139  0.3943 -0.8234  0.1039
18559SOL    HW156255   7.080   2.123   5.111  0.5994 -2.1641  0.4672
18559SOL    HW256256   7.192   2.221   5.086 -0.9233 -0.5219 -0.0712
18560SOL     OW56257   3.181   1.814   1.687 -0.7072  0.1186  0.0718
18560SOL    HW156258   3.179   1.884   1.753 -0.7343  0.3584 -0.1794
18560SOL    HW256259   3.088   1.799   1.666 -0.7009  0.0088  0.1248
18561SOL     OW56260   4.431   3.072   2.693 -0.7208  0.2716  0.4217
18561SOL    HW156261   4.487   3.056   2.769 -2.4810 -1.5227  1.4300
18561SOL    HW256262   4.368   3.137   2.724 -1.0006  0.0785  0.2611
18562SOL     OW56263   0.644   3.201   1.723 -0.0501 -0.2675 -0.2236
18562SOL    HW156264   0.732   3.181   1.693  0.6443  0.1465  1.4354
18562SOL    HW256265   0.619   3.126   1.777 -0.1685  0.1886  0.3790
18563SOL     OW56266   0.820   1.891   4.907 -0.3749  0.0900 -0.3827
18563SOL    HW156267   0.789   1.956   4.970 -1.2327  0.8814 -1.5789
18563SOL    HW256268   0.883   1.838   4.956 -2.1413 -0.3270  1.5974
18564SOL     OW56269   5.033   9.755   9.805 -0.2809  0.4150 -0.4048
18564SOL    HW156270   5.033   9.787   9.896 -1.1311  1.6073 -0.8004
18564SOL    HW256271   5.005   9.664   9.812 -0.6120  0.5763  0.5140
18565SOL     OW56272   6.078   5.881   6.402 -0.4535  0.0335 -0.4925
18565SOL    HW156273   6.021   5.881   6.326 -1.9608 -1.4293  0.5471
18565SOL    HW256274   6.120   5.795   6.401  2.2263  1.2340 -1.4943
18566SOL     OW56275   1.236   7.782   7.181  0.6061 -0.3199 -0.7028
18566SOL    HW156276   1.247   7.778   7.086  0.9784 -0.7338 -0.6460
18566SOL    HW256277   1.200   7.869   7.198  0.0412 -0.4315 -1.2731
18567SOL     OW56278   7.857   6.022   6.372 -0.1987 -0.6511  0.5249
18567SOL    HW156279   7.872   6.046   6.463  2.8933 -1.4529  0.3271
18567SOL    HW256280   7.925   6.068   6.323 -0.1185 -2.3206 -1.0447
18568SOL     OW56281   3.211   0.704   1.986  0.4663  0.3146  0.2310
18568SOL    HW156282   3.162   0.786   1.986  0.3583  0.2507  0.6498
18568SOL    HW256283   3.284   0.720   1.925 -1.0260 -0.1717 -1.8074
18569SOL     OW56284   6.930   9.964   6.945  0.1222  0.5378 -0.4141
18569SOL    HW156285   6.888   9.880   6.927 -0.8457  1.5041 -3.3533
18569SOL    HW256286   7.011   9.962   6.894  0.9303  0.8001  0.8162
18570SOL     OW56287   2.549   2.798   0.328  0.6299 -0.5880  0.5939
18570SOL    HW156288   2.613   2.858   0.366 -1.1441  0.8676  1.3880
18570SOL    HW256289   2.590   2.769   0.246  0.9019  3.1115 -0.7900
18571SOL     OW56290   6.777   9.453   7.941 -0.2548  0.1019  0.3640
18571SOL    HW156291   6.836   9.379   7.928  0.4078  0.6247  0.3401
18571SOL    HW256292   6.818   9.504   8.011 -1.3897 -0.2438  1.3297
18572SOL     OW56293   6.645   5.113   4.847 -0.0182  0.4368 -0.0729
18572SOL    HW156294   6.628   5.062   4.926 -0.7138 -0.7068 -0.9312
18572SOL    HW256295   6.621   5.203   4.871  1.2281  0.4000  1.4587
18573SOL     OW56296   6.591   5.754   9.410  0.1627 -0.1993  0.2117
18573SOL    HW156297   6.600   5.803   9.492  0.3483 -0.2566  0.2259
18573SOL    HW256298   6.574   5.664   9.438 -2.8435  0.2740  0.2181
18574SOL     OW56299   4.437   6.914   6.420  0.1069 -0.2238  0.6338
18574SOL    HW156300   4.474   6.844   6.476  2.6470 -0.9601 -1.7562
18574SOL    HW256301   4.469   6.995   6.459 -0.4886 -0.5267  1.8029
18575SOL     OW56302   5.956   5.665   5.917  0.0211  0.4831 -0.1723
18575SOL    HW156303   5.938   5.571   5.919 -0.7041  0.6047 -0.5450
18575SOL    HW256304   5.948   5.688   5.824 -1.0910  1.1360  0.0599
18576SOL     OW56305   0.095   2.180   8.593 -0.6664 -0.5444 -1.0141
18576SOL    HW156306   0.115   2.273   8.590 -0.4147 -0.6022 -1.0621
18576SOL    HW256307   0.024   2.168   8.530 -0.1333 -0.5353 -1.6137
18577SOL     OW56308   0.425   3.020   4.746 -0.2960  0.3961  0.2686
18577SOL    HW156309   0.444   2.969   4.825  0.1797  0.8790  0.4709
18577SOL    HW256310   0.460   3.107   4.765  1.4913  0.0417 -1.1902
18578SOL     OW56311   0.043   1.263   1.190 -0.5087  0.0245 -0.3297
18578SOL    HW156312   0.067   1.283   1.099 -0.4667 -1.0716 -0.5708
18578SOL    HW256313   0.107   1.197   1.218  0.6278  1.6437  1.1255
18579SOL     OW56314   2.016   5.832   4.821 -0.0124 -0.9388 -0.0079
18579SOL    HW156315   2.060   5.901   4.871  0.2508  1.2566 -2.9882
18579SOL    HW256316   1.925   5.836   4.850  0.1768  0.0539  0.4805
18580SOL     OW56317   7.181   2.195   3.064  0.5450 -0.2115 -0.3081
18580SOL    HW156318   7.219   2.107   3.071 -2.4787 -1.5316  1.9236
18580SOL    HW256319   7.199   2.236   3.148  0.3023  0.5713 -0.6312
18581SOL     OW56320   1.693   7.531   1.994 -0.2403  0.5990  0.1007
18581SOL    HW156321   1.687   7.489   2.079 -3.8494  0.9719  0.1771
18581SOL    HW256322   1.652   7.617   2.006  0.8734  1.4501 -1.6221
18582SOL     OW56323   2.281   0.726   9.213  0.1336  0.2313  0.5122
18582SOL    HW156324   2.283   0.806   9.161 -1.9367 -0.7450 -1.1748
18582SOL    HW256325   2.267   0.756   9.303 -1.1736  1.7655 -0.1709
18583SOL     OW56326   9.669   7.646   9.353 -0.3038 -0.1840 -0.0089
18583SOL    HW156327   9.667   7.742   9.355 -0.4544 -0.1826 -0.2102
18583SOL    HW256328   9.747   7.623   9.403  1.2157  0.1240 -2.1197
18584SOL     OW56329   9.287   3.590   5.349  0.1335 -0.1621  0.5023
18584SOL    HW156330   9.301   3.648   5.424 -4.9646  0.5538  1.2441
18584SOL    HW256331   9.309   3.645   5.273 -1.1022  1.5618  1.3115
18585SOL     OW56332   1.042   0.845   5.257  0.0566  0.0089  0.1314
18585SOL    HW156333   0.984   0.901   5.205  1.7318  0.2466 -1.5966
18585SOL    HW256334   0.996   0.761   5.260 -1.3097  0.7382  0.5842
18586SOL     OW56335   7.475   7.364   2.673  0.3497  0.9876  0.4115
18586SOL    HW156336   7.395   7.311   2.671 -0.2955  1.9543 -0.1553
18586SOL    HW256337   7.445   7.450   2.702  1.0203  1.6146 -0.6960
18587SOL     OW56338   2.118   9.278   6.798 -0.3993  0.4281 -0.1004
18587SOL    HW156339   2.022   9.283   6.795 -0.3686  0.6840 -0.9684
18587SOL    HW256340   2.139   9.188   6.775 -0.4222  0.4368 -0.1550
18588SOL     OW56341   8.892   2.131   9.541 -0.0891  0.3682 -0.0719
18588SOL    HW156342   8.918   2.195   9.475  1.0199  0.4436  0.4223
18588SOL    HW256343   8.961   2.135   9.607 -0.7862 -0.2599  0.7126
18589SOL     OW56344   0.042   2.457   6.712 -0.7167 -0.0009 -0.1163
18589SOL    HW156345   0.013   2.410   6.790 -0.3785 -0.7144 -0.4073
18589SOL    HW256346   0.005   2.407   6.639  0.0750 -0.1189 -0.4443
18590SOL     OW56347   4.201   0.673   5.547  0.3729  0.0502 -0.1172
18590SOL    HW156348   4.111   0.695   5.570  1.1059  0.4081  2.9133
18590SOL    HW256349   4.223   0.732   5.475 -1.0674  1.7205  0.7371
18591SOL     OW56350   4.097   9.347   8.907  0.0448 -0.8192 -0.4174
18591SOL    HW156351   4.117   9.386   8.992 -0.3349  1.1560 -1.1811
18591SOL    HW256352   4.100   9.252   8.923 -0.6144 -0.5144  1.9149
18592SOL     OW56353   2.949   1.139   9.715 -0.8161  0.0305  0.6535
18592SOL    HW156354   2.985   1.103   9.796 -2.3356 -0.3536  1.1746
18592SOL    HW256355   2.988   1.085   9.646 -1.9582 -1.7659  1.3418
18593SOL     OW56356   0.329   1.250   1.649 -0.3128  0.3673 -0.3452
18593SOL    HW156357   0.298   1.205   1.570 -1.2877  0.7679 -0.2058
18593SOL    HW256358   0.260   1.237   1.713  0.7669 -0.5211  0.6764
18594SOL     OW56359   1.596   8.057   8.884  0.1607 -0.1124 -0.3244
18594SOL    HW156360   1.555   7.986   8.933  0.8650  1.1990  2.4220
18594SOL    HW256361   1.528   8.125   8.878  0.3132  0.0287 -0.4855
18595SOL     OW56362   8.935   1.112   4.567 -0.1021 -0.3056  0.2671
18595SOL    HW156363   8.898   1.044   4.623 -2.4483  1.3353  0.8443
18595SOL    HW256364   8.989   1.165   4.626 -1.0075  0.2858  0.5778
18596SOL     OW56365   7.640   7.604   1.324 -0.2573  0.2412 -0.1668
18596SOL    HW156366   7.734   7.619   1.312 -0.0968 -0.4487  0.1316
18596SOL    HW256367   7.598   7.651   1.253  0.3180  0.5563 -0.3043
18597SOL     OW56368   2.342   1.444   4.573 -0.7289  0.7239  0.3752
18597SOL    HW156369   2.247   1.455   4.578 -0.5266  3.8907 -0.5216
18597SOL    HW256370   2.365   1.401   4.655 -2.7909  1.4089  1.3899
18598SOL     OW56371   2.693   4.686   2.266  0.0023 -0.1067  0.1549
18598SOL    HW156372   2.672   4.598   2.297  0.6865 -0.1027  0.6681
18598SOL    HW256373   2.658   4.744   2.333  1.1626 -0.0828  0.7819
18599SOL     OW56374   1.982   9.526   0.947 -0.3516 -0.0848  0.7242
18599SOL    HW156375   2.056   9.568   0.989 -0.3355 -0.7004  1.3294
18599SOL    HW256376   2.019   9.480   0.872 -0.2305  0.1885  0.6169
18600SOL     OW56377   0.571   7.929   2.740  0.3289 -0.7906  0.4290
18600SOL    HW156378   0.612   7.920   2.655  1.0202  2.3786  0.2965
18600SOL    HW256379   0.481   7.897   2.727  0.3040 -0.0283 -1.5935
18601SOL     OW56380   5.991   8.165   5.065  0.2840  0.3489  0.2052
18601SOL    HW156381   5.912   8.190   5.112  0.5016  1.4307  0.0164
18601SOL    HW256382   6.032   8.248   5.042  0.5727 -0.1617 -1.2206
18602SOL     OW56383   2.854   0.622   5.907  0.2312 -0.2490  0.0154
18602SOL    HW156384   2.937   0.638   5.861  0.4735  0.0792  0.5508
18602SOL    HW256385   2.869   0.543   5.959  0.6544  0.5098  1.1002
18603SOL     OW56386   6.575   9.177   4.201  0.1107 -0.2502  0.6144
18603SOL    HW156387   6.669   9.190   4.209  0.2815 -1.4000  0.7048
18603SOL    HW256388   6.566   9.085   4.177 -0.9288  0.2091 -0.8809
18604SOL     OW56389   0.230   8.887   9.268 -0.1782 -0.7251  0.0212
18604SOL    HW156390   0.208   8.796   9.285  1.3616 -0.6596  2.9045
18604SOL    HW256391   0.326   8.889   9.264 -0.1883  0.7488 -0.1737
18605SOL     OW56392   7.422   7.448   9.839  0.0896 -0.3033  0.5347
18605SOL    HW156393   7.366   7.409   9.906  0.4991 -0.8081  0.5883
18605SOL    HW256394   7.363   7.502   9.787 -0.1716  0.3504  1.4941
18606SOL     OW56395   6.178   8.884   3.974 -1.2020  0.4155 -0.2684
18606SOL    HW156396   6.133   8.804   4.002 -2.1114  1.2211  0.6337
18606SOL    HW256397   6.108   8.946   3.955 -0.5278  1.9315  1.8103
18607SOL     OW56398   4.469   3.851   9.697 -0.5069 -0.0163 -0.3767
18607SOL    HW156399   4.412   3.924   9.720  0.6199  1.4271 -1.9004
18607SOL    HW256400   4.493   3.811   9.781 -1.8232  0.8205  0.4297
18608SOL     OW56401   3.745   1.276   3.607 -0.0314 -0.6420  0.2298
18608SOL    HW156402   3.737   1.205   3.543  2.6770 -0.3501 -0.5452
18608SOL    HW256403   3.822   1.325   3.579 -0.8880  1.6753  1.6845
18609SOL     OW56404   2.115   5.080   0.464  0.1711  0.4496  0.4385
18609SOL    HW156405   2.039   5.039   0.423  1.7003 -0.9888 -1.1198
18609SOL    HW256406   2.083   5.111   0.549 -2.1138 -0.1572 -0.1414
18610SOL     OW56407   3.427   8.764   3.058  0.3312  0.1307 -0.2703
18610SOL    HW156408   3.419   8.701   2.986 -0.2773 -1.2765  0.9889
18610SOL    HW256409   3.337   8.782   3.084  0.5444 -1.4935  1.8729
18611SOL     OW56410   0.529   9.462   6.091  0.4546  0.0103  0.0975
18611SOL    HW156411   0.515   9.478   5.998  1.2222  0.0894 -0.0147
18611SOL    HW256412   0.602   9.520   6.115  0.6580 -0.4430  0.6018
18612SOL     OW56413   7.506   0.759   3.329  0.6270 -0.0593 -0.3719
18612SOL    HW156414   7.446   0.784   3.259  0.3110 -1.3386 -0.5853
18612SOL    HW256415   7.569   0.701   3.287  2.0384  1.2639 -0.1470
18613SOL     OW56416   0.548   9.600   8.522 -0.3202 -0.0323 -0.5328
18613SOL    HW156417   0.530   9.631   8.611  0.5291 -0.4088 -0.2228
18613SOL    HW256418   0.566   9.680   8.472 -0.5382  0.1591 -0.3066
18614SOL     OW56419   0.942   9.656   0.077 -0.0286  0.2726 -0.4081
18614SOL    HW156420   0.916   9.732   0.129  0.1243  0.1347 -0.1287
18614SOL    HW256421   1.027   9.631   0.112  0.6526  0.9189 -1.5352
18615SOL     OW56422   4.992   7.505   5.755  0.2104 -0.2583  0.0711
18615SOL    HW156423   5.023   7.485   5.844 -2.2013  0.8360  1.2621
18615SOL    HW256424   5.021   7.595   5.739 -1.6111  0.5303  0.9222
18616SOL     OW56425   6.085   8.399   4.968  0.0976 -0.1991 -0.3222
18616SOL    HW156426   6.145   8.423   4.897 -2.4587  1.4562 -2.1428
18616SOL    HW256427   6.068   8.481   5.014  0.3693 -0.9301  1.1119
18617SOL     OW56428   1.365   8.485   7.068 -0.0490 -0.2844 -0.1483
18617SOL    HW156429   1.379   8.499   6.974 -0.0030  2.0526  0.1483
18617SOL    HW256430   1.450   8.458   7.102 -0.0876 -1.2236 -0.7694
18618SOL     OW56431   2.609   6.571   8.578 -0.4473  0.0359  0.9538
18618SOL    HW156432   2.658   6.626   8.638 -1.2004 -0.5586  2.1465
18618SOL    HW256433   2.517   6.588   8.598 -0.7006 -1.6069  1.3372
18619SOL     OW56434   6.853   3.692   3.851 -0.1412 -0.2222 -0.2002
18619SOL    HW156435   6.882   3.679   3.942 -1.7475 -1.9024  0.1405
18619SOL    HW256436   6.896   3.622   3.803  1.2711  1.0922 -0.9251
18620SOL     OW56437   9.265   9.399   4.731 -0.2551  0.2991 -0.1456
18620SOL    HW156438   9.194   9.456   4.761  0.5932  1.0932  0.3962
18620SOL    HW256439   9.313   9.452   4.668  0.2737  0.0260  0.0190
18621SOL     OW56440   9.351   5.174   1.337  0.1520 -0.0158  0.7423
18621SOL    HW156441   9.292   5.101   1.353 -1.6947  1.3004  0.2246
18621SOL    HW256442   9.316   5.246   1.389  2.1076  0.4658  1.4806
18622SOL     OW56443   7.309   2.164   8.164  0.4659 -0.2874  0.0902
18622SOL    HW156444   7.218   2.155   8.192  0.8761 -0.4757  1.4785
18622SOL    HW256445   7.333   2.077   8.133 -0.1623  0.0593 -1.4294
18623SOL     OW56446   2.546   8.072   9.771 -0.2202 -0.3783  0.5103
18623SOL    HW156447   2.523   8.159   9.739  0.8520  0.0904  0.9702
18623SOL    HW256448   2.639   8.064   9.753  0.0012 -0.8543  1.7914
18624SOL     OW56449   4.966   3.904   5.535  0.3891 -0.5487  0.2650
18624SOL    HW156450   5.039   3.964   5.521  0.7883 -0.7051  1.6105
18624SOL    HW256451   4.926   3.895   5.448  0.8591  0.9499 -0.1397
18625SOL     OW56452   8.598   7.088   4.565  0.3715 -0.0331  0.6588
18625SOL    HW156453   8.622   7.158   4.626  0.8555  1.1757 -0.8781
18625SOL    HW256454   8.554   7.132   4.493 -2.1943 -1.6819  1.0987
18626SOL     OW56455   8.658   4.011   0.956  0.0408 -1.1105 -0.5556
18626SOL    HW156456   8.692   4.081   0.900 -0.3904  0.7102  1.3317
18626SOL    HW256457   8.720   4.007   1.030 -0.6617 -1.8051  0.0136
18627SOL     OW56458   4.360   1.037   6.600  0.2134 -0.3453  0.7967
18627SOL    HW156459   4.324   0.949   6.609  0.4046 -0.2550  2.6451
18627SOL    HW256460   4.400   1.056   6.684  2.0390  0.7159 -0.2512
18628SOL     OW56461   9.109   7.428   0.796  0.4429  0.5201  0.7129
18628SOL    HW156462   9.119   7.463   0.707 -0.7401 -0.3012  0.2321
18628SOL    HW256463   9.018   7.445   0.818  0.0867 -1.3377  0.8480
18629SOL     OW56464   8.553   6.327   1.360  0.0072  0.4904  0.4736
18629SOL    HW156465   8.488   6.378   1.409 -0.8258 -0.6485  0.5963
18629SOL    HW256466   8.523   6.236   1.368 -0.3111  0.2572 -2.3448
18630SOL     OW56467   0.524   5.105   5.633  0.6116 -0.2601  0.7608
18630SOL    HW156468   0.543   5.189   5.591  1.0992 -0.6004  0.2900
18630SOL    HW256469   0.439   5.118   5.674 -1.1476 -0.6748 -2.4298
18631SOL     OW56470   4.981   4.575   6.835 -0.2775  0.1209 -0.1507
18631SOL    HW156471   4.911   4.599   6.774  0.4690 -1.0115 -1.5124
18631SOL    HW256472   4.944   4.504   6.887  0.2760 -1.4859 -1.8510
18632SOL     OW56473   4.694   7.287   4.714  0.1940  0.3231 -0.3881
18632SOL    HW156474   4.610   7.326   4.688 -0.0609  0.7080  0.9182
18632SOL    HW256475   4.670   7.214   4.770  0.7128 -0.8410 -1.6349
18633SOL     OW56476   4.790   7.338   3.413 -0.7104 -0.1486 -0.1698
18633SOL    HW156477   4.764   7.249   3.436 -1.4388  0.2199  0.5018
18633SOL    HW256478   4.875   7.350   3.455  0.3537 -1.1744 -1.9056
18634SOL     OW56479   9.345   7.210   0.561 -0.5690  0.3711  0.5401
18634SOL    HW156480   9.291   7.198   0.483  1.6429 -0.2220 -1.0075
18634SOL    HW256481   9.332   7.130   0.612 -2.9348  1.2532  1.4731
18635SOL     OW56482   9.580   5.101   1.583 -0.1280 -0.2035  0.7980
18635SOL    HW156483   9.493   5.062   1.584 -0.1509 -0.1493  1.5530
18635SOL    HW256484   9.640   5.027   1.572 -0.3516 -0.0008 -3.0808
18636SOL     OW56485   8.899   5.837   7.601 -0.2798 -0.1804 -0.1331
18636SOL    HW156486   8.857   5.898   7.541  2.1539  1.2267 -0.5353
18636SOL    HW256487   8.856   5.753   7.583 -1.0612  0.6217 -2.3559
18637SOL     OW56488   9.527   5.654   9.790  0.1959  0.0391 -0.3810
18637SOL    HW156489   9.432   5.666   9.799  0.1171  0.9115 -1.9375
18637SOL    HW256490   9.565   5.718   9.850 -0.2190  0.6847 -0.7966
18638SOL     OW56491   3.853   8.280   3.756  0.2052  0.0261 -0.0795
18638SOL    HW156492   3.899   8.315   3.679 -1.1993 -0.3583 -1.1259
18638SOL    HW256493   3.880   8.188   3.760  0.2976  0.0523 -0.0846
18639SOL     OW56494   2.897   5.890   6.162  0.4180 -0.0269  0.2891
18639SOL    HW156495   2.860   5.977   6.147 -1.4783 -0.7621  0.3965
18639SOL    HW256496   2.899   5.882   6.258  0.4942 -0.1338  0.2782
18640SOL     OW56497   9.881   1.206   4.759  0.3838 -0.1330 -0.6320
18640SOL    HW156498   9.836   1.126   4.730 -0.1671 -0.0017 -0.1313
18640SOL    HW256499   9.831   1.237   4.834 -0.8972  2.0562 -2.2848
18641SOL     OW56500   4.573   4.808   3.044  0.2366 -0.2166 -0.4178
18641SOL    HW156501   4.622   4.888   3.062  0.4270 -0.5937  0.8308
18641SOL    HW256502   4.601   4.783   2.956 -0.0521  1.2383 -0.9565
18642SOL     OW56503   6.468   1.776   1.879 -0.3832 -0.4918 -0.3065
18642SOL    HW156504   6.542   1.718   1.900  0.2560  0.0734 -0.9547
18642SOL    HW256505   6.459   1.769   1.784  1.3093  2.3017 -0.7915
18643SOL     OW56506   2.885   3.331   2.156 -0.1490  0.7675 -0.5955
18643SOL    HW156507   2.802   3.340   2.203  0.5661  1.1010  0.6208
18643SOL    HW256508   2.950   3.371   2.213  1.0843 -0.7331 -0.8839
18644SOL     OW56509   0.965   4.918   0.509 -0.0738  0.2110 -0.1698
18644SOL    HW156510   0.995   5.000   0.470 -0.6539  0.5636  0.1159
18644SOL    HW256511   1.007   4.915   0.594 -1.4017  1.0696  0.5403
18645SOL     OW56512   8.936   9.879   7.814 -0.0759 -0.3102 -0.0861
18645SOL    HW156513   8.842   9.897   7.807  0.0623  0.4279 -0.1251
18645SOL    HW256514   8.943   9.820   7.889 -0.5734 -0.3801 -0.0894
18646SOL     OW56515   5.425   1.169   6.646 -0.3714  0.2083 -0.0540
18646SOL    HW156516   5.393   1.116   6.573 -1.0776 -0.8561  0.9805
18646SOL    HW256517   5.348   1.180   6.702  0.0571  1.3582  0.3401
18647SOL     OW56518   8.400   2.278   1.718 -0.2593  0.1205  0.5660
18647SOL    HW156519   8.479   2.328   1.735  0.6714 -1.5632  1.3532
18647SOL    HW256520   8.412   2.244   1.629 -1.8214  2.8581 -0.8280
18648SOL     OW56521   8.164   2.932   7.325  0.2373  0.5283  0.0710
18648SOL    HW156522   8.176   3.026   7.332  0.2931  0.5099  0.2218
18648SOL    HW256523   8.139   2.904   7.413 -0.0319  0.4390 -0.0324
18649SOL     OW56524   2.929   0.711   2.593  0.0427 -0.2963  0.1905
18649SOL    HW156525   2.957   0.762   2.669  2.2272  0.3393 -0.9315
18649SOL    HW256526   2.924   0.775   2.522 -0.9170 -1.0516 -0.4411
18650SOL     OW56527   3.660   4.044   7.629  0.9190 -0.1665  0.0699
18650SOL    HW156528   3.583   4.100   7.635  1.1203  0.6816 -3.1428
18650SOL    HW256529   3.734   4.104   7.635  1.1781 -0.3327 -1.1366
18651SOL     OW56530   3.901   9.180   0.387 -0.0746  0.2083  0.1163
18651SOL    HW156531   3.823   9.217   0.428  0.1223  0.4789  0.2465
18651SOL    HW256532   3.914   9.096   0.433 -0.1193  0.2968  0.2923
18652SOL     OW56533   7.359   4.910   1.644 -0.2420 -1.1733  0.1392
18652SOL    HW156534   7.278   4.954   1.670 -1.7983 -2.9771 -1.3217
18652SOL    HW256535   7.403   4.972   1.586 -0.9285 -0.4316  0.3976
18653SOL     OW56536   9.414   4.558   2.670  0.5499  0.2111 -0.1541
18653SOL    HW156537   9.396   4.564   2.576  1.1029  0.3984 -0.2472
18653SOL    HW256538   9.466   4.478   2.680 -0.9659 -0.7701  0.2186
18654SOL     OW56539   5.063   8.856   5.066  0.1945 -0.2358  0.2073
18654SOL    HW156540   5.121   8.898   5.130  0.7397 -0.8066  0.0974
18654SOL    HW256541   4.990   8.824   5.118 -0.6730  1.5737  0.1871
18655SOL     OW56542   5.213   2.607   2.167  0.0585 -0.6029 -0.1241
18655SOL    HW156543   5.149   2.624   2.236 -0.1775  0.6562 -0.6339
18655SOL    HW256544   5.219   2.689   2.119 -0.6440 -1.7748 -2.3382
18656SOL     OW56545   4.985   7.121   0.018  0.3087 -0.1692 -0.1540
18656SOL    HW156546   4.969   7.123   0.113 -0.5541 -0.4228 -0.2893
18656SOL    HW256547   5.010   7.030   0.001 -1.4067 -0.6199 -0.4484
18657SOL     OW56548   7.561   1.853   2.243  0.4417 -0.0531 -0.2432
18657SOL    HW156549   7.606   1.849   2.328  0.2664 -0.3625 -0.1621
18657SOL    HW256550   7.556   1.946   2.223  2.0714 -0.0361 -0.7685
18658SOL     OW56551   8.127   1.121   8.836  0.7013  0.0398  0.0311
18658SOL    HW156552   8.071   1.198   8.833 -0.1007 -0.5317 -0.0210
18658SOL    HW256553   8.194   1.137   8.770 -1.0701 -0.5051 -2.0054
18659SOL     OW56554   3.701   8.456   6.899  0.4317 -0.1739 -0.9610
18659SOL    HW156555   3.712   8.371   6.941  0.6487 -0.4191 -1.4990
18659SOL    HW256556   3.628   8.496   6.946 -0.6890 -1.2873 -1.6588
18660SOL     OW56557   6.205   5.639   6.421 -0.7338 -0.5166  0.0488
18660SOL    HW156558   6.145   5.582   6.375  0.3377 -1.4648 -0.2288
18660SOL    HW256559   6.198   5.614   6.513  1.8230 -3.2569 -0.3487
18661SOL     OW56560   4.989   4.915   8.679 -0.5681 -0.4123 -0.0873
18661SOL    HW156561   4.957   4.956   8.759 -1.5891  0.0698 -0.7271
18661SOL    HW256562   4.998   4.987   8.617  2.4617 -0.3972  0.2365
18662SOL     OW56563   5.797   5.449   2.275  0.1267 -0.3789  0.8263
18662SOL    HW156564   5.784   5.389   2.349 -2.5196  0.5112  1.2086
18662SOL    HW256565   5.712   5.492   2.264  1.2835  1.6908 -0.8536
18663SOL     OW56566   2.918   1.755   1.682  0.6529  0.0360  0.9510
18663SOL    HW156567   2.882   1.667   1.690  0.6111  0.1451  2.0837
18663SOL    HW256568   2.892   1.783   1.594  0.5797 -1.0329  0.6199
18664SOL     OW56569   2.223   9.120   4.570 -0.2549 -0.3768  0.7554
18664SOL    HW156570   2.136   9.159   4.559 -0.2229 -0.6209 -0.4616
18664SOL    HW256571   2.205   9.036   4.613 -0.5588 -0.1451  1.0861
18665SOL     OW56572   6.776   1.494   4.652  0.0747  0.3474  0.0807
18665SOL    HW156573   6.843   1.446   4.702 -0.8639 -0.5705  0.4843
18665SOL    HW256574   6.707   1.513   4.715 -0.7262 -0.0407 -0.6628
18666SOL     OW56575   7.168   1.152   1.847 -0.0722  0.6658 -0.5467
18666SOL    HW156576   7.151   1.204   1.767 -0.9668  1.8392  0.3658
18666SOL    HW256577   7.241   1.197   1.889  0.2846  0.1524 -0.6225
18667SOL     OW56578   9.613   1.010   2.480 -0.2040  0.0775  0.5997
18667SOL    HW156579   9.574   0.992   2.394 -0.7587  0.7629  0.7000
18667SOL    HW256580   9.707   1.017   2.463 -0.4749  2.0422 -0.2791
18668SOL     OW56581   1.499   5.453   3.393 -0.2205 -0.0247  0.3952
18668SOL    HW156582   1.547   5.516   3.447  0.6831 -0.8477  0.5619
18668SOL    HW256583   1.554   5.376   3.390 -0.5353 -0.2221 -1.2284
18669SOL     OW56584   2.093   2.957   2.987  0.2958 -0.3768 -0.0911
18669SOL    HW156585   2.154   3.028   3.008 -1.0290  0.4537  1.1948
18669SOL    HW256586   2.022   3.001   2.940  0.3038 -1.1827 -0.8652
18670SOL     OW56587   3.801   7.243   7.064 -0.3072 -0.0245  0.2938
18670SOL    HW156588   3.858   7.275   7.134  1.7138 -2.1097 -0.2750
18670SOL    HW256589   3.752   7.172   7.105 -0.7922  0.2284  0.1566
18671SOL     OW56590   0.765   3.116   5.138 -0.0218  0.0172  0.0047
18671SOL    HW156591   0.802   3.031   5.113 -1.2807 -1.1144  1.8543
18671SOL    HW256592   0.839   3.163   5.177  0.2395 -0.9617  0.7078
18672SOL     OW56593   8.899   6.567   4.001  0.1524 -0.4422  0.4833
18672SOL    HW156594   8.842   6.625   3.951  0.1998 -0.9772 -0.2052
18672SOL    HW256595   8.988   6.590   3.972  0.2372 -0.1671  0.9552
18673SOL     OW56596   0.470   9.077   9.594  0.4768 -0.1326  0.0995
18673SOL    HW156597   0.496   9.169   9.594  0.6527 -0.1722 -0.9228
18673SOL    HW256598   0.410   9.069   9.520  0.7571 -0.9215 -0.0495
18674SOL     OW56599   8.017   2.064   1.657 -0.5082 -0.2407 -0.1411
18674SOL    HW156600   7.932   2.059   1.700  0.1861  1.3592  1.5521
18674SOL    HW256601   8.080   2.069   1.729  0.8077  1.4312 -1.3306
18675SOL     OW56602   7.867   1.355   1.040  0.0517 -0.4038  0.0511
18675SOL    HW156603   7.894   1.419   1.106 -0.5148  0.6683 -0.7339
18675SOL    HW256604   7.917   1.276   1.062  2.1461  0.8180 -0.0105
18676SOL     OW56605   4.085   6.189   7.056  0.1069 -0.3162 -0.0441
18676SOL    HW156606   4.157   6.227   7.107 -1.0691  1.6182  0.2708
18676SOL    HW256607   4.006   6.210   7.107 -0.9005 -0.2519 -1.5608
18677SOL     OW56608   6.803   5.476   7.762 -0.4691  0.0689 -0.3720
18677SOL    HW156609   6.733   5.450   7.703 -0.8001 -1.8594  0.7937
18677SOL    HW256610   6.762   5.478   7.849  0.6900 -0.2007  0.2041
18678SOL     OW56611   8.825   5.828   5.598 -0.4268  0.0643 -0.5537
18678SOL    HW156612   8.804   5.775   5.521  2.0598  0.0221 -1.2970
18678SOL    HW256613   8.842   5.915   5.564 -1.1803  0.5427  0.2407
18679SOL     OW56614   1.110   1.023   4.196  0.2207  0.0104  0.0120
18679SOL    HW156615   1.148   1.059   4.277  0.6247 -0.8251  0.1982
18679SOL    HW256616   1.116   0.928   4.207  0.7758 -0.1096 -1.2415
18680SOL     OW56617   7.965   5.789   6.426  0.0159 -0.1587  0.4358
18680SOL    HW156618   7.920   5.867   6.395  0.1187  0.0111  0.7092
18680SOL    HW256619   8.058   5.812   6.424  0.0906 -0.4926 -0.0859
18681SOL     OW56620   2.500   5.264   2.451 -1.1200  0.3024 -0.6949
18681SOL    HW156621   2.530   5.216   2.374 -0.2803  1.1858 -0.9449
18681SOL    HW256622   2.546   5.348   2.446 -1.5852  0.6418  0.4000
18682SOL     OW56623   8.383   6.170   3.869  0.7727 -0.1632 -0.4526
18682SOL    HW156624   8.476   6.187   3.859  0.8362 -0.9917 -1.3548
18682SOL    HW256625   8.375   6.075   3.870  0.3397 -0.2445  3.6176
18683SOL     OW56626   1.016   4.848   6.647 -0.0613 -0.7977  0.4843
18683SOL    HW156627   0.977   4.909   6.585 -0.7075 -1.5578  0.1169
18683SOL    HW256628   1.062   4.903   6.710 -0.9284  0.0821  0.3729
18684SOL     OW56629   4.031   5.943   6.252  0.1804 -0.1915  0.0235
18684SOL    HW156630   4.036   5.892   6.171 -0.9531  0.0264 -0.1941
18684SOL    HW256631   4.087   6.019   6.235 -0.3778  0.0646 -0.7245
18685SOL     OW56632   3.884   1.188   2.339  0.1459  0.0723 -0.2035
18685SOL    HW156633   3.945   1.251   2.301 -0.8248  1.2393  0.0853
18685SOL    HW256634   3.829   1.161   2.265 -1.3573  1.8869  0.1829
18686SOL     OW56635   8.877   0.687   6.082 -0.3714  0.3122  0.5885
18686SOL    HW156636   8.876   0.704   6.176 -1.9709  0.4729  0.5624
18686SOL    HW256637   8.788   0.705   6.052 -0.3190 -1.2376 -0.6813
18687SOL     OW56638   8.613   2.055   1.377 -0.0406  0.0053  0.3027
18687SOL    HW156639   8.566   2.137   1.392 -0.8710 -0.6724  1.5009
18687SOL    HW256640   8.564   1.989   1.425 -0.4201 -1.5652 -2.0401
18688SOL     OW56641   1.868   9.291   7.418 -0.2241  0.2204  0.3014
18688SOL    HW156642   1.807   9.220   7.438 -0.7089  0.6489  0.3305
18688SOL    HW256643   1.904   9.268   7.332 -0.0988 -0.2502  0.4736
18689SOL     OW56644   8.894   9.636   9.452 -0.2700  0.3929 -0.4389
18689SOL    HW156645   8.843   9.566   9.411  0.9953 -0.8693  0.0672
18689SOL    HW256646   8.956   9.591   9.508  0.9720  1.9177 -0.5249
18690SOL     OW56647   9.805   6.758   8.734  0.3076  0.0486 -0.4478
18690SOL    HW156648   9.738   6.813   8.694 -1.6998 -2.3449 -0.6244
18690SOL    HW256649   9.858   6.726   8.661  0.1859  0.1079 -0.5614
18691SOL     OW56650   1.828   8.205   1.720  0.0642 -0.1964 -0.1360
18691SOL    HW156651   1.817   8.115   1.753 -1.3548  0.1227  0.3334
18691SOL    HW256652   1.865   8.253   1.795  1.4366 -0.5023 -0.5889
18692SOL     OW56653   6.327   1.411   8.163  0.2831  0.0023  0.6626
18692SOL    HW156654   6.378   1.469   8.107 -0.3475 -0.4149 -0.3641
18692SOL    HW256655   6.248   1.391   8.113 -0.7621  0.3704  2.0690
18693SOL     OW56656   0.481   1.393   7.230  0.2572 -0.1911  0.3078
18693SOL    HW156657   0.483   1.481   7.268  0.7100 -0.1498  0.1846
18693SOL    HW256658   0.519   1.337   7.298  3.2309  0.1966 -0.9165
18694SOL     OW56659   9.851   4.016   5.623 -0.4926  0.1362 -0.0430
18694SOL    HW156660   9.936   3.971   5.623 -0.5636  0.0025 -0.1339
18694SOL    HW256661   9.823   4.013   5.531  0.3032  1.8795 -0.3852
18695SOL     OW56662   6.847   5.858   8.925 -0.1112  0.1388  0.4837
18695SOL    HW156663   6.835   5.791   8.857  0.2565  1.8120 -1.3281
18695SOL    HW256664   6.779   5.840   8.990 -1.0342 -1.0059 -0.7522
18696SOL     OW56665   5.091   2.939   4.502 -0.0075  0.0544 -0.0046
18696SOL    HW156666   5.084   2.899   4.415 -0.2551 -0.4346  0.2375
18696SOL    HW256667   5.044   3.022   4.493  0.0494  0.0521 -0.3626
18697SOL     OW56668   7.136   5.862   9.517  0.1092  0.4216 -0.0127
18697SOL    HW156669   7.157   5.785   9.569 -1.5034 -0.1359 -0.1241
18697SOL    HW256670   7.066   5.833   9.458 -0.3782  1.9006 -0.2155
18698SOL     OW56671   6.145   1.383   3.963 -0.6090  0.1232  0.2603
18698SOL    HW156672   6.135   1.476   3.985  0.9374  0.0343  1.5931
18698SOL    HW256673   6.110   1.337   4.039  0.1034 -0.3236  0.3318
18699SOL     OW56674   5.862   2.291   0.928  0.2541  0.4980 -0.5525
18699SOL    HW156675   5.920   2.367   0.928 -0.9553  1.4629 -1.5781
18699SOL    HW256676   5.846   2.273   0.836 -1.7273  0.7905 -0.3101
18700SOL     OW56677   0.587   8.144   3.481 -0.1342 -0.0198 -0.3451
18700SOL    HW156678   0.650   8.100   3.424 -0.1286  1.6445 -1.7182
18700SOL    HW256679   0.621   8.130   3.570  1.1387 -0.7160 -0.9177
18701SOL     OW56680   7.788   7.095   6.003 -0.1582  0.3686  0.0411
18701SOL    HW156681   7.829   7.107   6.089 -0.3675  0.2743  0.1527
18701SOL    HW256682   7.806   7.177   5.956  0.6953  0.0951 -0.1328
18702SOL     OW56683   3.411   0.514   5.157  0.2705  0.2980  0.4760
18702SOL    HW156684   3.474   0.586   5.154 -0.3193  0.7923 -0.4941
18702SOL    HW256685   3.359   0.524   5.078 -0.1985 -0.8699  0.6130
18703SOL     OW56686   0.932   2.537   1.854 -0.2708 -0.3740 -0.1098
18703SOL    HW156687   0.996   2.597   1.817 -0.4807  1.0786  1.7317
18703SOL    HW256688   0.939   2.550   1.949 -2.6699 -0.7887  0.1802
18704SOL     OW56689   8.817   7.828   1.716 -0.1009 -0.0135 -0.6650
18704SOL    HW156690   8.732   7.788   1.735 -0.5222  0.4583 -1.5008
18704SOL    HW256691   8.878   7.784   1.775 -0.5121 -1.9874 -1.6435
18705SOL     OW56692   6.257   7.124   8.357 -0.5150  0.3566  0.0426
18705SOL    HW156693   6.262   7.206   8.307 -0.9080  0.3906  0.0578
18705SOL    HW256694   6.344   7.115   8.396 -0.6926  1.1749  0.6671
18706SOL     OW56695   0.227   1.688   3.566  0.2873 -0.1658  0.2443
18706SOL    HW156696   0.176   1.709   3.645 -0.2460 -0.1241 -0.1072
18706SOL    HW256697   0.201   1.754   3.502  0.3111 -0.5263 -0.1424
18707SOL     OW56698   3.917   3.065   6.130  0.1949  0.2613 -0.2996
18707SOL    HW156699   3.912   3.014   6.049  0.5669  0.6071 -0.5448
18707SOL    HW256700   3.878   3.149   6.107 -0.6522  0.0162  0.1723
18708SOL     OW56701   5.352   0.187   7.888 -0.3226  0.0910  0.2051
18708SOL    HW156702   5.442   0.169   7.862 -0.6844  0.3015 -1.2615
18708SOL    HW256703   5.304   0.108   7.867 -0.4640 -0.0757  1.1266
18709SOL     OW56704   5.496   9.909   3.564 -0.1016 -0.1278 -0.0894
18709SOL    HW156705   5.503   9.950   3.650  0.7238  0.3946 -0.3824
18709SOL    HW256706   5.577   9.935   3.520  0.5482 -2.2354 -0.2300
18710SOL     OW56707   5.325   7.241   4.527  0.3639  0.4233 -0.0793
18710SOL    HW156708   5.325   7.181   4.452  1.6256  0.1337  0.1287
18710SOL    HW256709   5.314   7.328   4.488  0.1366  0.2011 -0.5175
18711SOL     OW56710   2.284   9.820   1.459 -0.3547 -0.0921  0.0109
18711SOL    HW156711   2.360   9.864   1.420  1.0941 -1.2481  1.3778
18711SOL    HW256712   2.259   9.876   1.533 -1.0316  0.4264 -0.5976
18712SOL     OW56713   6.499   9.781   4.390 -0.2303 -0.6184  0.6647
18712SOL    HW156714   6.534   9.866   4.364 -1.2822 -0.4299 -0.2178
18712SOL    HW256715   6.414   9.800   4.429  0.0661 -1.1707  1.6120
18713SOL     OW56716   2.040   8.848   5.356 -0.2733  0.4788 -0.1315
18713SOL    HW156717   2.072   8.872   5.443  1.9747 -0.0292 -0.7625
18713SOL    HW256718   2.065   8.921   5.300 -1.8768  0.8886 -0.3726
18714SOL     OW56719   1.430   6.370   9.348 -0.4126  0.3184  0.1436
18714SOL    HW156720   1.476   6.448   9.377 -0.0474 -0.0411  0.5588
18714SOL    HW256721   1.426   6.314   9.426 -0.8434  0.0080 -0.0960
18715SOL     OW56722   8.443   7.308   9.062  0.1448 -0.0684 -0.0925
18715SOL    HW156723   8.498   7.344   8.993  0.1785  1.5456  0.7159
18715SOL    HW256724   8.486   7.335   9.143 -0.5556 -0.8625  0.5649
18716SOL     OW56725   4.928   4.939   9.668  0.3777 -0.5809 -0.8060
18716SOL    HW156726   4.883   4.863   9.706  0.8279 -0.4555  0.0033
18716SOL    HW256727   5.000   4.902   9.618  1.3015 -0.6819  0.5250
18717SOL     OW56728   2.490   9.001   9.306 -0.4578 -0.1664 -0.1943
18717SOL    HW156729   2.483   8.972   9.397  1.0534 -0.5519 -0.1732
18717SOL    HW256730   2.404   8.984   9.268 -1.0383 -0.2177  1.0954
18718SOL     OW56731   8.206   0.858   4.372  0.3786 -0.4177  0.1144
18718SOL    HW156732   8.301   0.852   4.369  0.3580 -1.1727  0.6820
18718SOL    HW256733   8.188   0.948   4.399  0.9145 -0.1608 -0.3645
18719SOL     OW56734   9.018   4.597   9.599  0.5471 -0.5599  0.1811
18719SOL    HW156735   8.986   4.675   9.555 -1.8374 -0.3817  2.0690
18719SOL    HW256736   8.998   4.525   9.539  0.1559 -0.0191 -0.3422
18720SOL     OW56737   5.987   2.545   7.223 -0.2665  0.2288 -0.3497
18720SOL    HW156738   6.000   2.552   7.129 -0.4045  1.7978 -0.2691
18720SOL    HW256739   6.006   2.453   7.243 -0.8250 -0.2816 -1.9842
18721SOL     OW56740   1.595   8.668   9.375 -0.0797  0.5897  0.0077
18721SOL    HW156741   1.585   8.755   9.335  1.3985  1.0521  0.5734
18721SOL    HW256742   1.680   8.637   9.343 -0.9915 -1.0868 -0.9303
18722SOL     OW56743   2.338   6.437   0.775 -0.1310  0.1694 -0.6404
18722SOL    HW156744   2.426   6.438   0.813  0.3017 -1.1413 -1.4877
18722SOL    HW256745   2.300   6.521   0.798  1.1363  0.5277  0.2494
18723SOL     OW56746   4.726   6.357   8.782 -0.0679 -0.0342  0.5540
18723SOL    HW156747   4.646   6.366   8.833  0.1163 -0.5825  0.9507
18723SOL    HW256748   4.708   6.284   8.723  0.4952 -0.8294  1.3480
18724SOL     OW56749   7.088   0.039   9.780 -0.3199 -0.6643 -0.3017
18724SOL    HW156750   7.042  -0.041   9.753  0.8959 -2.0308  1.4293
18724SOL    HW256751   7.177   0.010   9.797  0.5961  1.4314 -1.1845
18725SOL     OW56752   1.899   7.240   8.769  0.4794  0.3781  0.1134
18725SOL    HW156753   1.825   7.239   8.708  0.0126  0.2267  0.6720
18725SOL    HW256754   1.974   7.212   8.717  0.1814  0.7155 -0.5091
18726SOL     OW56755   6.623   0.413   5.595 -0.1994  0.2574  0.0647
18726SOL    HW156756   6.655   0.386   5.510 -0.9119 -0.7824  0.1138
18726SOL    HW256757   6.539   0.367   5.606 -0.5079  0.9887  0.9791
18727SOL     OW56758   4.935   8.760   5.676  0.4504  0.1408  0.4386
18727SOL    HW156759   4.987   8.741   5.754  1.5009  0.9525 -0.0408
18727SOL    HW256760   4.867   8.820   5.708  0.1510 -0.4502  0.9456
18728SOL     OW56761   8.380   0.085   0.155  0.2951 -0.1222 -0.2713
18728SOL    HW156762   8.435   0.007   0.166  2.1820  0.9295 -1.5622
18728SOL    HW256763   8.429   0.155   0.198  0.3490  0.9820 -2.0285
18729SOL     OW56764   4.097   9.045   4.386 -0.2087 -0.3310 -0.2648
18729SOL    HW156765   4.175   9.001   4.354  0.0767 -0.1040  0.1126
18729SOL    HW256766   4.038   9.049   4.311  0.5384  0.3949 -0.8297
18730SOL     OW56767   5.716   3.995   8.388 -0.1129 -0.4819  0.1662
18730SOL    HW156768   5.775   4.062   8.354  1.3618 -0.2357  2.9007
18730SOL    HW256769   5.753   3.912   8.358  0.1809 -0.2205 -0.1999
18731SOL     OW56770   4.209   6.386   6.791  0.5910  0.2738 -0.0136
18731SOL    HW156771   4.193   6.292   6.778  1.0119  0.3604 -1.3580
18731SOL    HW256772   4.122   6.423   6.806  0.2679 -0.1751 -0.6898
18732SOL     OW56773   9.074   1.289   2.430 -0.0993  0.1526  0.0404
18732SOL    HW156774   9.116   1.312   2.513  0.3901 -0.1917 -0.1027
18732SOL    HW256775   8.981   1.279   2.451  0.2787 -1.9529  1.0008
18733SOL     OW56776   7.801   2.491   1.870  0.3491  0.1198 -0.5070
18733SOL    HW156777   7.820   2.562   1.931  2.2168  0.3863 -1.3357
18733SOL    HW256778   7.769   2.420   1.925  0.1604  0.9879  0.5405
18734SOL     OW56779   7.947   5.347   9.414 -0.2412  0.1085 -0.1093
18734SOL    HW156780   8.022   5.302   9.377  1.6750  0.0772  3.3724
18734SOL    HW256781   7.981   5.432   9.443 -1.4993  0.1574  1.3982
18735SOL     OW56782   4.368   7.596   1.083  0.3543  0.1196  0.0875
18735SOL    HW156783   4.448   7.581   1.133 -0.8626  0.0056  2.1370
18735SOL    HW256784   4.303   7.539   1.124 -0.7544  0.0447 -1.6519
18736SOL     OW56785   6.890   5.252   5.762  0.2588 -0.1477  0.3038
18736SOL    HW156786   6.842   5.319   5.713 -2.3154 -1.3035  1.0986
18736SOL    HW256787   6.922   5.192   5.695 -0.5586 -0.0450 -0.1963
18737SOL     OW56788   8.171   4.337   4.468  0.5393 -0.2039  0.0351
18737SOL    HW156789   8.220   4.401   4.520  1.3527  0.4743 -1.4764
18737SOL    HW256790   8.085   4.378   4.455  0.9858  0.5137 -0.7447
18738SOL     OW56791   8.172   2.744   5.399  0.4353  0.3177 -0.1581
18738SOL    HW156792   8.233   2.699   5.340 -1.1729  0.6851 -2.2188
18738SOL    HW256793   8.217   2.825   5.423  1.2662  0.0152 -0.6542
18739SOL     OW56794   8.497   0.858   4.042 -0.0558 -0.4904 -0.4784
18739SOL    HW156795   8.424   0.848   3.981 -0.7849  0.7989  0.1524
18739SOL    HW256796   8.469   0.928   4.101  0.4724 -1.9376  1.5668
18740SOL     OW56797   2.921   0.484   1.142  0.5701  0.0606 -0.6559
18740SOL    HW156798   2.984   0.555   1.154  2.5785 -1.8051  0.5672
18740SOL    HW256799   2.875   0.478   1.226  0.9457 -0.5558 -0.4895
18741SOL     OW56800   0.287   4.307   0.103  0.0801 -0.1269 -0.4823
18741SOL    HW156801   0.270   4.236   0.041 -0.6833 -1.0971  0.7899
18741SOL    HW256802   0.283   4.265   0.189 -1.7897  1.7124  0.4048
18742SOL     OW56803   8.143   6.437   7.436 -0.1255 -0.5001  0.3048
18742SOL    HW156804   8.149   6.505   7.369 -0.6183  0.6041  1.3564
18742SOL    HW256805   8.234   6.422   7.463  0.2420 -1.8838 -1.4530
18743SOL     OW56806   7.006   5.342   4.185 -0.6604 -0.2560  0.4586
18743SOL    HW156807   7.024   5.268   4.127  1.1309 -0.1273  0.7921
18743SOL    HW256808   6.922   5.320   4.226  0.8894 -3.3963  2.3827
18744SOL     OW56809   6.233   0.995   7.229 -0.0976 -0.0185 -0.1001
18744SOL    HW156810   6.188   0.927   7.180 -0.4112  0.3716 -0.3613
18744SOL    HW256811   6.260   1.059   7.163  1.6141 -0.6530 -0.0702
18745SOL     OW56812   3.043   7.264   8.056  0.0687 -0.4696  0.2712
18745SOL    HW156813   2.995   7.184   8.035  0.7681 -0.8544  0.0808
18745SOL    HW256814   2.988   7.309   8.120 -0.6699 -0.7562 -0.1511
18746SOL     OW56815   8.459   6.215   2.521 -0.2674 -0.5080 -0.6835
18746SOL    HW156816   8.415   6.161   2.456 -0.5148  0.0337 -0.9736
18746SOL    HW256817   8.552   6.201   2.505 -0.3200 -1.8082  0.0642
18747SOL     OW56818   9.077   1.049   7.238  0.0690 -0.0503  0.1028
18747SOL    HW156819   9.044   1.015   7.155  0.1748 -1.1094  0.4734
18747SOL    HW256820   9.035   1.134   7.248 -0.3434 -0.1365 -0.7838
18748SOL     OW56821   4.853   9.544   6.426 -0.1136  0.1765 -0.2416
18748SOL    HW156822   4.911   9.468   6.426  1.3776  1.2667 -0.1355
18748SOL    HW256823   4.843   9.567   6.334 -0.4520 -0.0677 -0.2654
18749SOL     OW56824   9.442   8.941   1.254 -0.5568 -0.1419  0.3828
18749SOL    HW156825   9.373   8.995   1.217  0.2810  1.1282  0.6031
18749SOL    HW256826   9.405   8.906   1.335 -1.4253 -0.6622 -0.2318
18750SOL     OW56827   0.716   9.642   6.138  0.3002  0.9196  0.1145
18750SOL    HW156828   0.779   9.597   6.195 -0.7411  0.8162  1.2156
18750SOL    HW256829   0.754   9.634   6.051  0.9508 -0.6791  0.5053
18751SOL     OW56830   3.267   6.380   7.775 -0.5334 -1.4705  0.0172
18751SOL    HW156831   3.308   6.296   7.797 -0.0350 -0.9605  1.0781
18751SOL    HW256832   3.231   6.412   7.857  0.9138  0.2244  0.0488
18752SOL     OW56833   3.037   8.403   1.635  0.3541 -0.2315  0.1216
18752SOL    HW156834   3.080   8.445   1.560  0.5694  0.6383  0.7110
18752SOL    HW256835   3.043   8.468   1.705  0.5563 -1.1963  1.0293
18753SOL     OW56836   1.630   5.872   8.811  0.1188  0.1986 -0.0818
18753SOL    HW156837   1.677   5.889   8.730 -0.1587  1.5685  0.0210
18753SOL    HW256838   1.697   5.841   8.872  0.6138  0.6416 -0.3921
18754SOL     OW56839   6.701   5.767   9.142 -0.1707 -0.6538 -0.2611
18754SOL    HW156840   6.659   5.789   9.225 -2.4867  1.3831 -1.8391
18754SOL    HW256841   6.734   5.678   9.155  0.6203 -0.0024  3.1692
18755SOL     OW56842   2.415   9.861   3.544  0.2640  0.0510  1.0680
18755SOL    HW156843   2.396   9.854   3.451 -1.4198 -1.2751  1.4477
18755SOL    HW256844   2.509   9.877   3.549  0.1715  1.6519 -0.8752
18756SOL     OW56845   5.108   1.177   6.612  0.4959 -0.2133 -0.4015
18756SOL    HW156846   5.113   1.084   6.588 -2.6357 -1.0318  1.4319
18756SOL    HW256847   5.136   1.179   6.704 -1.4174  0.1989  0.2226
18757SOL     OW56848   5.439   3.527   9.953 -0.4932  0.2683 -0.1372
18757SOL    HW156849   5.358   3.481   9.934  0.3571 -0.4664 -2.2350
18757SOL    HW256850   5.494   3.462   9.998 -1.0309  0.7899  1.3599
18758SOL     OW56851   2.939   5.771   9.307 -0.1163  0.0850 -0.4149
18758SOL    HW156852   2.878   5.741   9.240  0.8731 -1.5404 -0.6552
18758SOL    HW256853   2.912   5.726   9.387  0.5322 -0.3922 -0.4505
18759SOL     OW56854   4.534   2.231   9.748  0.3725 -0.1788  0.3943
18759SOL    HW156855   4.550   2.205   9.839 -0.8570  0.1536  0.7261
18759SOL    HW256856   4.506   2.151   9.704 -0.7093 -0.0149  0.7450
18760SOL     OW56857   9.904   8.108   8.006  0.1787 -0.0665 -0.4211
18760SOL    HW156858   9.973   8.082   7.945 -0.4054 -1.0064 -0.6905
18760SOL    HW256859   9.843   8.159   7.952  0.2119  0.0184 -0.3786
18761SOL     OW56860   1.485   1.620   0.960 -0.1236 -0.1848 -0.1026
18761SOL    HW156861   1.455   1.664   0.880 -3.2008  0.6413  1.3308
18761SOL    HW256862   1.567   1.578   0.935 -0.5236  0.7033 -3.4521
18762SOL     OW56863   6.356   0.722   4.657 -0.6960  0.2806 -0.5695
18762SOL    HW156864   6.308   0.717   4.574 -1.5052  1.6952 -0.2107
18762SOL    HW256865   6.447   0.736   4.630 -0.9118  0.4876 -1.2183
18763SOL     OW56866   5.687   6.879   9.883  0.2364 -0.1310 -0.5475
18763SOL    HW156867   5.597   6.858   9.909 -0.7259  1.9393 -1.9357
18763SOL    HW256868   5.721   6.933   9.955 -0.2752  0.5449 -0.8029
18764SOL     OW56869   0.062   7.461   6.533  0.2078 -0.0232 -0.0852
18764SOL    HW156870   0.130   7.453   6.600  0.8796  1.1118 -0.5980
18764SOL    HW256871   0.070   7.381   6.481  0.3659 -0.4395  0.5676
18765SOL     OW56872   1.777   2.632   2.652 -0.1291  0.1469  0.1576
18765SOL    HW156873   1.755   2.674   2.569  1.3646 -0.1261 -0.4152
18765SOL    HW256874   1.834   2.695   2.696 -0.9060  0.2859  0.9799
18766SOL     OW56875   5.418   9.882   6.738 -0.1925  0.0719 -0.7211
18766SOL    HW156876   5.372   9.806   6.774 -1.0807  0.1675 -1.6235
18766SOL    HW256877   5.349   9.945   6.718  0.3667  0.4277 -1.6059
18767SOL     OW56878   9.392   1.135   3.497  0.1334 -0.3992  0.3035
18767SOL    HW156879   9.343   1.213   3.522 -1.4987 -1.2823  0.0286
18767SOL    HW256880   9.346   1.102   3.420  2.9576  0.3265 -1.8285
18768SOL     OW56881   7.834   8.943   2.833 -0.7529 -0.2126 -0.2482
18768SOL    HW156882   7.762   8.933   2.770 -0.4946  1.0611 -0.7833
18768SOL    HW256883   7.833   9.036   2.855 -1.7608 -0.8366  2.8091
18769SOL     OW56884   8.397   6.185   6.301  0.3790  0.2369 -0.4434
18769SOL    HW156885   8.470   6.225   6.254  0.9947 -0.2385  0.1021
18769SOL    HW256886   8.342   6.259   6.327 -0.1135  0.5128 -2.0973
18770SOL     OW56887   9.110   0.623   8.501 -0.0640 -0.4563  0.3117
18770SOL    HW156888   9.086   0.553   8.561 -0.8741  0.0517  0.6028
18770SOL    HW256889   9.056   0.608   8.423  1.5936 -1.6152 -0.6978
18771SOL     OW56890   9.193   2.279   3.340 -0.0115 -0.0810  0.5721
18771SOL    HW156891   9.236   2.289   3.425 -0.4306  1.4849  0.6275
18771SOL    HW256892   9.219   2.192   3.310  2.7137  0.5218  0.8928
18772SOL     OW56893   3.452   6.128   0.830  0.0591 -1.1651  0.3727
18772SOL    HW156894   3.399   6.111   0.753 -1.2831 -1.4462  1.3208
18772SOL    HW256895   3.542   6.109   0.802 -0.1588  0.3927 -1.5883
18773SOL     OW56896   8.754   4.440   3.123 -0.1724 -0.1531  0.2568
18773SOL    HW156897   8.825   4.388   3.159 -0.5546 -0.2221  0.9432
18773SOL    HW256898   8.788   4.474   3.041  0.9475  0.4730  0.9490
18774SOL     OW56899   3.252   8.081   7.893  0.0576 -0.5936  0.0722
18774SOL    HW156900   3.179   8.137   7.919  0.7772  1.9557 -2.8122
18774SOL    HW256901   3.217   7.992   7.898 -2.4263  0.3550  1.1254
18775SOL     OW56902   6.826   1.738   1.281 -0.5135  0.0484 -0.2874
18775SOL    HW156903   6.754   1.699   1.331 -0.0434  0.8396  1.0691
18775SOL    HW256904   6.898   1.676   1.289  0.6399  1.5403  2.9080
18776SOL     OW56905   5.985   1.482   8.513 -0.4475  0.4525  0.2178
18776SOL    HW156906   5.920   1.492   8.444  0.0281 -1.0565 -0.4757
18776SOL    HW256907   6.070   1.487   8.469 -0.1176  0.4542  0.8328
18777SOL     OW56908   5.021   3.793   8.596  0.3248 -0.4964 -0.5666
18777SOL    HW156909   4.971   3.712   8.611  0.7703 -0.6773 -0.0261
18777SOL    HW256910   5.088   3.792   8.665 -0.5181  1.0210  0.3191
18778SOL     OW56911   4.353   6.893   9.512  0.4416  0.8361 -0.4129
18778SOL    HW156912   4.420   6.912   9.577  1.1629  3.1184 -1.7083
18778SOL    HW256913   4.402   6.868   9.433 -0.3733 -0.7159 -0.4720
18779SOL     OW56914   9.885   1.244   0.294  0.5452 -0.0819  0.4125
18779SOL    HW156915   9.818   1.186   0.329  2.2125 -0.1710  3.8773
18779SOL    HW256916   9.846   1.331   0.298  0.1316 -0.2935  0.9901
18780SOL     OW56917   7.554   1.495   1.376  0.6497  0.9113  0.1690
18780SOL    HW156918   7.516   1.580   1.357 -0.3710  0.3982 -0.1828
18780SOL    HW256919   7.498   1.433   1.329  0.8286 -0.0143  1.1318
18781SOL     OW56920   1.244   7.652   8.441  0.3232  0.8726  0.4687
18781SOL    HW156921   1.199   7.589   8.384  0.0900  1.9355 -0.5833
18781SOL    HW256922   1.228   7.621   8.530 -1.6534  0.6582  0.0764
18782SOL     OW56923   1.652   7.765   3.563  0.0808  0.5299  0.5020
18782SOL    HW156924   1.657   7.683   3.515 -0.3157  0.2795  0.8829
18782SOL    HW256925   1.565   7.800   3.542 -0.5174 -0.0892  1.8287
18783SOL     OW56926   8.348   3.235   5.168  0.2474 -0.1041  0.0646
18783SOL    HW156927   8.324   3.285   5.091  1.8080  0.5599 -0.0356
18783SOL    HW256928   8.265   3.210   5.208 -0.5843 -0.3298 -1.7259
18784SOL     OW56929   5.931   3.835   5.094 -0.2705 -0.0167 -0.6590
18784SOL    HW156930   5.881   3.884   5.160 -2.1575  1.1611 -2.8093
18784SOL    HW256931   5.877   3.759   5.076 -0.1608  0.0750 -1.3786
18785SOL     OW56932   5.323   1.225   7.554 -0.4041 -0.1083  0.0565
18785SOL    HW156933   5.352   1.189   7.470 -0.3695  0.1246 -0.0323
18785SOL    HW256934   5.286   1.311   7.531 -0.2246  0.0345  0.3043
18786SOL     OW56935   5.056   7.314   2.046  0.1433 -0.1480  0.3215
18786SOL    HW156936   5.024   7.291   2.133 -1.6249  0.6455 -0.0629
18786SOL    HW256937   5.072   7.230   2.002 -4.7684 -0.8859 -0.5863
18787SOL     OW56938   2.655   7.451   7.182  0.6528  0.4063  0.0379
18787SOL    HW156939   2.613   7.532   7.154  1.8672  1.4062  1.0172
18787SOL    HW256940   2.720   7.478   7.246  2.8540 -1.0524 -1.4462
18788SOL     OW56941   1.244   4.158   3.284  0.0721  0.0907  0.1649
18788SOL    HW156942   1.193   4.093   3.332  1.5972  1.3123  3.7756
18788SOL    HW256943   1.179   4.222   3.254 -0.9463 -0.5242  0.9950
18789SOL     OW56944   8.655   7.988   3.835 -0.1120 -1.0070 -0.0552
18789SOL    HW156945   8.744   7.953   3.829 -0.4857 -2.3616  1.6192
18789SOL    HW256946   8.623   7.986   3.745  2.4150  2.0591 -1.1952
18790SOL     OW56947   2.515   1.172   7.793 -0.1876 -0.2251 -0.3178
18790SOL    HW156948   2.578   1.245   7.792 -0.1067 -0.2556  1.2361
18790SOL    HW256949   2.554   1.107   7.735  0.9664 -0.0312  0.2199
18791SOL     OW56950   6.627   3.082   9.911  0.3170  0.6072  0.8526
18791SOL    HW156951   6.580   2.999   9.909 -0.2771  0.8876  2.0073
18791SOL    HW256952   6.596   3.125   9.991  0.9722  1.7298  0.5265
18792SOL     OW56953   9.009   8.923   4.534 -0.1327  0.1177 -0.5894
18792SOL    HW156954   8.917   8.948   4.547  0.0463  0.7529 -0.5274
18792SOL    HW256955   9.056   9.006   4.529  0.3668 -0.1915 -1.1811
18793SOL     OW56956   4.091   3.018   4.060 -0.5065 -0.5332 -0.4199
18793SOL    HW156957   4.158   3.069   4.014 -1.9065 -0.3475 -2.3876
18793SOL    HW256958   4.077   3.065   4.142  1.5042 -0.4105 -0.0924
18794SOL     OW56959   4.967   2.058   9.855  0.4264 -0.2787  0.1860
18794SOL    HW156960   5.052   2.097   9.875 -0.2189  1.1386  0.3178
18794SOL    HW256961   4.932   2.112   9.784  0.1040 -1.5391 -0.6483
18795SOL     OW56962   9.204   9.218   6.959 -0.9264  0.0709  0.2424
18795SOL    HW156963   9.243   9.186   6.878 -2.6088 -0.4334 -0.4028
18795SOL    HW256964   9.139   9.152   6.982 -0.5892  0.2826  1.9405
18796SOL     OW56965   3.761   4.064   1.438 -0.1242  0.4032 -0.1050
18796SOL    HW156966   3.820   4.018   1.498  2.9061  0.4711 -2.7022
18796SOL    HW256967   3.811   4.141   1.411 -2.5485  1.9129 -0.5779
18797SOL     OW56968   1.885   0.025   9.384 -0.3061 -0.1448 -0.1729
18797SOL    HW156969   1.876   0.095   9.320 -0.3708  0.5823  0.6112
18797SOL    HW256970   1.973  -0.010   9.369 -0.4558 -0.2168 -0.8858
18798SOL     OW56971   6.607   8.420   9.982  0.8364  0.0261 -0.0117
18798SOL    HW156972   6.692   8.453  10.010  0.8978  0.6716 -0.9148
18798SOL    HW256973   6.584   8.474   9.907 -0.4796  0.0125  0.3595
18799SOL     OW56974   6.015   0.175   6.612  0.0889  0.3864  0.0034
18799SOL    HW156975   5.967   0.148   6.534 -0.4999  1.4809 -0.0357
18799SOL    HW256976   6.006   0.101   6.673 -0.5583  0.0568 -0.4807
18800SOL     OW56977   0.896   8.609   4.530  0.3306 -0.4627  0.0082
18800SOL    HW156978   0.885   8.666   4.606 -2.7955  0.7852 -1.1999
18800SOL    HW256979   0.927   8.667   4.461 -0.6341 -0.6892 -0.6359
18801SOL     OW56980  10.003   1.669   2.170  0.5296  0.0215 -0.1602
18801SOL    HW156981   9.927   1.675   2.112 -0.1826  1.8087  0.8521
18801SOL    HW256982   9.984   1.595   2.227  0.2191 -0.4056 -0.8100
18802SOL     OW56983   3.471   0.537   6.970 -0.0904  0.1262 -0.3885
18802SOL    HW156984   3.413   0.534   7.046 -0.2367  0.2605 -0.4949
18802SOL    HW256985   3.460   0.452   6.928 -0.3441  0.2185 -0.5087
18803SOL     OW56986   0.320   6.701   8.668  0.4096  0.0440  0.2056
18803SOL    HW156987   0.408   6.677   8.639  0.7142  1.7781 -0.4548
18803SOL    HW256988   0.267   6.699   8.588 -0.1077 -0.7269  0.5536
18804SOL     OW56989   5.452   0.297   4.359  0.0685 -0.4020  0.2479
18804SOL    HW156990   5.393   0.318   4.432 -0.2575 -1.1201  0.1981
18804SOL    HW256991   5.394   0.276   4.286  0.3257  2.6847 -1.0111
18805SOL     OW56992   1.670   2.494   7.953  0.5743 -0.4373  0.4800
18805SOL    HW156993   1.627   2.420   7.996 -1.6454  1.4797  1.7491
18805SOL    HW256994   1.633   2.497   7.865  1.3543 -1.3203  0.1000
18806SOL     OW56995   4.227   0.779   3.674 -0.2223  0.0490  0.2996
18806SOL    HW156996   4.171   0.735   3.611 -0.0532 -2.7872  1.9698
18806SOL    HW256997   4.299   0.816   3.622  0.2490 -2.7154 -1.1600
18807SOL     OW56998   2.163   4.529   5.511  0.2150  0.1333 -0.2395
18807SOL    HW156999   2.080   4.519   5.556 -0.3491  0.2085 -1.2387
18807SOL    HW257000   2.147   4.596   5.444  0.3312 -1.5982 -2.1076
18808SOL     OW57001   0.971   7.676   5.420 -0.1281 -0.5644  0.1323
18808SOL    HW157002   0.891   7.638   5.454  0.6914 -0.9015  1.7743
18808SOL    HW257003   1.023   7.698   5.497  1.4787 -0.6079 -0.8727
18809SOL     OW57004   9.314   9.746   0.507 -0.2575 -0.6760  0.0202
18809SOL    HW157005   9.292   9.655   0.527 -2.1538 -0.0026  1.2560
18809SOL    HW257006   9.293   9.757   0.414  1.0003 -1.7504 -0.4138
18810SOL     OW57007   4.520   0.689   0.504  0.3615  0.3548  0.6792
18810SOL    HW157008   4.455   0.619   0.510  1.3095 -0.7673 -1.2551
18810SOL    HW257009   4.602   0.649   0.533  0.8514  0.7244 -0.1626
18811SOL     OW57010   2.500   9.307   8.774 -0.2297 -0.2007  0.3349
18811SOL    HW157011   2.508   9.364   8.698  0.0234  0.6722  0.9989
18811SOL    HW257012   2.546   9.227   8.750 -0.3842 -0.0355 -0.5240
18812SOL     OW57013   6.192   1.278   9.166  0.3000 -0.6356 -0.4107
18812SOL    HW157014   6.234   1.217   9.106  0.3888 -0.4005 -0.5923
18812SOL    HW257015   6.148   1.342   9.108 -0.6445 -1.0989 -0.2287
18813SOL     OW57016   3.260   6.101   9.251 -0.2760  0.4891 -0.0709
18813SOL    HW157017   3.261   6.174   9.190  0.3510  0.6591  0.1374
18813SOL    HW257018   3.174   6.107   9.294 -0.7561  0.3057 -0.9930
18814SOL     OW57019   6.801   4.959   0.616 -0.1969 -0.3940  0.0939
18814SOL    HW157020   6.870   4.905   0.577  1.0436  0.9901  0.3004
18814SOL    HW257021   6.746   4.897   0.664  0.9890 -1.5110  0.0504
18815SOL     OW57022   5.969   7.870   9.061  0.4631 -0.4743 -0.3922
18815SOL    HW157023   5.881   7.863   9.025  0.0668  1.8674 -0.0241
18815SOL    HW257024   5.997   7.959   9.037  1.2486  0.1970  2.6860
18816SOL     OW57025   2.885   6.056   9.706 -0.0101  0.1576 -0.2509
18816SOL    HW157026   2.937   5.977   9.691 -0.3106 -0.2230  0.6853
18816SOL    HW257027   2.799   6.024   9.731  0.2636  0.7436  1.6212
18817SOL     OW57028   4.860   0.127   9.069  0.5500  0.4279  0.0220
18817SOL    HW157029   4.943   0.081   9.083  2.2860  2.7278 -1.7468
18817SOL    HW257030   4.855   0.139   8.975 -1.5999  0.7578  0.1377
18818SOL     OW57031   7.310   6.539   3.873  0.4114  0.6094 -0.5114
18818SOL    HW157032   7.243   6.474   3.895 -0.5277  0.8276 -2.5180
18818SOL    HW257033   7.319   6.592   3.952 -0.7670 -0.2796  0.2625
18819SOL     OW57034   0.529   7.939   1.390  0.2168 -0.0933  0.2192
18819SOL    HW157035   0.531   7.960   1.483 -0.6668 -0.6749  0.3780
18819SOL    HW257036   0.459   7.994   1.355 -0.1545 -0.6379  0.0996
18820SOL     OW57037   7.519   5.646   0.106 -0.2580  0.3199 -0.2649
18820SOL    HW157038   7.606   5.666   0.070 -0.6950  3.3855  0.1257
18820SOL    HW257039   7.465   5.720   0.079 -2.0855 -0.2138  1.7460
18821SOL     OW57040   5.478   4.732   4.372  0.4093  0.1516 -0.2077
18821SOL    HW157041   5.410   4.771   4.427  2.0714  0.8440  1.4932
18821SOL    HW257042   5.513   4.806   4.323 -1.0703 -0.4631 -2.3392
18822SOL     OW57043   6.281   1.990   2.503 -0.6470  0.1835  0.5209
18822SOL    HW157044   6.201   2.009   2.453 -1.2243 -1.2114  0.8715
18822SOL    HW257045   6.348   1.977   2.436 -0.8149  0.8893  0.2044
18823SOL     OW57046   9.087   4.462   2.340 -0.3189 -0.0404 -0.5975
18823SOL    HW157047   9.094   4.388   2.401  1.3068 -1.7097 -2.6347
18823SOL    HW257048   9.155   4.523   2.368  1.7475 -1.6741 -1.7069
18824SOL     OW57049   1.345   3.260   9.080  0.3734  0.0925 -0.4278
18824SOL    HW157050   1.396   3.330   9.122  0.6706  0.4464 -1.3644
18824SOL    HW257051   1.364   3.269   8.987  0.2907 -1.1489 -0.5724
18825SOL     OW57052   6.271   6.714   1.667 -0.2222  0.0873 -0.0735
18825SOL    HW157053   6.295   6.654   1.738 -1.1070  0.2322  0.3618
18825SOL    HW257054   6.194   6.673   1.627 -1.7089  1.5722  1.1057
18826SOL     OW57055   7.930   1.363   9.410 -0.2652  0.2742  0.8093
18826SOL    HW157056   7.995   1.407   9.463 -0.8431  2.6252 -0.2904
18826SOL    HW257057   7.846   1.387   9.449 -0.6516  1.2550 -0.5380
18827SOL     OW57058   1.861   1.061   3.728 -0.8133 -0.3518 -0.1782
18827SOL    HW157059   1.828   1.134   3.780 -0.3245 -0.6625  0.5968
18827SOL    HW257060   1.811   1.064   3.647 -1.5103  0.2200  0.2627
18828SOL     OW57061   0.411   1.930   1.902 -0.2195 -0.2294 -0.0509
18828SOL    HW157062   0.366   1.875   1.966 -0.2260 -0.1151  0.0453
18828SOL    HW257063   0.398   2.019   1.935 -1.2713 -0.0592 -0.8682
18829SOL     OW57064   6.075   3.653   4.466  0.3486 -0.0477  0.7471
18829SOL    HW157065   6.063   3.745   4.440  1.3046  0.1825  1.0648
18829SOL    HW257066   6.064   3.653   4.561 -1.1149 -0.5346  0.5957
18830SOL     OW57067   3.734   9.488   6.292  0.0780 -0.0155 -0.0995
18830SOL    HW157068   3.689   9.422   6.240  0.3370  0.2829 -0.7013
18830SOL    HW257069   3.807   9.441   6.332  1.4060  0.2818 -2.0296
18831SOL     OW57070   5.253   3.551   1.000  1.0356  0.0759 -0.0982
18831SOL    HW157071   5.230   3.579   1.089  0.9526  0.2519 -0.1762
18831SOL    HW257072   5.218   3.619   0.943  1.1716  0.0096 -0.2611
18832SOL     OW57073   8.997   9.605   0.581  0.6051  0.3485 -0.4804
18832SOL    HW157074   8.985   9.516   0.614  0.2850  0.4695 -0.2711
18832SOL    HW257075   9.090   9.608   0.556  0.3798 -0.3523 -1.4397
18833SOL     OW57076   0.610   5.506   3.504 -0.0322  0.4138  0.2586
18833SOL    HW157077   0.649   5.419   3.496 -1.5874 -0.3481  0.6307
18833SOL    HW257078   0.525   5.498   3.462 -0.3844  1.6415  0.7078
18834SOL     OW57079   2.795   4.667   9.565  0.5398  0.5322  0.2123
18834SOL    HW157080   2.802   4.572   9.564  0.5958  0.5192 -1.4888
18834SOL    HW257081   2.704   4.685   9.543  0.6427  0.8659  0.0431
18835SOL     OW57082   5.006   4.887   3.782  0.0666  0.2135 -0.0885
18835SOL    HW157083   4.983   4.801   3.817 -0.8752  0.1816 -0.7446
18835SOL    HW257084   5.099   4.897   3.802  0.7319 -1.8461 -1.7725
18836SOL     OW57085   6.307   3.455   4.449  0.2440  0.0774  0.0728
18836SOL    HW157086   6.272   3.417   4.529  0.9192 -0.3361  0.1853
18836SOL    HW257087   6.344   3.539   4.477  0.9896 -0.3203  0.3186
18837SOL     OW57088   4.695   7.119   3.921 -0.1273 -0.2078  0.5861
18837SOL    HW157089   4.626   7.185   3.911 -0.6758 -0.4839  2.1891
18837SOL    HW257090   4.649   7.036   3.925  0.3313 -0.4447  1.1523
18838SOL     OW57091   3.051   8.654   3.603 -0.0003 -0.0583  0.6120
18838SOL    HW157092   3.104   8.669   3.525 -1.1857 -0.9657 -0.4215
18838SOL    HW257093   3.032   8.560   3.602 -1.3608  0.1800  1.0797
18839SOL     OW57094   9.075   5.781   4.969 -0.1437  0.2051 -0.9320
18839SOL    HW157095   9.137   5.853   4.957 -0.6263  1.3662  2.4883
18839SOL    HW257096   9.128   5.702   4.959  1.7245  1.1511  0.7606
18840SOL     OW57097   4.678   6.934   6.085 -0.6710 -0.2418  0.4526
18840SOL    HW157098   4.705   6.901   6.000 -0.9679 -0.7291  0.5434
18840SOL    HW257099   4.730   6.885   6.149 -0.9505 -0.3787  0.5790
18841SOL     OW57100   7.855   9.903   4.353  0.1874  0.0763  0.2858
18841SOL    HW157101   7.824   9.982   4.309 -0.3396 -0.0691  0.3909
18841SOL    HW257102   7.815   9.906   4.440  0.1572 -0.3132  0.2868
18842SOL     OW57103   7.799   4.627   7.718 -0.1336 -0.2774  0.0774
18842SOL    HW157104   7.757   4.541   7.718 -0.5763 -0.0624 -0.0841
18842SOL    HW257105   7.868   4.619   7.783 -1.0328 -0.3448  1.0574
18843SOL     OW57106   0.821   4.393   2.357  0.1125  0.4038  0.2824
18843SOL    HW157107   0.746   4.414   2.301  1.8253  3.2643 -1.1907
18843SOL    HW257108   0.784   4.383   2.445 -1.9840  1.8200 -0.3753
18844SOL     OW57109   8.262   4.938   7.742  0.0544 -0.1011  0.1969
18844SOL    HW157110   8.245   4.894   7.826  2.8591 -0.8759  0.4663
18844SOL    HW257111   8.312   5.016   7.766 -0.2420  0.3739 -0.6877
18845SOL     OW57112   0.798   3.466   4.511 -0.0666  0.1583  0.1559
18845SOL    HW157113   0.764   3.548   4.547  1.4689 -0.4406  3.3386
18845SOL    HW257114   0.875   3.492   4.460 -0.3966  0.7843 -0.0324
18846SOL     OW57115   1.378   0.787   6.470 -0.6511 -0.5476 -0.3442
18846SOL    HW157116   1.350   0.757   6.384 -2.3630  0.3285 -0.1321
18846SOL    HW257117   1.473   0.777   6.469 -0.8064 -2.5539 -1.5529
18847SOL     OW57118   3.550   4.018   8.531  0.0547 -0.6749  0.1247
18847SOL    HW157119   3.488   3.957   8.570 -0.6662 -0.7508 -1.0786
18847SOL    HW257120   3.532   4.014   8.437  0.9032  0.3849 -0.1109
18848SOL     OW57121   7.140   8.129   9.941  0.1500 -0.7315 -0.4978
18848SOL    HW157122   7.049   8.148   9.964  0.0430 -0.6713 -0.9614
18848SOL    HW257123   7.178   8.094  10.022 -0.3836 -1.1203 -0.4109
18849SOL     OW57124   2.947   9.819   5.810  0.5117 -0.1335  0.0464
18849SOL    HW157125   3.023   9.818   5.753  0.5236  0.6290  0.0488
18849SOL    HW257126   2.965   9.887   5.875  0.1377 -0.4266  0.4675
18850SOL     OW57127   2.423   3.543   1.402  0.1517  0.1263 -0.2042
18850SOL    HW157128   2.352   3.495   1.360 -1.4072 -0.3268  2.6839
18850SOL    HW257129   2.456   3.602   1.334 -1.0847 -1.6134 -2.4634
18851SOL     OW57130   8.108   2.506   6.667 -0.0560  0.0373 -0.3999
18851SOL    HW157131   8.082   2.475   6.754  0.8796 -2.2439 -0.8441
18851SOL    HW257132   8.027   2.512   6.618 -0.5089  0.5736  0.3828
18852SOL     OW57133   1.035   6.353   6.295  0.4782 -0.2969 -0.0342
18852SOL    HW157134   1.085   6.283   6.336  0.6999 -0.8150 -1.1616
18852SOL    HW257135   0.946   6.340   6.325  0.3742 -1.5324 -0.8241
18853SOL     OW57136   4.438   1.160   0.575 -0.4965 -0.2287 -0.1565
18853SOL    HW157137   4.376   1.205   0.518 -2.6131 -0.9521  1.4526
18853SOL    HW257138   4.460   1.080   0.527 -1.3834 -0.3074 -0.4517
18854SOL     OW57139   5.631   2.877   4.778  1.0269  0.2488  0.2134
18854SOL    HW157140   5.690   2.947   4.805  1.6258  0.3476 -1.2717
18854SOL    HW257141   5.589   2.910   4.699  0.6109 -0.6978  0.0241
18855SOL     OW57142   7.402   5.962   1.179 -0.4076 -0.4888  0.2993
18855SOL    HW157143   7.358   6.043   1.206  1.6024  0.7567  0.0632
18855SOL    HW257144   7.469   5.948   1.245  0.1156 -1.2181 -0.3701
18856SOL     OW57145   9.572   3.698   4.462  0.1866 -0.5415  0.0179
18856SOL    HW157146   9.656   3.728   4.496  0.0878 -1.1448  0.8206
18856SOL    HW257147   9.508   3.761   4.495  0.0646 -1.2382  1.1603
18857SOL     OW57148   6.615   2.328   1.600 -0.2612  0.1779 -0.1059
18857SOL    HW157149   6.558   2.258   1.630  0.0643 -0.4306 -0.8598
18857SOL    HW257150   6.633   2.380   1.678 -0.6687 -0.4695  0.4276
18858SOL     OW57151   7.197   2.721   3.283  0.7259 -0.1866 -0.2451
18858SOL    HW157152   7.258   2.781   3.239  1.3087  0.4281  1.3387
18858SOL    HW257153   7.125   2.711   3.221  1.7396  0.2503 -1.5382
18859SOL     OW57154   3.200   9.411   0.393  0.3172 -0.9236  0.3882
18859SOL    HW157155   3.289   9.418   0.359 -0.7066  3.0259 -2.0198
18859SOL    HW257156   3.149   9.375   0.321 -0.4440 -0.9372  0.9197
18860SOL     OW57157   5.935   6.258   1.148 -0.2351  0.0511 -0.2292
18860SOL    HW157158   5.906   6.202   1.076  2.4604 -1.0011 -0.6290
18860SOL    HW257159   6.024   6.283   1.123  1.1051 -0.9832  3.0583
18861SOL     OW57160   3.760   1.098   2.098  0.1871 -0.2596 -0.3009
18861SOL    HW157161   3.843   1.112   2.053 -0.1618 -0.4007 -1.0041
18861SOL    HW257162   3.694   1.132   2.038 -0.2964 -0.5113  0.0775
18862SOL     OW57163   9.519   2.488   9.399  0.1841 -0.0584 -0.6725
18862SOL    HW157164   9.510   2.579   9.369 -2.0285  0.3572  0.9830
18862SOL    HW257165   9.432   2.450   9.387  0.1229 -0.8915  1.8064
18863SOL     OW57166   1.887   1.959   0.916  0.3344 -0.0218  0.4989
18863SOL    HW157167   1.951   1.892   0.891 -2.6548 -2.5882 -1.0107
18863SOL    HW257168   1.916   2.039   0.872  1.2378 -1.6774 -2.1294
18864SOL     OW57169   8.790   4.079   4.028 -0.1151  0.1622 -0.1364
18864SOL    HW157170   8.738   4.010   3.987 -2.0477  1.2245  0.4306
18864SOL    HW257171   8.803   4.144   3.959 -0.2108  0.2542 -0.0689
18865SOL     OW57172   5.961   4.199   6.176 -0.4357  0.0995  0.6043
18865SOL    HW157173   5.897   4.170   6.111 -0.4145 -0.4450  0.8194
18865SOL    HW257174   5.925   4.169   6.260  0.0449 -0.1034  0.7404
18866SOL     OW57175   6.612   1.928   8.933 -0.4421 -0.1430 -0.0753
18866SOL    HW157176   6.601   1.923   9.028 -0.6660 -0.2129 -0.1035
18866SOL    HW257177   6.703   1.956   8.920 -0.3317 -0.3898  0.1573
18867SOL     OW57178   1.964   6.914   5.558 -0.1314  0.1163 -0.7779
18867SOL    HW157179   1.963   6.908   5.653 -2.1474 -2.1223 -0.8636
18867SOL    HW257180   1.917   6.996   5.538  0.7991  0.8911  0.1071
18868SOL     OW57181   9.823   6.905   5.368  1.1255 -0.3769 -0.1094
18868SOL    HW157182   9.868   6.989   5.371  0.5648 -0.0297 -1.1498
18868SOL    HW257183   9.862   6.859   5.293  1.8659 -1.3138  0.8144
18869SOL     OW57184   9.101   5.029   1.838  0.5809  0.2482  0.0812
18869SOL    HW157185   9.013   4.992   1.826  0.2681  0.8786  0.3789
18869SOL    HW257186   9.155   4.983   1.774  0.4049 -1.3687  1.0319
18870SOL     OW57187   2.052   5.590   3.267 -0.5871  0.0510  0.1754
18870SOL    HW157188   2.006   5.547   3.339  2.3285  1.0285  2.8990
18870SOL    HW257189   2.071   5.678   3.300  0.5241  0.7034 -1.9986
18871SOL     OW57190   4.669   4.096   4.270  0.1218  0.7148  0.8127
18871SOL    HW157191   4.736   4.158   4.300  0.5324  0.7001 -0.0743
18871SOL    HW257192   4.706   4.010   4.289  0.7692  0.6794 -0.5029
18872SOL     OW57193   6.147   2.269   6.900 -0.5529 -0.5143 -0.2132
18872SOL    HW157194   6.225   2.325   6.907 -0.3464 -0.8278  0.0047
18872SOL    HW257195   6.174   2.196   6.845 -0.2753 -1.3243  0.9605
18873SOL     OW57196   2.431   5.622   7.622 -0.5739 -0.5246  0.4078
18873SOL    HW157197   2.478   5.544   7.594  0.6370 -0.5961  2.4152
18873SOL    HW257198   2.412   5.669   7.541 -2.2737 -3.3430 -0.9769
18874SOL     OW57199   5.096   9.489   3.253  0.5759  0.1131 -0.5994
18874SOL    HW157200   5.191   9.483   3.263  0.5087 -2.2449 -0.9662
18874SOL    HW257201   5.081   9.488   3.159  0.1694  0.1451 -0.5387
18875SOL     OW57202   2.140   5.370   5.435  0.1250  0.1557 -0.0036
18875SOL    HW157203   2.186   5.393   5.516  0.7335  0.4641 -0.4248
18875SOL    HW257204   2.144   5.274   5.432  1.8585  0.2126 -0.6371
18876SOL     OW57205   4.334   8.811   2.599  0.3527 -0.3827 -0.3733
18876SOL    HW157206   4.427   8.826   2.612  0.4080 -0.3021 -0.8649
18876SOL    HW257207   4.322   8.718   2.621  0.6800 -0.5812 -1.0035
18877SOL     OW57208   7.105   0.726   3.003 -0.4150 -0.1567  0.4087
18877SOL    HW157209   7.196   0.712   2.976  0.1463  0.9775  1.6526
18877SOL    HW257210   7.077   0.641   3.038  0.1748 -0.4897  0.0880
18878SOL     OW57211   1.057   1.444   2.883 -0.2996 -0.4431  0.4175
18878SOL    HW157212   1.140   1.428   2.928  0.0134  1.2276  0.4880
18878SOL    HW257213   1.067   1.399   2.798  0.7205 -0.1692  0.3781
18879SOL     OW57214   3.228   4.536   1.685  0.1456 -0.1257  0.6796
18879SOL    HW157215   3.140   4.526   1.720 -1.0974  1.4468 -1.7358
18879SOL    HW257216   3.224   4.498   1.597  1.4420  1.2456 -0.0234
18880SOL     OW57217   8.659   6.827   6.586  0.3142  0.2157  0.2399
18880SOL    HW157218   8.598   6.761   6.550 -0.6223  1.6860 -0.9857
18880SOL    HW257219   8.704   6.862   6.509  1.2658  0.5643  0.9496
18881SOL     OW57220   3.395   8.683   5.257 -0.6960 -0.2423 -0.3077
18881SOL    HW157221   3.438   8.757   5.300 -1.6712 -0.9754  2.1003
18881SOL    HW257222   3.464   8.616   5.252 -0.8442 -0.5586  1.2920
18882SOL     OW57223   9.688   6.476   7.777  0.2308  0.0174 -0.0043
18882SOL    HW157224   9.612   6.534   7.769 -0.9446 -1.4105  0.1209
18882SOL    HW257225   9.670   6.425   7.856  1.3687 -0.2849  0.0711
18883SOL     OW57226   0.283   9.643   9.268  0.0257  0.1913  0.7409
18883SOL    HW157227   0.289   9.724   9.318 -0.4538 -0.2971  1.6213
18883SOL    HW257228   0.369   9.603   9.277  0.2475  0.5784  0.3480
18884SOL     OW57229   1.246   3.930   7.152  0.5428 -0.1779 -0.1869
18884SOL    HW157230   1.172   3.973   7.109  0.3372 -0.1543  0.1835
18884SOL    HW257231   1.207   3.852   7.193  0.3532  0.7910  1.5606
18885SOL     OW57232   4.557   9.384   4.066  0.6093 -0.0283 -0.3469
18885SOL    HW157233   4.630   9.333   4.032  0.7335  0.3654 -0.6765
18885SOL    HW257234   4.581   9.475   4.049 -0.0689  0.0959 -0.6841
18886SOL     OW57235   2.884   0.471   9.577 -0.0434 -0.0946 -0.2371
18886SOL    HW157236   2.942   0.431   9.512 -0.9213 -0.3185 -0.8992
18886SOL    HW257237   2.799   0.474   9.535 -1.4356 -3.1854  1.9425
18887SOL     OW57238   1.888   4.095   5.028  0.5708  0.8353  0.6302
18887SOL    HW157239   1.937   4.171   4.995  0.8263  1.6462  2.7010
18887SOL    HW257240   1.950   4.051   5.087 -0.3657  0.4227  1.3292
18888SOL     OW57241   2.621   3.490   2.574  0.4430 -0.7498 -0.3509
18888SOL    HW157242   2.666   3.557   2.523  0.8855 -1.2412 -0.6247
18888SOL    HW257243   2.528   3.503   2.556  0.5010 -0.0391 -0.1784
18889SOL     OW57244   5.030   3.148   6.785  0.0393  0.0396  0.1741
18889SOL    HW157245   4.946   3.189   6.766 -0.3714  0.0194  1.8448
18889SOL    HW257246   5.062   3.192   6.863  1.1036 -0.6528  0.1507
18890SOL     OW57247   5.051   8.774   1.985  0.1258 -0.6847 -0.5402
18890SOL    HW157248   5.129   8.736   2.026  0.5731  0.4670 -0.2937
18890SOL    HW257249   4.978   8.740   2.037  0.6861  0.8569  1.3523
18891SOL     OW57250   0.740   0.156   8.281 -0.0818  0.2451 -0.1190
18891SOL    HW157251   0.833   0.146   8.261 -0.0224 -2.0981  0.9662
18891SOL    HW257252   0.695   0.103   8.214 -0.6292  1.1283 -0.4645
18892SOL     OW57253   9.344   8.709   4.453  0.2042 -0.7978  0.5405
18892SOL    HW157254   9.269   8.722   4.511  0.0850 -1.4005  0.5316
18892SOL    HW257255   9.409   8.772   4.482 -0.6029  0.2895  0.0338
18893SOL     OW57256   9.791   6.597   0.484 -0.3300  0.4274  0.4660
18893SOL    HW157257   9.805   6.690   0.464 -2.1885  0.8986  1.1009
18893SOL    HW257258   9.842   6.582   0.564 -1.3890  1.3964  1.3590
18894SOL     OW57259   0.959   0.449   0.992  0.2504 -0.5465  0.2714
18894SOL    HW157260   1.042   0.455   1.039  0.7081 -1.9749 -0.2915
18894SOL    HW257261   0.916   0.373   1.031 -0.0818 -0.7659 -0.5207
18895SOL     OW57262   4.824   2.084   8.982  0.1057  0.0101  0.1195
18895SOL    HW157263   4.770   2.026   9.035 -0.7986  0.0255 -0.7559
18895SOL    HW257264   4.816   2.170   9.025 -0.3880 -0.0362  0.1268
18896SOL     OW57265   4.869   7.279   0.720 -0.1166  0.1425 -0.8358
18896SOL    HW157266   4.808   7.215   0.757 -0.4975  0.5984 -0.6708
18896SOL    HW257267   4.820   7.320   0.648 -0.4268  1.3100  0.0079
18897SOL     OW57268   9.425   9.908   3.156  0.5701  0.3119  0.2057
18897SOL    HW157269   9.424   9.989   3.106 -0.0068 -0.1269 -0.5275
18897SOL    HW257270   9.339   9.868   3.138  0.4249  0.0581  1.4099
18898SOL     OW57271   1.000   4.610   0.477  0.5733 -0.7164 -0.1954
18898SOL    HW157272   1.077   4.642   0.430  2.7248 -0.7555  3.0172
18898SOL    HW257273   0.967   4.687   0.524  1.0739 -1.4870  1.4887
18899SOL     OW57274   0.146   5.001   7.749 -0.1262 -0.2646 -0.6713
18899SOL    HW157275   0.055   4.973   7.743  0.2070 -1.5204 -0.1705
18899SOL    HW257276   0.196   4.920   7.751  0.9517  0.3916  0.0547
18900SOL     OW57277   1.572   1.764   2.123  0.1427  0.0720  0.6861
18900SOL    HW157278   1.533   1.697   2.067  2.7407  1.5705 -3.4008
18900SOL    HW257279   1.509   1.836   2.123 -0.5781 -0.5390  1.1304
18901SOL     OW57280   2.134   7.152   7.009 -0.4299  0.3883  0.1937
18901SOL    HW157281   2.069   7.082   7.002 -1.1889  0.8307  2.1438
18901SOL    HW257282   2.207   7.122   6.954 -1.8322 -0.6039 -1.2137
18902SOL     OW57283   4.197   7.751   5.283  0.0735 -0.2254  0.5779
18902SOL    HW157284   4.261   7.741   5.354 -0.3225  1.0782  1.1436
18902SOL    HW257285   4.250   7.750   5.203  0.5253 -1.6897  0.8632
18903SOL     OW57286   8.272   3.751   4.883  0.1349  0.4562  0.0340
18903SOL    HW157287   8.285   3.807   4.959  1.8373  0.6934 -0.3870
18903SOL    HW257288   8.187   3.709   4.898  1.4451 -1.3356  3.2474
18904SOL     OW57289   4.319   6.975   8.838  0.0534  0.3492  0.0695
18904SOL    HW157290   4.345   6.967   8.746 -1.4770  0.9848 -0.4488
18904SOL    HW257291   4.354   7.060   8.865 -3.4131  2.4855 -1.4082
18905SOL     OW57292   8.063   0.322   8.412 -0.2040  0.2375 -0.9825
18905SOL    HW157293   8.136   0.313   8.350 -1.3193  2.4023 -2.7659
18905SOL    HW257294   7.990   0.279   8.368 -0.8230  1.1142 -0.8151
18906SOL     OW57295   3.955   3.537   1.235 -0.5323 -0.9128  0.1395
18906SOL    HW157296   3.960   3.579   1.321  0.1970  0.5622 -0.5988
18906SOL    HW257297   3.957   3.443   1.254  1.7570 -0.6297  1.6412
18907SOL     OW57298   1.080   0.523   6.245 -0.4000  0.1880 -0.3071
18907SOL    HW157299   1.032   0.462   6.189 -0.4295  0.8155 -0.9663
18907SOL    HW257300   1.018   0.545   6.314 -0.2514 -0.8453  0.1778
18908SOL     OW57301   4.025   4.627   8.208  0.2125  0.3196 -0.2991
18908SOL    HW157302   4.089   4.566   8.244 -0.0163  0.9188  1.2262
18908SOL    HW257303   4.073   4.678   8.143  0.6180 -0.9048 -0.9673
18909SOL     OW57304   6.963   1.514   9.792  0.1576  0.4984  0.0950
18909SOL    HW157305   6.953   1.597   9.840  1.9422  0.2305  1.0362
18909SOL    HW257306   6.891   1.460   9.823  0.2696  0.9397  1.1755
18910SOL     OW57307   8.717   0.958   8.607 -0.1750  0.1269 -0.0162
18910SOL    HW157308   8.643   0.897   8.601 -0.8606  0.9670 -0.3557
18910SOL    HW257309   8.794   0.903   8.595 -0.7914 -0.6408 -0.5891
18911SOL     OW57310   8.732   1.200   8.925 -1.0609 -0.1606  0.0198
18911SOL    HW157311   8.802   1.160   8.977 -0.2653 -1.6237 -2.0456
18911SOL    HW257312   8.759   1.291   8.914 -0.8291 -0.0440  1.4393
18912SOL     OW57313   8.502   4.030   7.543  0.3547  0.1155  0.7557
18912SOL    HW157314   8.553   3.950   7.532  0.1668  0.2391 -1.6761
18912SOL    HW257315   8.561   4.100   7.516  0.2202  0.7256  1.9846
18913SOL     OW57316   2.359   4.887   5.018  0.2717 -0.0539 -0.5320
18913SOL    HW157317   2.277   4.876   4.970  0.3852  0.6407 -0.8972
18913SOL    HW257318   2.387   4.798   5.039  0.3005 -0.3977 -1.9084
18914SOL     OW57319   5.376   8.997   8.365 -0.3591 -0.1199  0.0514
18914SOL    HW157320   5.385   8.907   8.396 -2.2487 -0.5192 -0.4858
18914SOL    HW257321   5.321   9.039   8.431 -0.4324  0.3477 -0.3064
18915SOL     OW57322   6.509   7.660   6.625 -0.0294  1.2837 -0.3692
18915SOL    HW157323   6.517   7.586   6.565 -1.8426  0.3629  0.4356
18915SOL    HW257324   6.584   7.716   6.605  0.9728 -0.3877 -1.5304
18916SOL     OW57325   4.917   7.417   8.007 -0.1533  0.0572 -0.0866
18916SOL    HW157326   4.990   7.469   7.973 -0.5225  0.0507 -0.9026
18916SOL    HW257327   4.951   7.328   8.012  0.3498  0.2856  0.9243
18917SOL     OW57328   6.299   9.875   3.048 -0.1049 -0.0446 -0.1328
18917SOL    HW157329   6.357   9.910   2.981 -0.5352 -1.8085 -1.5166
18917SOL    HW257330   6.346   9.800   3.084 -0.9867 -0.7595 -0.4248
18918SOL     OW57331   4.698   5.315   0.737 -0.3617 -0.3566 -0.5815
18918SOL    HW157332   4.762   5.299   0.806 -0.6304 -0.8552 -0.4433
18918SOL    HW257333   4.695   5.410   0.729  0.1474 -0.3149 -0.3579
18919SOL     OW57334   7.380   3.830   2.064  0.2306 -0.4199  0.3687
18919SOL    HW157335   7.313   3.885   2.104 -0.2385  0.2679 -1.2673
18919SOL    HW257336   7.398   3.872   1.980 -0.1962 -2.8027 -0.9921
18920SOL     OW57337   9.400   6.110   8.611 -0.0141 -0.4726  0.3821
18920SOL    HW157338   9.462   6.051   8.568  0.9822 -0.5351  1.8316
18920SOL    HW257339   9.422   6.104   8.704 -1.7222  0.0782  0.8580
18921SOL     OW57340   9.366   2.916   4.006  0.0738 -0.2758  0.6042
18921SOL    HW157341   9.382   2.839   3.952  0.1994 -0.0266  0.2843
18921SOL    HW257342   9.335   2.983   3.944 -1.3235 -0.4589  1.0612
18922SOL     OW57343   1.203   9.155   6.714 -0.5606  0.0282  0.2202
18922SOL    HW157344   1.274   9.095   6.737  0.1752  1.1665  0.9962
18922SOL    HW257345   1.222   9.235   6.763 -2.6177  0.2161  0.8040
18923SOL     OW57346   6.681   7.134   3.057 -0.1879 -0.0799 -0.2338
18923SOL    HW157347   6.631   7.149   2.977  0.6994 -2.3070 -1.2749
18923SOL    HW257348   6.652   7.048   3.088 -0.0263  0.4483  1.4791
18924SOL     OW57349   6.413   4.375   8.246 -0.0382  0.3270 -0.3004
18924SOL    HW157350   6.401   4.441   8.177  0.8373  0.0277 -0.7503
18924SOL    HW257351   6.502   4.389   8.277  0.6939 -1.5359 -1.3746
18925SOL     OW57352   1.114   2.023   0.361 -0.4576 -0.3215  0.1989
18925SOL    HW157353   1.162   2.104   0.350 -1.4643  0.3850  0.8577
18925SOL    HW257354   1.095   1.994   0.272  0.3675 -0.1316 -0.0447
18926SOL     OW57355   8.971   2.297   7.312 -0.6557  0.2233 -0.6537
18926SOL    HW157356   8.924   2.214   7.300  0.4438 -0.2751 -1.7297
18926SOL    HW257357   8.982   2.304   7.407 -0.5083 -1.0252 -0.5550
18927SOL     OW57358   5.290   6.609   0.914 -0.0470 -0.1800 -0.3436
18927SOL    HW157359   5.235   6.561   0.853 -2.9575  0.8937  1.2258
18927SOL    HW257360   5.300   6.696   0.875  2.5131 -0.9464 -1.6397
18928SOL     OW57361   5.089   7.514   7.802  0.0194  0.2156  0.0081
18928SOL    HW157362   5.110   7.601   7.836 -0.0488  0.7629 -1.2970
18928SOL    HW257363   5.174   7.477   7.778  0.2536 -0.8348  2.2011
18929SOL     OW57364   0.370   6.031   8.326  0.0869 -0.3726 -0.0834
18929SOL    HW157365   0.370   5.938   8.303 -0.1344 -0.2837 -0.4412
18929SOL    HW257366   0.393   6.076   8.245  0.8734 -0.1517  0.2543
18930SOL     OW57367   5.847   3.242   0.075  0.4504 -0.0831 -0.0572
18930SOL    HW157368   5.820   3.175   0.012 -0.0833  0.3981 -0.3523
18930SOL    HW257369   5.880   3.192   0.150 -3.0470 -0.8205  1.1599
18931SOL     OW57370   0.042   4.120   4.507 -0.0348  0.3097 -0.3964
18931SOL    HW157371   0.087   4.039   4.484  0.0637  0.1278  0.3910
18931SOL    HW257372   0.112   4.181   4.529 -0.1481  0.2035  0.2731
18932SOL     OW57373   9.504   6.347   8.361  0.5366  0.1878 -0.0719
18932SOL    HW157374   9.582   6.397   8.385  1.1839 -0.7454 -0.1591
18932SOL    HW257375   9.439   6.370   8.427 -0.0258  3.0061 -1.4496
18933SOL     OW57376   1.940   3.464   8.399 -0.0581 -0.4978  0.3574
18933SOL    HW157377   1.898   3.430   8.320 -0.2449 -0.5391  0.4737
18933SOL    HW257378   1.939   3.559   8.388  1.9298 -0.5709 -0.7188
18934SOL     OW57379   5.041   8.213   6.451  0.1774 -0.0554 -0.0544
18934SOL    HW157380   5.042   8.234   6.358  0.5188  1.9008  0.3602
18934SOL    HW257381   5.091   8.132   6.458  0.1204 -0.2404 -1.5628
18935SOL     OW57382   3.192   6.531   4.241  0.0967  0.4304 -0.3565
18935SOL    HW157383   3.098   6.533   4.224  0.2524  0.7755 -1.2029
18935SOL    HW257384   3.204   6.591   4.315 -0.3402  0.3895 -0.2463
18936SOL     OW57385   6.747   2.882   5.758  0.6272  0.5016  0.3309
18936SOL    HW157386   6.824   2.832   5.729  0.9043  0.3959  1.2212
18936SOL    HW257387   6.741   2.954   5.696 -0.7901 -1.5153 -2.0421
18937SOL     OW57388   4.656   9.881   1.340 -1.0196  0.2140 -0.5323
18937SOL    HW157389   4.701   9.876   1.424 -0.4314 -1.1529 -0.9051
18937SOL    HW257390   4.657   9.974   1.318 -0.8140  0.5410  0.7617
18938SOL     OW57391   8.377   4.783   0.960  0.1850 -0.3111  0.3486
18938SOL    HW157392   8.309   4.772   0.894  0.4747 -0.9109  0.1422
18938SOL    HW257393   8.409   4.872   0.947 -0.3348 -0.1377  0.2374
18939SOL     OW57394   8.521   9.145   1.215  0.1481 -0.6297 -0.7198
18939SOL    HW157395   8.516   9.103   1.301  1.9219 -2.1962 -1.3131
18939SOL    HW257396   8.600   9.199   1.220  2.6526 -3.7619 -2.4815
18940SOL     OW57397   8.197   9.329   4.006 -0.1496 -0.7542 -0.0152
18940SOL    HW157398   8.103   9.345   4.008 -0.0740 -0.3765  0.7688
18940SOL    HW257399   8.231   9.388   3.939 -0.5751 -1.4753 -0.8730
18941SOL     OW57400   4.580   5.946   8.488  0.1236 -0.6209 -0.1572
18941SOL    HW157401   4.486   5.965   8.492  0.3948  0.7149  0.8624
18941SOL    HW257402   4.589   5.881   8.418 -1.3431  0.5690 -1.5302
18942SOL     OW57403   3.941   4.942   1.526  0.0389 -0.4730  0.4010
18942SOL    HW157404   3.943   4.907   1.615  1.3443 -0.3469  0.4342
18942SOL    HW257405   3.934   4.864   1.470 -0.2635 -0.5819  0.5858
18943SOL     OW57406   2.289   2.895   8.100 -0.2103 -0.7785  0.2829
18943SOL    HW157407   2.314   2.811   8.063  1.5686 -0.8504  1.5280
18943SOL    HW257408   2.314   2.890   8.192 -0.9451  0.7743  0.6122
18944SOL     OW57409   3.809   4.066   0.592  0.1213 -0.2161 -0.0567
18944SOL    HW157410   3.730   4.033   0.549 -1.1902  1.1658  1.1868
18944SOL    HW257411   3.799   4.040   0.684 -1.5027  4.2268  1.2560
18945SOL     OW57412   9.776   1.295   8.011  0.1846  0.3128  0.2270
18945SOL    HW157413   9.704   1.343   7.971 -0.4595 -0.3882  0.5278
18945SOL    HW257414   9.737   1.215   8.044  0.6829  0.8098  2.2066
18946SOL     OW57415   0.391   9.420   5.254 -0.1092 -0.1544  0.0810
18946SOL    HW157416   0.428   9.389   5.336  0.0535 -0.7182 -0.1994
18946SOL    HW257417   0.299   9.394   5.258  0.1891 -1.3867 -0.4756
18947SOL     OW57418   1.169   4.711   0.289 -0.1519 -0.4339  0.3178
18947SOL    HW157419   1.235   4.676   0.230  1.6702  0.9107  1.4446
18947SOL    HW257420   1.203   4.797   0.316 -1.8920 -0.1056  1.7072
18948SOL     OW57421   6.690   7.015   2.185  0.5847 -0.1446 -0.4924
18948SOL    HW157422   6.641   6.933   2.192  0.1934 -0.1144 -2.4715
18948SOL    HW257423   6.623   7.082   2.174  0.9660 -0.1802 -3.9361
18949SOL     OW57424   5.468   3.846   3.176 -0.3509  0.2202 -0.2582
18949SOL    HW157425   5.544   3.900   3.157 -2.1823  2.5624 -1.3380
18949SOL    HW257426   5.453   3.796   3.096 -0.4019  0.3327 -0.3188
18950SOL     OW57427   1.763   8.744   7.383  0.1739 -0.5581  0.4378
18950SOL    HW157428   1.670   8.723   7.392  0.6256 -2.0654  2.6935
18950SOL    HW257429   1.795   8.684   7.315 -0.0471 -1.9798  1.5277
18951SOL     OW57430   8.507   4.953   5.201  0.0215  0.2607 -0.7826
18951SOL    HW157431   8.458   4.927   5.124 -1.5456 -0.3672  0.3872
18951SOL    HW257432   8.442   4.991   5.260  0.9572 -0.3749  0.7276
18952SOL     OW57433   2.968   9.630   2.070 -0.1227 -0.2315 -0.4317
18952SOL    HW157434   3.031   9.624   1.998  0.2142 -3.2764 -0.0148
18952SOL    HW257435   2.949   9.723   2.077  3.5023  0.7270 -1.2780
18953SOL     OW57436   3.304   9.361   1.137  0.0834  0.0542 -0.3619
18953SOL    HW157437   3.276   9.441   1.183  0.9465  0.0672  0.1560
18953SOL    HW257438   3.222   9.316   1.117 -0.3409 -0.0431  1.3565
18954SOL     OW57439   6.497   5.908   9.852 -0.4419 -0.1923  0.6078
18954SOL    HW157440   6.451   5.915   9.936 -0.5815  1.4207  0.4287
18954SOL    HW257441   6.578   5.860   9.874 -0.3547  0.4250  1.7191
18955SOL     OW57442   0.906   2.686   7.947 -0.5989 -0.0047 -0.1572
18955SOL    HW157443   0.990   2.657   7.984 -0.1914 -0.0943 -1.1210
18955SOL    HW257444   0.874   2.752   8.008 -1.0351 -1.7029  1.5374
18956SOL     OW57445   9.182   0.312   2.450 -0.1602  0.4100  0.3217
18956SOL    HW157446   9.230   0.255   2.389  0.6523  0.7708  0.6136
18956SOL    HW257447   9.106   0.341   2.400 -0.3985 -0.6478  0.0484
18957SOL     OW57448   6.866   0.131   5.324 -0.1040 -0.1340  0.2438
18957SOL    HW157449   6.897   0.043   5.347 -0.9983 -0.5024  0.0960
18957SOL    HW257450   6.825   0.120   5.239 -2.0918 -0.0343  1.1366
18958SOL     OW57451   5.452   1.601   9.486  0.3208 -0.7224 -0.1168
18958SOL    HW157452   5.515   1.557   9.429  0.8392  0.2286 -0.3150
18958SOL    HW257453   5.506   1.648   9.550 -0.2607 -3.3476  2.4995
18959SOL     OW57454   0.419   3.252   5.563 -0.0902  0.4587 -0.0047
18959SOL    HW157455   0.361   3.281   5.633 -0.6324 -0.8227  0.1193
18959SOL    HW257456   0.376   3.281   5.482 -1.0405 -0.6451  0.0766
18960SOL     OW57457   3.276   4.293   1.530 -0.2892 -0.4974  0.1222
18960SOL    HW157458   3.208   4.255   1.585  0.1675 -1.0225  0.3452
18960SOL    HW257459   3.352   4.235   1.543  0.7041  0.9505  1.1184
18961SOL     OW57460   9.370   2.124   3.786 -0.0772  0.2462  0.4850
18961SOL    HW157461   9.324   2.088   3.710 -0.0633 -0.8478  0.9721
18961SOL    HW257462   9.411   2.048   3.827  0.2693  0.8842  1.3469
18962SOL     OW57463   3.347   2.156   8.449 -0.1670  0.7716  0.1958
18962SOL    HW157464   3.421   2.122   8.501 -0.7148  0.1563  0.5899
18962SOL    HW257465   3.377   2.148   8.359  0.1815  0.3516  0.3406
18963SOL     OW57466   4.958   8.413   7.539  0.3307 -0.6946 -0.3287
18963SOL    HW157467   5.031   8.466   7.507 -0.5049  0.4727 -0.3954
18963SOL    HW257468   4.989   8.375   7.621  1.1056 -0.4309 -0.4942
18964SOL     OW57469   4.547   7.023   1.987  0.1216  0.0066  0.2638
18964SOL    HW157470   4.582   7.090   2.045 -0.5718  1.5119 -0.9706
18964SOL    HW257471   4.454   7.017   2.010 -0.6241  2.0056 -1.8316
18965SOL     OW57472   5.523   0.844   6.835 -0.1090 -0.7270 -0.3411
18965SOL    HW157473   5.459   0.773   6.823  1.5512 -2.2774 -0.4396
18965SOL    HW257474   5.480   0.905   6.895 -1.8084 -1.5161 -0.6845
18966SOL     OW57475   2.972   8.600   1.221  0.3381  0.5080  0.3508
18966SOL    HW157476   2.924   8.679   1.198  2.4771  1.0661 -2.9287
18966SOL    HW257477   2.935   8.532   1.165  0.6677  0.0173  0.7255
18967SOL     OW57478   2.780   0.502   3.151 -0.7010  0.0526  0.8135
18967SOL    HW157479   2.727   0.581   3.140 -0.7316  0.3934  3.0179
18967SOL    HW257480   2.729   0.446   3.209  0.2241 -0.6968  0.9337
18968SOL     OW57481   1.687   7.424   5.121  0.0818  0.4848  0.1829
18968SOL    HW157482   1.685   7.519   5.115 -3.3037  0.6747  2.0355
18968SOL    HW257483   1.706   7.405   5.213 -2.9404 -0.4158  0.7212
18969SOL     OW57484   9.615   3.894   9.602 -0.1485  0.5496 -0.4223
18969SOL    HW157485   9.689   3.863   9.551 -0.4194 -0.2343 -0.3499
18969SOL    HW257486   9.618   3.990   9.594  1.4666  0.5998  0.4181
18970SOL     OW57487   5.354   8.546   6.389  0.4158 -0.0171  0.0154
18970SOL    HW157488   5.324   8.475   6.332  1.3494 -2.1088  1.9745
18970SOL    HW257489   5.333   8.516   6.478 -0.2457  2.7400  0.9121
18971SOL     OW57490   7.683   0.503   5.026  0.0674 -0.1460 -0.4464
18971SOL    HW157491   7.745   0.496   4.954 -0.5048  0.8318 -1.0510
18971SOL    HW257492   7.615   0.439   5.006  0.8223 -1.1844  0.1925
18972SOL     OW57493   5.767   9.179   9.253  0.1675  0.0557  0.0797
18972SOL    HW157494   5.809   9.165   9.338 -0.3193 -0.1792  0.2892
18972SOL    HW257495   5.689   9.123   9.256 -0.6924  1.2049  0.0956
18973SOL     OW57496   2.423   3.570   0.238 -0.3402 -0.1895  0.5815
18973SOL    HW157497   2.348   3.511   0.228  0.1128 -0.5262 -1.1846
18973SOL    HW257498   2.493   3.514   0.272 -0.3478 -0.3110  0.3966
18974SOL     OW57499   1.898   2.674   1.604 -0.2681 -0.1310 -0.2041
18974SOL    HW157500   1.855   2.589   1.612 -0.3955 -0.0634 -0.1674
18974SOL    HW257501   1.871   2.722   1.682  0.2030 -0.2343  0.0306
18975SOL     OW57502   7.328   7.192   0.105 -0.6459 -0.4750 -0.8998
18975SOL    HW157503   7.424   7.196   0.105 -0.5944 -1.3712 -0.3171
18975SOL    HW257504   7.307   7.147   0.023 -0.6843  1.3702 -1.9524
18976SOL     OW57505   3.405   7.335   6.577  0.7006 -0.0225 -0.0086
18976SOL    HW157506   3.431   7.425   6.557 -0.2280  0.3060  0.1914
18976SOL    HW257507   3.354   7.308   6.500 -1.6657  0.7438  1.1769
18977SOL     OW57508   8.269   3.914   5.716  0.8646  0.1799  0.1575
18977SOL    HW157509   8.293   3.822   5.705 -2.6598 -0.8996  0.3486
18977SOL    HW257510   8.284   3.953   5.629  1.0750 -0.9173 -0.3183
18978SOL     OW57511   2.289   8.220   4.622  0.1931 -0.4617  0.0903
18978SOL    HW157512   2.370   8.271   4.615  1.6348 -2.5238  0.4815
18978SOL    HW257513   2.312   8.135   4.583 -1.4306 -1.4971  1.2686
18979SOL     OW57514   0.312   5.879   8.988 -0.2204 -0.0190 -0.1406
18979SOL    HW157515   0.407   5.883   8.976 -0.1138  0.8433  0.8879
18979SOL    HW257516   0.299   5.866   9.082 -1.1231 -1.0605 -0.3765
18980SOL     OW57517   7.145   6.209   6.331  0.2466  0.1227 -0.4894
18980SOL    HW157518   7.225   6.252   6.303  0.1906 -0.5772 -1.8024
18980SOL    HW257519   7.169   6.117   6.343 -0.2536 -0.0097 -0.4525
18981SOL     OW57520   2.972   1.482   4.715  0.2735 -0.1947  0.3967
18981SOL    HW157521   2.976   1.576   4.697  1.1657 -0.2871  0.0520
18981SOL    HW257522   3.008   1.472   4.803  0.7809 -0.2765  0.1817
18982SOL     OW57523   0.487   3.847   0.650  0.2210 -0.3118 -0.1983
18982SOL    HW157524   0.487   3.886   0.737 -1.6739  0.1368 -0.3551
18982SOL    HW257525   0.449   3.914   0.593  1.0970 -0.7231 -1.3237
18983SOL     OW57526   2.918   0.892   0.975 -0.4937 -0.4114 -0.3087
18983SOL    HW157527   2.891   0.980   0.950  1.3091 -0.6895 -3.8661
18983SOL    HW257528   2.846   0.836   0.946 -0.7373 -0.3216  0.1009
18984SOL     OW57529   4.770   7.641   9.208  0.0040  0.0922  0.6041
18984SOL    HW157530   4.811   7.555   9.192  1.3386  1.0788 -1.9805
18984SOL    HW257531   4.794   7.693   9.131 -0.0058  3.0950  2.4716
18985SOL     OW57532   0.791   5.741   5.787 -0.1937 -0.4210  0.2272
18985SOL    HW157533   0.748   5.825   5.774  0.4698  0.0429  0.9479
18985SOL    HW257534   0.872   5.762   5.834  0.1237 -1.4285  0.1654
18986SOL     OW57535   7.503   2.765   2.221 -0.3866 -0.1516 -0.2482
18986SOL    HW157536   7.560   2.805   2.155 -2.6369  0.7060 -1.8148
18986SOL    HW257537   7.481   2.679   2.185  1.7496 -1.5655  1.5276
18987SOL     OW57538   3.432   7.570   5.293 -0.2937 -0.1364  0.1338
18987SOL    HW157539   3.516   7.524   5.287 -0.9967 -1.3576 -0.5127
18987SOL    HW257540   3.389   7.531   5.369 -1.1552 -0.9915 -0.7863
18988SOL     OW57541   5.868   2.329   9.828  0.4869  0.1336  0.7169
18988SOL    HW157542   5.916   2.361   9.905  1.2950 -2.9911  1.6879
18988SOL    HW257543   5.777   2.323   9.857  0.8602 -1.4950  1.7143
18989SOL     OW57544   9.714   8.910   9.972 -0.2052  0.4750  0.2067
18989SOL    HW157545   9.720   8.976   9.903  2.1588  0.2713  0.1242
18989SOL    HW257546   9.801   8.870   9.974 -0.0807  0.6554  3.4529
18990SOL     OW57547   9.569   0.326   9.404  0.3544 -0.0116 -0.0983
18990SOL    HW157548   9.650   0.276   9.417  0.0867 -0.2889  0.5127
18990SOL    HW257549   9.540   0.350   9.492 -0.4230 -0.2255 -0.2839
18991SOL     OW57550   9.310   6.428   0.172  0.0108  0.0009  0.2250
18991SOL    HW157551   9.406   6.437   0.170 -0.0220  0.7424  1.0879
18991SOL    HW257552   9.293   6.343   0.133  1.0504 -0.2802  0.3425
18992SOL     OW57553   8.932   2.341   1.860  0.0101  0.5990  0.4082
18992SOL    HW157554   8.855   2.312   1.909  0.1081  0.1424  0.2975
18992SOL    HW257555   8.903   2.341   1.768  0.5525 -0.9942  0.2034
18993SOL     OW57556   8.700   9.448   8.261  0.5114  0.0611  0.3852
18993SOL    HW157557   8.778   9.503   8.258  0.4568  0.2077  1.2265
18993SOL    HW257558   8.693   9.410   8.174  0.9289  0.8696 -0.0085
18994SOL     OW57559   0.696   1.039   3.287  0.2286 -0.2410  0.0826
18994SOL    HW157560   0.697   1.098   3.212  1.2710 -1.9761 -1.3439
18994SOL    HW257561   0.616   1.062   3.334 -1.4537 -0.2660 -2.5576
18995SOL     OW57562   1.297   0.766   8.410 -0.2544 -0.2149  0.3937
18995SOL    HW157563   1.304   0.738   8.319 -1.2310  0.6899  0.0169
18995SOL    HW257564   1.271   0.688   8.458 -2.2246 -0.1679 -0.5094
18996SOL     OW57565   2.157   2.025   9.152 -0.3101  0.1238 -0.2643
18996SOL    HW157566   2.124   1.993   9.068 -0.4228 -1.8495  0.4818
18996SOL    HW257567   2.087   2.004   9.214  0.7200 -0.5847  0.6898
18997SOL     OW57568   6.503   4.881   8.465 -0.0368 -0.2775  0.0359
18997SOL    HW157569   6.575   4.832   8.426 -0.5912  0.5164 -2.1888
18997SOL    HW257570   6.514   4.970   8.431 -0.4365  0.5874  2.0050
18998SOL     OW57571   4.083   1.753   5.104 -0.1182  0.3017 -0.1998
18998SOL    HW157572   4.021   1.757   5.176 -0.1666  0.8883 -0.2706
18998SOL    HW257573   4.028   1.760   5.025 -0.0392 -0.0351 -0.2849
18999SOL     OW57574   9.714   8.841   4.793  0.1778  0.8584 -0.1085
18999SOL    HW157575   9.654   8.828   4.866 -1.9315 -0.0916 -1.9081
18999SOL    HW257576   9.747   8.753   4.773  0.1748  1.0004 -0.7533
19000SOL     OW57577   2.414   1.745   5.624 -0.3875 -0.7730  0.2453
19000SOL    HW157578   2.475   1.799   5.674  0.7079 -1.7786  0.0417
19000SOL    HW257579   2.464   1.665   5.604 -1.2001 -0.9192 -1.3777
19001SOL     OW57580   8.015   9.453   4.417 -0.8399  0.1038  0.1705
19001SOL    HW157581   8.103   9.465   4.452 -0.3653  0.7112 -1.1705
19001SOL    HW257582   7.983   9.542   4.399 -1.3896 -0.1460 -0.1387
19002SOL     OW57583   1.352   0.951   7.480 -0.0224 -0.2293 -0.1255
19002SOL    HW157584   1.390   0.866   7.456  1.2835  0.1197  0.6112
19002SOL    HW257585   1.355   1.002   7.399  0.8518 -0.2956 -0.1397
19003SOL     OW57586   5.100   3.002   9.082  0.1877 -0.3367  0.7380
19003SOL    HW157587   5.169   3.062   9.110  0.9764 -1.5315  1.4429
19003SOL    HW257588   5.143   2.940   9.024 -0.8318  0.3351 -0.8055
19004SOL     OW57589   6.967   0.455   7.400 -1.3519  0.1536  0.1395
19004SOL    HW157590   6.965   0.417   7.488  0.0149  0.6592  0.4039
19004SOL    HW257591   6.909   0.398   7.349 -3.1945  0.5865  1.6207
19005SOL     OW57592   6.526   3.374   0.327  0.6998 -0.1606 -0.4310
19005SOL    HW157593   6.507   3.454   0.278  0.1205 -0.4369 -0.6751
19005SOL    HW257594   6.459   3.372   0.395 -0.8983 -1.6849 -1.9299
19006SOL     OW57595   7.376   2.368   6.486  0.3417 -0.0706 -1.0202
19006SOL    HW157596   7.443   2.305   6.515  0.4493  0.1742 -0.7258
19006SOL    HW257597   7.413   2.454   6.509 -0.4256  0.0292 -0.1123
19007SOL     OW57598   4.340   8.624   9.065  0.2092 -0.2572 -0.0575
19007SOL    HW157599   4.422   8.600   9.107 -1.1813 -0.1954  2.8841
19007SOL    HW257600   4.356   8.607   8.972  2.6372 -2.8338  0.6738
19008SOL     OW57601   7.084   6.502   6.169  0.0710 -0.0088  0.4361
19008SOL    HW157602   7.006   6.487   6.221  0.1183  0.4704  0.6515
19008SOL    HW257603   7.067   6.459   6.086  0.2245 -1.2730  1.0435
19009SOL     OW57604   8.388   6.968   7.657  0.0588  0.3933  0.1593
19009SOL    HW157605   8.472   6.973   7.610  1.0991 -1.3248  1.6687
19009SOL    HW257606   8.360   7.059   7.666  2.3831  1.1432  0.5999
19010SOL     OW57607   5.908   2.602   6.043 -0.1349  0.1366 -0.3703
19010SOL    HW157608   5.943   2.605   6.132  0.6513 -2.4957 -0.5045
19010SOL    HW257609   5.975   2.645   5.989  0.3019  0.0354  0.0819
19011SOL     OW57610   6.079   7.753   5.269 -0.2091 -0.4576  0.5368
19011SOL    HW157611   5.988   7.757   5.241  0.3934  0.7073 -1.4523
19011SOL    HW257612   6.120   7.829   5.228  0.9905  1.0663  4.1201
19012SOL     OW57613   6.030   2.769   2.354 -0.1230 -0.0005  0.1461
19012SOL    HW157614   6.002   2.692   2.305  1.8866  1.0595 -2.9284
19012SOL    HW257615   5.989   2.843   2.309 -1.5317  0.8728  2.6679
19013SOL     OW57616   0.219   1.925   5.360  0.0077 -0.8415  0.0337
19013SOL    HW157617   0.219   1.834   5.390 -0.6380 -0.7932  0.1916
19013SOL    HW257618   0.226   1.977   5.440  2.2388 -0.7564 -0.1499
19014SOL     OW57619   8.092   0.469   2.819 -0.0152 -0.9058  0.6416
19014SOL    HW157620   8.006   0.508   2.806  0.5011 -0.3244 -1.4428
19014SOL    HW257621   8.154   0.540   2.803  0.8641 -1.5921  0.9208
19015SOL     OW57622   6.854   7.757   7.871 -0.0041  0.0950  0.2376
19015SOL    HW157623   6.891   7.845   7.866  3.4290 -1.1740  0.5022
19015SOL    HW257624   6.828   7.737   7.781  0.1439  0.9972 -0.0164
19016SOL     OW57625   8.609   4.636   0.152  0.3416 -0.1927  0.1161
19016SOL    HW157626   8.705   4.637   0.147  0.3794 -1.8232  0.1535
19016SOL    HW257627   8.581   4.633   0.060  0.3460 -0.6797  0.1317
19017SOL     OW57628   5.035   1.796   9.818 -0.2789 -0.0857  0.6171
19017SOL    HW157629   5.031   1.725   9.882  0.9130 -0.9723 -0.2402
19017SOL    HW257630   5.025   1.876   9.870  1.1880 -0.7477  1.9904
19018SOL     OW57631   2.500   1.063   2.832  0.4732  0.7284  0.3420
19018SOL    HW157632   2.442   1.031   2.901 -0.4873 -0.4270 -0.9496
19018SOL    HW257633   2.466   1.023   2.752  2.3098  1.0377 -0.6337
19019SOL     OW57634   3.005   4.303   3.668  0.0132 -0.0944  0.1009
19019SOL    HW157635   3.056   4.277   3.745 -0.1787  2.3210  1.1101
19019SOL    HW257636   2.919   4.265   3.683  0.0066  0.2726  1.0434
19020SOL     OW57637   1.733   0.585   8.003 -0.1208  0.3934  0.0922
19020SOL    HW157638   1.683   0.665   8.017 -0.8003  0.2644 -1.3417
19020SOL    HW257639   1.782   0.572   8.084 -0.6233  1.8063  0.6525
19021SOL     OW57640   8.015   7.722   3.728  0.3398  0.2379  0.1846
19021SOL    HW157641   8.061   7.639   3.712 -1.4082 -1.3215  2.6394
19021SOL    HW257642   7.923   7.703   3.710 -0.0621  1.7264  0.5372
19022SOL     OW57643   6.969   6.681   1.918 -0.6634  0.3524 -0.3245
19022SOL    HW157644   6.970   6.653   2.009  1.5193 -0.4110 -0.5384
19022SOL    HW257645   6.882   6.719   1.906 -0.8811  0.8072  2.1584
19023SOL     OW57646   0.036   0.491   3.240  0.0979 -0.3349  0.1347
19023SOL    HW157647   0.039   0.559   3.172 -0.1443 -1.1059 -0.6757
19023SOL    HW257648  -0.058   0.477   3.255  0.0679 -1.8711 -1.1745
19024SOL     OW57649   7.435   7.751   7.748 -0.2993  1.0950 -0.5998
19024SOL    HW157650   7.455   7.664   7.714 -0.2492  1.4624 -1.5438
19024SOL    HW257651   7.435   7.740   7.843  1.5393  0.4513 -0.6298
19025SOL     OW57652   0.456   8.728   6.936  0.1375 -0.3210 -0.0979
19025SOL    HW157653   0.528   8.719   6.998 -0.8830  1.7455  1.4927
19025SOL    HW257654   0.480   8.803   6.882 -0.2293 -0.4208 -0.4041
19026SOL     OW57655   7.634   3.235   6.730 -0.4064 -0.1813  0.7224
19026SOL    HW157656   7.717   3.187   6.733  0.3587  1.0359  0.1063
19026SOL    HW257657   7.581   3.197   6.800  0.7254 -0.9021  1.2087
19027SOL     OW57658   0.932   4.656   1.494  0.1429 -0.3303  0.5000
19027SOL    HW157659   0.955   4.748   1.478 -1.5330  0.5601  2.6228
19027SOL    HW257660   0.989   4.629   1.566  0.6827 -1.0216 -0.1649
19028SOL     OW57661   4.045   5.476   1.384  0.4790 -0.1579  0.1296
19028SOL    HW157662   3.999   5.401   1.422 -0.5974  0.3092 -0.2170
19028SOL    HW257663   3.998   5.495   1.304  0.6708  0.9606  0.2682
19029SOL     OW57664   7.397   4.770   7.903 -0.0276 -0.3236 -0.2261
19029SOL    HW157665   7.407   4.784   7.809 -4.4385 -0.1230 -0.8883
19029SOL    HW257666   7.474   4.812   7.942  0.3655  2.5082 -3.5583
19030SOL     OW57667   9.771   7.223   6.594  0.4868 -0.1225  0.0436
19030SOL    HW157668   9.859   7.226   6.630  1.0963 -2.5372 -1.0520
19030SOL    HW257669   9.724   7.160   6.648  0.3798 -1.1356 -1.1804
19031SOL     OW57670   6.272   0.111   4.518  0.4227  0.1354 -0.1518
19031SOL    HW157671   6.357   0.156   4.523 -0.7627  2.5547 -0.5143
19031SOL    HW257672   6.229   0.149   4.442 -0.8202 -1.4346 -0.2825
19032SOL     OW57673   5.671   7.963   9.281  0.1895  0.5786 -0.4141
19032SOL    HW157674   5.600   7.993   9.338  0.5248 -0.8241  0.8246
19032SOL    HW257675   5.628   7.933   9.201 -0.6495 -0.3652  0.3663
19033SOL     OW57676   8.206   0.978   6.496  0.8907 -0.2165 -0.1485
19033SOL    HW157677   8.230   0.937   6.579  1.3077 -0.8925 -0.5910
19033SOL    HW257678   8.201   0.905   6.434  1.0911  0.3370 -0.8326
19034SOL     OW57679   7.988   7.351   8.019  0.1085 -0.3488  0.0773
19034SOL    HW157680   7.910   7.307   7.985 -0.5190  0.0430  0.9831
19034SOL    HW257681   8.061   7.297   7.989 -0.6647 -2.4671  1.7398
19035SOL     OW57682   3.322   9.825   6.454 -0.5721  0.7571  0.4010
19035SOL    HW157683   3.352   9.748   6.406 -0.4318  0.1979  1.3474
19035SOL    HW257684   3.226   9.820   6.449 -0.5597  1.4475 -0.9353
19036SOL     OW57685   8.471   9.570   4.197 -0.4135  0.5896  0.0958
19036SOL    HW157686   8.486   9.477   4.179 -1.9834 -0.0001  1.6219
19036SOL    HW257687   8.400   9.595   4.138  0.0105  0.8349 -0.3169
19037SOL     OW57688   6.126   6.113   9.875 -0.4630  0.1268 -0.5295
19037SOL    HW157689   6.044   6.160   9.857 -0.5864 -0.5047 -1.7472
19037SOL    HW257690   6.181   6.131   9.799  0.5121  0.4518  0.2239
19038SOL     OW57691   4.317   2.278   0.525 -0.1086 -0.3631 -0.2309
19038SOL    HW157692   4.370   2.227   0.586  1.0206  0.0805 -0.7892
19038SOL    HW257693   4.344   2.369   0.541  0.8025 -0.2941 -1.8730
19039SOL     OW57694   6.948   8.493   2.631  0.4242 -0.3432  0.4618
19039SOL    HW157695   6.974   8.462   2.544  0.3573  3.7105 -1.2133
19039SOL    HW257696   6.909   8.579   2.615  0.2417  0.4997  4.5050
19040SOL     OW57697   8.654   6.020   1.143 -0.3742  0.2346  0.0438
19040SOL    HW157698   8.584   6.084   1.132 -1.5334 -1.2679 -2.2799
19040SOL    HW257699   8.654   5.999   1.237 -1.6214  1.7810  0.4230
19041SOL     OW57700   4.326   4.510   1.180  0.3040 -0.1742  0.1395
19041SOL    HW157701   4.326   4.593   1.226  0.6960 -0.1870  0.1708
19041SOL    HW257702   4.412   4.506   1.137  1.1217 -1.4416  1.7591
19042SOL     OW57703   6.275   1.180   0.109 -0.3743 -0.5351  0.5665
19042SOL    HW157704   6.287   1.113   0.042  0.7728  0.6874 -0.5063
19042SOL    HW257705   6.194   1.225   0.084  1.3318  1.6012 -1.6359
19043SOL     OW57706   9.152   1.510   4.037 -0.0299 -0.5579  0.1352
19043SOL    HW157707   9.071   1.488   4.083 -0.2562 -1.9310 -0.8343
19043SOL    HW257708   9.149   1.605   4.025 -1.6869 -0.6278 -0.1955
19044SOL     OW57709   0.427   0.888   3.941 -0.3497 -0.4691 -0.2707
19044SOL    HW157710   0.360   0.828   3.908  0.0001 -0.7117 -0.5481
19044SOL    HW257711   0.509   0.854   3.906 -0.1783  0.3580 -0.6955
19045SOL     OW57712   6.503   4.081   5.387 -0.3925 -0.1180 -0.1182
19045SOL    HW157713   6.462   4.006   5.430 -0.0027 -0.1404  0.2147
19045SOL    HW257714   6.595   4.077   5.413  0.0103 -0.5413 -1.5190
19046SOL     OW57715   7.202   4.556   7.566 -0.4832 -0.0689 -0.4271
19046SOL    HW157716   7.122   4.503   7.574 -0.7997  0.5472  0.7999
19046SOL    HW257717   7.174   4.645   7.586  0.0516  0.6053 -2.4322
19047SOL     OW57718   0.620   7.441   1.264  0.4491  0.4706  0.4922
19047SOL    HW157719   0.712   7.460   1.285  1.5445  0.1712 -3.3823
19047SOL    HW257720   0.621   7.350   1.234 -1.1684  0.4143  0.5536
19048SOL     OW57721   8.055   4.077   2.911 -0.2371  0.1895 -0.2526
19048SOL    HW157722   8.146   4.105   2.917 -0.1223 -0.2461  0.0130
19048SOL    HW257723   8.058   3.982   2.914 -0.7219  0.1786  0.0580
19049SOL     OW57724   2.706   7.186   0.884  0.4097 -0.0902 -0.1973
19049SOL    HW157725   2.765   7.136   0.939  0.8912 -2.5107 -2.7312
19049SOL    HW257726   2.739   7.276   0.888  2.6582 -0.9003  0.5145
19050SOL     OW57727   9.626   9.792   1.611  0.9022 -0.1486 -0.2997
19050SOL    HW157728   9.717   9.783   1.582  1.1635  2.5889 -0.5573
19050SOL    HW257729   9.584   9.844   1.542  0.6510  3.5522  2.3331
19051SOL     OW57730   7.688   9.278   4.562  0.1026 -0.0647 -0.9246
19051SOL    HW157731   7.694   9.204   4.622 -0.4238 -0.4832 -1.3809
19051SOL    HW257732   7.636   9.343   4.609 -0.6576 -0.5500 -1.0735
19052SOL     OW57733   3.852   3.706   3.694  0.0780 -0.0174 -0.6915
19052SOL    HW157734   3.841   3.621   3.651 -2.8350  1.5470 -3.4904
19052SOL    HW257735   3.812   3.695   3.781 -2.7274 -0.9345 -1.9938
19053SOL     OW57736   8.076   7.787   0.014  0.1715 -0.3826  0.0855
19053SOL    HW157737   8.062   7.856  -0.051 -0.7693 -0.0199  0.6534
19053SOL    HW257738   8.142   7.823   0.073  0.5592 -0.4591 -0.2939
19054SOL     OW57739   1.709   1.467   1.949  0.2942 -0.0573 -0.1099
19054SOL    HW157740   1.637   1.530   1.962  0.8388  0.4363  0.5792
19054SOL    HW257741   1.689   1.396   2.010  0.9382  0.5775  0.8694
19055SOL     OW57742   5.183   3.152   8.251  0.3744  0.1135  0.3199
19055SOL    HW157743   5.088   3.155   8.267  0.2237  0.1328 -0.5190
19055SOL    HW257744   5.213   3.078   8.303 -0.1455 -0.0321  0.4244
19056SOL     OW57745   5.455   1.694   9.127  0.3453  0.2396 -0.5573
19056SOL    HW157746   5.517   1.711   9.056  2.0136  1.6774  1.1335
19056SOL    HW257747   5.481   1.609   9.162  0.4165  0.1637 -0.7969
19057SOL     OW57748   7.235   8.153   1.098 -0.7864 -0.3535 -0.6381
19057SOL    HW157749   7.287   8.081   1.064 -1.7248 -1.3237 -0.0926
19057SOL    HW257750   7.169   8.111   1.153 -0.6628  0.9951  0.6162
19058SOL     OW57751   7.926   9.617   0.819  0.0456 -0.4701 -0.3899
19058SOL    HW157752   7.830   9.626   0.814 -0.1629 -1.2081  1.5482
19058SOL    HW257753   7.944   9.530   0.785  0.2727  0.3242 -2.4810
19059SOL     OW57754   1.745   5.303   4.130  0.1908  0.1262 -0.1004
19059SOL    HW157755   1.723   5.391   4.161  1.3800  0.2502  0.4429
19059SOL    HW257756   1.671   5.248   4.158  0.5350  0.5108  1.6892
19060SOL     OW57757   6.915   1.198   6.641 -0.0364 -0.2759  0.1453
19060SOL    HW157758   6.999   1.201   6.687 -0.7605 -3.3270  1.9691
19060SOL    HW257759   6.909   1.108   6.608 -1.8332  0.3904 -1.5353
19061SOL     OW57760   3.438   2.047   4.278 -0.0555 -0.1585  0.7365
19061SOL    HW157761   3.489   2.079   4.204  0.6233 -0.2879  1.1316
19061SOL    HW257762   3.449   2.114   4.346 -0.8763  0.0809  0.6421
19062SOL     OW57763   3.758   5.838   2.894 -0.1670  0.5485  0.0164
19062SOL    HW157764   3.731   5.747   2.884 -1.1087  0.6796  1.0766
19062SOL    HW257765   3.696   5.874   2.958  0.3189  1.8735 -0.2232
19063SOL     OW57766   0.478   3.332   2.869 -0.3563 -0.0788  0.4976
19063SOL    HW157767   0.511   3.261   2.924  4.7516  1.2373 -0.3686
19063SOL    HW257768   0.463   3.404   2.930  0.4590 -0.0991  0.7366
19064SOL     OW57769   1.696   6.498   9.304 -0.5122 -0.3702  0.1704
19064SOL    HW157770   1.788   6.525   9.311 -0.5826 -0.1652  0.3423
19064SOL    HW257771   1.660   6.554   9.235 -0.4226 -0.6941 -0.1421
19065SOL     OW57772   8.505   7.947   0.309  0.1107  0.1718  0.4166
19065SOL    HW157773   8.461   8.031   0.311 -1.1070 -0.4366  2.7841
19065SOL    HW257774   8.526   7.932   0.217 -2.1131  1.7860 -0.4113
19066SOL     OW57775   2.546   9.194   1.875 -0.1935  0.0740 -0.2112
19066SOL    HW157776   2.533   9.231   1.962 -0.3775  0.3297 -0.3461
19066SOL    HW257777   2.640   9.181   1.868 -0.1544  0.2753 -0.0644
19067SOL     OW57778   6.497   8.247   8.165  0.1403 -0.2152  0.4012
19067SOL    HW157779   6.420   8.249   8.108  0.0624 -0.5251  0.4927
19067SOL    HW257780   6.497   8.333   8.208  0.7728  0.4202 -0.8113
19068SOL     OW57781   8.565   0.184   2.925  0.0939  0.2198 -0.0170
19068SOL    HW157782   8.599   0.244   2.860 -2.3108  1.0965 -0.5557
19068SOL    HW257783   8.486   0.227   2.959 -0.8374 -1.9219  0.7055
19069SOL     OW57784   8.152   2.419   7.808  0.1972 -0.5287  0.1218
19069SOL    HW157785   8.095   2.426   7.732 -0.5462  1.4676  0.7855
19069SOL    HW257786   8.208   2.497   7.803  0.9021 -0.9563  1.0223
19070SOL     OW57787   7.531   0.589   0.848 -0.3392  0.7303  0.2998
19070SOL    HW157788   7.536   0.679   0.880 -1.7525  1.3971 -1.1724
19070SOL    HW257789   7.464   0.548   0.903  0.7225  0.3717  1.3584
19071SOL     OW57790   0.137   2.677   3.488 -0.3385 -0.1196  0.0249
19071SOL    HW157791   0.074   2.734   3.532 -1.1319 -1.2778  0.4125
19071SOL    HW257792   0.134   2.595   3.536 -0.5498 -1.1173 -1.5999
19072SOL     OW57793   5.919   8.452   9.899  0.5028  0.2491 -0.0797
19072SOL    HW157794   5.921   8.494   9.985 -1.9492  1.0498 -0.3298
19072SOL    HW257795   5.880   8.366   9.916  1.6454 -0.3072 -0.1753
19073SOL     OW57796   1.328   2.728   4.104  0.1395 -0.3578  0.2321
19073SOL    HW157797   1.259   2.744   4.039 -0.9091  0.9192  1.6151
19073SOL    HW257798   1.336   2.810   4.152  1.8754 -0.8376  0.8264
19074SOL     OW57799   9.786   5.125   6.558  0.6815  0.3878 -0.1954
19074SOL    HW157800   9.854   5.096   6.497  1.4032 -0.6637  1.0599
19074SOL    HW257801   9.834   5.152   6.637 -0.1914  2.1571 -0.2061
19075SOL     OW57802   3.567   6.665   6.255  0.2144  0.8338  0.1732
19075SOL    HW157803   3.606   6.732   6.311 -2.0451  1.6423  0.8796
19075SOL    HW257804   3.507   6.618   6.312  0.0000 -0.2588 -0.9081
19076SOL     OW57805   6.372   5.921   1.979 -0.3555 -0.0455  0.3433
19076SOL    HW157806   6.413   5.923   2.066 -1.1445  1.3284  0.7151
19076SOL    HW257807   6.383   6.010   1.946 -1.2161 -0.2114 -0.4208
19077SOL     OW57808   9.388   2.711   3.340 -0.1310  0.2271  0.3201
19077SOL    HW157809   9.453   2.659   3.292  0.2149  0.2905  0.7121
19077SOL    HW257810   9.367   2.783   3.281 -0.2759 -0.1054 -0.0430
19078SOL     OW57811   5.822   7.655   8.200 -0.4996 -0.2202 -0.2075
19078SOL    HW157812   5.765   7.703   8.260 -0.0242  0.5923 -0.4011
19078SOL    HW257813   5.883   7.609   8.258 -2.4409 -2.6386  0.1275
19079SOL     OW57814   9.020   1.466   8.437 -0.2272  0.3864  0.1167
19079SOL    HW157815   8.942   1.508   8.471 -1.3905 -2.8887  1.9841
19079SOL    HW257816   9.062   1.426   8.513  1.5786 -0.5361 -1.2645
19080SOL     OW57817   5.244   1.333   0.492  0.1625 -0.2213  0.4232
19080SOL    HW157818   5.322   1.377   0.457 -0.3973 -0.5928 -1.3898
19080SOL    HW257819   5.198   1.401   0.541  1.0984  0.2664  0.6526
19081SOL     OW57820   7.416   8.106   3.756  0.0681 -0.3537  0.2264
19081SOL    HW157821   7.473   8.071   3.825  0.8255  1.3236  0.5002
19081SOL    HW257822   7.477   8.143   3.692 -0.6225 -1.7863 -1.3587
19082SOL     OW57823   3.876   8.242   5.867 -0.1916 -0.6458  0.2731
19082SOL    HW157824   3.841   8.178   5.806 -1.7257 -0.2426  0.6939
19082SOL    HW257825   3.857   8.327   5.828  0.2996 -0.4115  0.5288
19083SOL     OW57826   8.981   0.989   1.956 -0.3609  0.4544 -0.3439
19083SOL    HW157827   9.013   0.981   1.866 -1.3916  1.1553 -0.7867
19083SOL    HW257828   8.932   1.071   1.958 -0.4031  0.4265  0.8515
19084SOL     OW57829   5.017   9.824   0.767  0.1301  0.5939 -0.0896
19084SOL    HW157830   4.940   9.878   0.749 -0.4970 -0.2587 -0.0123
19084SOL    HW257831   4.982   9.743   0.803  1.2223  1.5149  3.4438
19085SOL     OW57832   5.679   6.026   2.260 -0.6128 -0.0881 -0.5443
19085SOL    HW157833   5.617   6.023   2.187  0.1259 -1.7759 -1.1641
19085SOL    HW257834   5.662   5.945   2.309 -0.3724  0.5040  0.5429
19086SOL     OW57835   0.840   7.178   0.334  0.2272  0.0762 -0.2327
19086SOL    HW157836   0.795   7.101   0.298  1.2794 -1.0987  0.8363
19086SOL    HW257837   0.823   7.174   0.428 -0.0786  1.4282 -0.2219
19087SOL     OW57838   4.756   8.644   1.360 -0.4029 -0.2189  0.2581
19087SOL    HW157839   4.767   8.727   1.314 -1.5215  0.0372  0.4281
19087SOL    HW257840   4.725   8.583   1.292 -0.5653 -0.2419  0.3543
19088SOL     OW57841   1.571   7.410   1.087 -0.3906  0.0482 -0.1123
19088SOL    HW157842   1.585   7.357   1.009  0.6131 -1.2022  0.8897
19088SOL    HW257843   1.652   7.402   1.137 -0.6107  1.6942  0.5721
19089SOL     OW57844   2.792   7.803   9.657  0.0331 -0.4277 -0.1457
19089SOL    HW157845   2.846   7.811   9.578  0.8587 -1.9921  0.2182
19089SOL    HW257846   2.705   7.780   9.625  0.3532 -1.0125 -0.6141
19090SOL     OW57847   7.246   9.118   9.732 -0.1683 -0.2025  0.2224
19090SOL    HW157848   7.170   9.147   9.682  1.1971  3.4413 -0.0218
19090SOL    HW257849   7.243   9.170   9.812  2.4081  0.6451 -0.1365
19091SOL     OW57850   4.855   9.795   2.689 -0.6204  0.0996 -0.4100
19091SOL    HW157851   4.890   9.731   2.627 -1.3462 -0.9390  0.2233
19091SOL    HW257852   4.928   9.815   2.747 -0.6855 -1.0365  0.0878
19092SOL     OW57853   2.021   6.660   0.773 -0.0194 -0.0555 -0.0991
19092SOL    HW157854   1.953   6.686   0.834 -0.2650 -0.0832 -0.3594
19092SOL    HW257855   2.058   6.742   0.741 -0.0712 -0.0375 -0.1129
19093SOL     OW57856   5.144   7.217   4.978  0.3164 -0.0922 -0.4347
19093SOL    HW157857   5.219   7.189   4.925  1.1057  0.4062  0.3803
19093SOL    HW257858   5.156   7.311   4.989  0.6577 -0.3059  1.3145
19094SOL     OW57859   5.001   9.984   0.334  0.2726 -0.3772  0.1468
19094SOL    HW157860   4.932   9.927   0.368  0.2682 -0.1176  0.5861
19094SOL    HW257861   5.078   9.960   0.385  0.4690 -0.5441 -0.2221
19095SOL     OW57862   1.448   1.742   1.737  0.2514 -0.8801 -0.2308
19095SOL    HW157863   1.436   1.707   1.648  0.7687 -2.0798  0.1479
19095SOL    HW257864   1.363   1.779   1.760  0.7489  1.7735 -2.1652
19096SOL     OW57865   2.577   3.844   3.989  0.1932 -0.5902 -0.1887
19096SOL    HW157866   2.500   3.880   3.946  1.0783  1.2651 -0.3319
19096SOL    HW257867   2.609   3.916   4.044  0.2258 -2.2311  2.0686
19097SOL     OW57868   2.178   7.080   2.386  0.6412  0.1679 -0.2187
19097SOL    HW157869   2.110   7.128   2.338  0.9382  2.0767  1.1465
19097SOL    HW257870   2.219   7.146   2.441  1.5937 -1.5557  1.2342
19098SOL     OW57871   3.802   1.792   6.998  0.3906 -0.0165  0.1266
19098SOL    HW157872   3.887   1.766   7.032  0.6352  2.1276  1.3422
19098SOL    HW257873   3.817   1.879   6.961 -0.7234 -0.7090 -2.1269
19099SOL     OW57874   7.711   2.315   4.293 -0.0893  0.1826  0.3060
19099SOL    HW157875   7.640   2.355   4.244  0.1068 -0.3022 -0.3792
19099SOL    HW257876   7.676   2.230   4.322 -0.2931  0.5678  1.2349
19100SOL     OW57877   9.212   1.264   1.166 -0.0265 -0.0717  0.8334
19100SOL    HW157878   9.155   1.198   1.126 -1.8281  1.9102 -0.0639
19100SOL    HW257879   9.290   1.265   1.110  0.0823 -1.4707  0.9242
19101SOL     OW57880   9.466   0.433   5.858 -0.2014  0.0326 -0.5270
19101SOL    HW157881   9.372   0.423   5.874 -0.1290 -1.1668 -0.7826
19101SOL    HW257882   9.496   0.346   5.832  1.1162  0.2446  0.1955
19102SOL     OW57883   7.050   4.318   2.489  0.2598  0.3335 -0.3099
19102SOL    HW157884   7.005   4.399   2.466  0.3743 -0.1505 -2.5370
19102SOL    HW257885   6.982   4.260   2.522 -0.1710  0.7141 -0.5211
19103SOL     OW57886   0.356   2.527   2.087  0.5268  0.2048 -0.4095
19103SOL    HW157887   0.287   2.554   2.147 -2.2090  0.6884 -3.4686
19103SOL    HW257888   0.365   2.601   2.027  1.3174 -1.1492 -2.0373
19104SOL     OW57889   8.621   5.207   7.665 -0.2309  0.4928 -0.1213
19104SOL    HW157890   8.583   5.217   7.577  0.0111 -0.8832 -0.4063
19104SOL    HW257891   8.712   5.235   7.655  0.0315 -0.4609 -0.5359
19105SOL     OW57892   0.704   2.746   6.884  0.0297  0.3081  0.1338
19105SOL    HW157893   0.775   2.710   6.831  0.4303  2.9205 -1.2743
19105SOL    HW257894   0.624   2.714   6.843  0.2988 -2.3429  1.5031
19106SOL     OW57895   9.639   0.912   0.833  0.1442 -0.5045 -0.4393
19106SOL    HW157896   9.614   0.898   0.924 -0.3841 -2.7053 -0.8517
19106SOL    HW257897   9.719   0.964   0.837 -0.4753  0.3758  1.2090
19107SOL     OW57898   4.488   6.455   1.303 -0.1810 -0.0536  0.5343
19107SOL    HW157899   4.556   6.405   1.259  0.1982 -0.0670  1.1279
19107SOL    HW257900   4.409   6.402   1.292  0.0844 -0.4680  0.5948
19108SOL     OW57901   6.949   9.278   1.436  1.0238  0.4120  0.2777
19108SOL    HW157902   6.976   9.283   1.345  2.3284 -1.5517  0.5091
19108SOL    HW257903   6.876   9.215   1.436  0.5388  0.9635  0.5045
19109SOL     OW57904   1.454   8.966   6.642 -0.5675 -0.0470  0.2716
19109SOL    HW157905   1.516   9.031   6.609 -0.6600  0.8506  1.7743
19109SOL    HW257906   1.492   8.882   6.618  0.0376  0.5366 -0.8761
19110SOL     OW57907   9.435   6.136   7.715  0.2421  0.1919  0.0839
19110SOL    HW157908   9.353   6.185   7.714 -0.2543 -0.5566 -2.1440
19110SOL    HW257909   9.413   6.055   7.760 -0.4722 -0.2661 -1.0169
19111SOL     OW57910   8.875   1.847   0.968  0.4749  0.2603 -0.4363
19111SOL    HW157911   8.891   1.757   0.940  1.4705  0.9263 -2.2210
19111SOL    HW257912   8.921   1.901   0.903  0.5703  2.0508  1.0202
19112SOL     OW57913   4.476   4.327   0.339 -0.5798 -0.2040 -0.3120
19112SOL    HW157914   4.525   4.292   0.264  0.5159 -0.1810  0.3746
19112SOL    HW257915   4.385   4.301   0.322 -0.4494  0.3154 -1.9377
19113SOL     OW57916   7.747   1.422   5.405 -0.0291 -0.1484  0.3475
19113SOL    HW157917   7.653   1.435   5.418 -0.2737 -2.0204  0.7012
19113SOL    HW257918   7.757   1.328   5.393  1.5978  0.2015 -1.5410
19114SOL     OW57919   8.475   0.593   5.776 -0.2505 -0.4369  0.1795
19114SOL    HW157920   8.412   0.531   5.738  0.3692 -0.8396 -0.1956
19114SOL    HW257921   8.547   0.596   5.713  1.1623 -1.6929  1.6500
19115SOL     OW57922   4.129   0.168   8.658 -0.0531 -0.6461 -0.3423
19115SOL    HW157923   4.209   0.162   8.607  0.5504 -3.5585  0.7601
19115SOL    HW257924   4.154   0.142   8.747 -1.5255  2.0470  1.0091
19116SOL     OW57925   9.118   8.825   5.448 -0.4824 -0.2297  0.3961
19116SOL    HW157926   9.107   8.900   5.390 -0.7914  0.2126  1.0162
19116SOL    HW257927   9.171   8.858   5.520  0.0770 -0.8321  0.2646
19117SOL     OW57928   1.692   0.717   5.792  0.0175 -0.4604  0.4396
19117SOL    HW157929   1.770   0.768   5.815 -0.6931  0.8383  0.0663
19117SOL    HW257930   1.650   0.768   5.722 -2.3954  0.1440  2.1995
19118SOL     OW57931   4.703   9.946   8.491 -0.2243 -0.2519  0.0493
19118SOL    HW157932   4.729   9.860   8.525 -0.4396  0.1020  1.1222
19118SOL    HW257933   4.694   9.932   8.396  1.7501 -0.9042 -0.0761
19119SOL     OW57934   2.037   6.265   4.897 -0.0737  0.4808 -0.3465
19119SOL    HW157935   2.081   6.181   4.901 -1.5050 -0.2768  0.1472
19119SOL    HW257936   1.944   6.243   4.890 -0.3815  2.0043 -1.7222
19120SOL     OW57937   8.951   8.519   0.112 -0.1561 -0.3864  0.1689
19120SOL    HW157938   8.955   8.609   0.144 -0.5895 -0.8651  1.6586
19120SOL    HW257939   8.959   8.527   0.017  2.1734  1.0495  0.4014
19121SOL     OW57940   0.679   7.368   5.307 -0.3695  0.5056 -0.0856
19121SOL    HW157941   0.762   7.401   5.274  0.3257  0.2305  1.3240
19121SOL    HW257942   0.677   7.276   5.279 -0.0788  0.4415  0.1032
19122SOL     OW57943   9.349   4.690   0.666 -0.0546 -0.3673  0.4252
19122SOL    HW157944   9.414   4.759   0.679  0.3831 -0.9575  1.4581
19122SOL    HW257945   9.266   4.731   0.691  0.1522 -0.0936  0.6754
19123SOL     OW57946   2.595   7.570   6.095  0.4258  0.2049 -1.1087
19123SOL    HW157947   2.568   7.547   6.006  0.7314  1.4093 -1.5324
19123SOL    HW257948   2.514   7.569   6.146  0.2372 -0.3984 -1.4114
19124SOL     OW57949   8.188   9.448   8.507  0.5719 -0.4516 -0.3243
19124SOL    HW157950   8.164   9.404   8.426 -1.1685 -0.3244  0.0725
19124SOL    HW257951   8.184   9.379   8.574 -0.2744 -0.1144 -0.0068
19125SOL     OW57952   6.224   7.733   6.285 -0.6223  0.2768  0.3983
19125SOL    HW157953   6.179   7.696   6.361 -1.1020  0.2148  0.0935
19125SOL    HW257954   6.154   7.775   6.235 -0.0251  2.1388  1.0410
19126SOL     OW57955   0.365   2.215   0.732  0.3414  0.0317  0.7634
19126SOL    HW157956   0.313   2.272   0.789  0.8723  0.3341  0.9479
19126SOL    HW257957   0.392   2.273   0.660 -0.0648 -0.2707  0.3565
19127SOL     OW57958   5.314   8.319   8.868 -1.0738 -0.2211 -0.5872
19127SOL    HW157959   5.349   8.265   8.939 -3.3852 -0.4089  0.5190
19127SOL    HW257960   5.319   8.409   8.901  1.2760  0.1843 -1.7816
19128SOL     OW57961   7.839   3.746   7.964 -0.5284  0.5532  0.3403
19128SOL    HW157962   7.792   3.792   7.894  2.9559  1.2229 -1.8414
19128SOL    HW257963   7.851   3.657   7.931  1.5170  0.9904 -0.2611
19129SOL     OW57964   3.159   2.337   2.870  0.5912 -0.0835 -0.0591
19129SOL    HW157965   3.130   2.262   2.922 -0.8891  1.0303  0.8206
19129SOL    HW257966   3.190   2.299   2.788  0.2889 -1.6768  0.5312
19130SOL     OW57967   9.823   7.353   9.327  0.0367 -0.2786 -0.3546
19130SOL    HW157968   9.757   7.391   9.386  0.7104  0.3374  0.0231
19130SOL    HW257969   9.776   7.285   9.279 -0.8674  0.1243 -0.0703
19131SOL     OW57970   7.881   3.280   7.328 -0.8025 -0.7985  0.1671
19131SOL    HW157971   7.835   3.218   7.385 -0.1558  0.2192  1.8702
19131SOL    HW257972   7.968   3.287   7.366 -1.1586  1.9127  0.6754
19132SOL     OW57973   5.679   5.624   5.546  0.4791 -0.3180  0.0794
19132SOL    HW157974   5.732   5.551   5.515 -1.0043 -1.3958 -0.0187
19132SOL    HW257975   5.589   5.596   5.533 -0.1457  1.6457 -0.1910
19133SOL     OW57976   9.216   3.419   4.655  0.0903  0.0717 -0.1404
19133SOL    HW157977   9.282   3.354   4.632  0.4099  0.4064 -0.1787
19133SOL    HW257978   9.135   3.369   4.665  0.4245 -0.3911  0.2712
19134SOL     OW57979   2.045   1.003   3.484 -0.3229 -0.0379  1.0707
19134SOL    HW157980   2.051   1.089   3.442  0.4672 -0.8079 -0.4438
19134SOL    HW257981   2.131   0.990   3.523 -0.2540 -0.3885  0.8020
19135SOL     OW57982   8.535   5.993   8.204  0.3864 -0.4351 -0.4380
19135SOL    HW157983   8.491   5.923   8.154 -2.4728  0.7657  0.1682
19135SOL    HW257984   8.532   5.963   8.295 -0.8978  0.3989 -0.1693
19136SOL     OW57985   4.648   4.416   3.932  0.0164 -0.1057  0.0651
19136SOL    HW157986   4.569   4.447   3.889  0.0023  0.4624  0.4989
19136SOL    HW257987   4.686   4.354   3.869 -1.6297 -1.6797  0.5363
19137SOL     OW57988   6.072   0.433   7.664 -0.2638  0.0569 -0.2576
19137SOL    HW157989   6.073   0.339   7.679 -2.4907  0.2597  1.7917
19137SOL    HW257990   6.034   0.443   7.576 -1.3669 -0.9502  0.0837
19138SOL     OW57991   1.886   0.593   7.612 -0.1445  0.0420  0.0277
19138SOL    HW157992   1.799   0.619   7.642 -0.3959 -0.5551 -0.1742
19138SOL    HW257993   1.913   0.524   7.672 -0.1157 -0.2720 -0.3409
19139SOL     OW57994   0.446   4.061   1.879  0.8920 -0.0216  0.3467
19139SOL    HW157995   0.475   4.106   1.958  0.5492  2.0170 -0.6106
19139SOL    HW257996   0.366   4.015   1.905  0.4744  1.0781  1.0795
19140SOL     OW57997   2.353   6.189   1.164 -0.3974 -0.5184  0.3170
19140SOL    HW157998   2.359   6.122   1.096 -0.6952  0.2364 -0.4725
19140SOL    HW257999   2.443   6.215   1.181 -0.3434 -0.4774 -0.0343
19141SOL     OW58000   8.283   1.925   2.120 -0.3045  0.8513  0.0038
19141SOL    HW158001   8.317   1.985   2.053 -1.1762 -1.9777 -3.2463
19141SOL    HW258002   8.190   1.949   2.128 -0.3714  0.7367 -0.3962
19142SOL     OW58003   8.292   4.975   1.626 -0.0306 -0.3749  0.4749
19142SOL    HW158004   8.346   4.899   1.603  1.8669  0.2417  2.5325
19142SOL    HW258005   8.336   5.049   1.584 -0.2467 -0.0782  0.7676
19143SOL     OW58006   2.658   0.831   7.391  1.0437 -0.3070  0.3160
19143SOL    HW158007   2.733   0.800   7.341 -0.0901 -1.3414 -0.7988
19143SOL    HW258008   2.599   0.868   7.325  0.1243 -0.4250  1.0558
19144SOL     OW58009   2.218   4.640   9.564 -0.1382 -0.1780 -0.5439
19144SOL    HW158010   2.184   4.661   9.477 -0.2450 -0.6342 -0.6142
19144SOL    HW258011   2.228   4.545   9.563  3.1988  0.0253 -1.3370
19145SOL     OW58012   3.473   5.549   7.970 -0.1906  0.3302  0.2934
19145SOL    HW158013   3.420   5.627   7.951 -0.6698  0.1554  0.8737
19145SOL    HW258014   3.454   5.529   8.062 -1.2201 -1.3195 -0.2269
19146SOL     OW58015   0.675   9.135   8.336 -0.2041 -0.0085  0.0132
19146SOL    HW158016   0.684   9.117   8.430  0.9642  0.0785 -0.0678
19146SOL    HW258017   0.582   9.120   8.317 -0.6642  0.9493  1.3836
19147SOL     OW58018   9.707   1.013   8.599 -0.5999 -0.2190  0.1341
19147SOL    HW158019   9.665   1.029   8.683  0.5658  1.0736  0.5159
19147SOL    HW258020   9.689   1.092   8.547  0.0808 -0.2740 -0.2102
19148SOL     OW58021   6.314   8.911   5.712 -0.3622 -0.2077  0.4449
19148SOL    HW158022   6.371   8.875   5.644  0.8301  0.0109  1.2972
19148SOL    HW258023   6.227   8.914   5.671 -0.0459 -1.7873 -0.4505
19149SOL     OW58024   9.928   8.926   0.341 -0.1862  0.0743 -0.5307
19149SOL    HW158025   9.865   8.856   0.326 -1.2333  0.5108  1.4383
19149SOL    HW258026   9.908   8.991   0.274 -1.2790 -0.1675 -0.4629
19150SOL     OW58027   0.063   9.783   6.729  0.1851 -0.1399  0.3177
19150SOL    HW158028   0.143   9.835   6.731  0.5181 -0.6513  0.3855
19150SOL    HW258029   0.051   9.761   6.637 -1.3568  2.1851 -0.1116
19151SOL     OW58030   5.670   6.158   5.374  0.3840 -0.7387 -0.0050
19151SOL    HW158031   5.709   6.179   5.289  0.8760 -1.2175  0.1010
19151SOL    HW258032   5.593   6.215   5.379 -0.2090 -1.4019 -1.2042
19152SOL     OW58033   2.849   6.279   1.320  0.3880 -0.5945 -0.0249
19152SOL    HW158034   2.860   6.357   1.373  0.2859  0.7008 -1.8295
19152SOL    HW258035   2.884   6.303   1.234  0.9018 -2.7280 -0.4742
19153SOL     OW58036   6.060   1.459   3.314  0.2938 -0.4365 -0.3607
19153SOL    HW158037   5.971   1.478   3.285  0.4202  0.8262  0.0291
19153SOL    HW258038   6.053   1.375   3.361 -0.9274  0.2379  0.7229
19154SOL     OW58039   2.969   2.030   2.705  0.1198 -0.3412 -0.1300
19154SOL    HW158040   2.950   1.974   2.629 -3.1330  0.7486 -0.3022
19154SOL    HW258041   3.047   1.992   2.744  0.1720 -2.7633 -2.3029
19155SOL     OW58042   7.062   9.537   6.277 -0.1384 -0.0761  0.1613
19155SOL    HW158043   7.023   9.463   6.231 -1.2045  0.4941  0.1068
19155SOL    HW258044   6.995   9.564   6.340  0.5576  0.3326  0.7428
19156SOL     OW58045   4.375   7.986   6.840 -0.4605 -0.1587 -0.4664
19156SOL    HW158046   4.347   8.075   6.864  0.4057  0.3040 -1.1303
19156SOL    HW258047   4.434   7.999   6.766 -0.4248 -1.3084 -0.6440
19157SOL     OW58048   1.133   1.931   2.214  1.2836  0.2692 -0.6046
19157SOL    HW158049   1.158   1.907   2.303  1.6241 -0.4368 -0.8866
19157SOL    HW258050   1.071   2.003   2.225  0.5050 -0.5169  0.2438
19158SOL     OW58051   6.837   9.358   5.005  0.2746 -0.5680  0.1346
19158SOL    HW158052   6.788   9.312   4.936  0.4953 -0.0984 -0.3417
19158SOL    HW258053   6.800   9.325   5.086 -1.1741  0.0869 -0.2082
19159SOL     OW58054   5.896   8.987   1.138  0.7242 -0.4273  0.0848
19159SOL    HW158055   5.970   9.039   1.169  0.6548  0.2025 -0.7578
19159SOL    HW258056   5.821   9.020   1.188  0.7540 -0.0091 -0.1424
19160SOL     OW58057   7.781   2.012   4.357 -0.3338 -0.3054 -0.8540
19160SOL    HW158058   7.786   2.035   4.449  2.6657  1.2856 -1.3083
19160SOL    HW258059   7.700   1.960   4.350 -0.3693 -0.9756  2.7111
19161SOL     OW58060   9.323   5.456   3.125  0.6254  0.1885  0.0693
19161SOL    HW158061   9.287   5.368   3.118 -0.5720  0.6125  0.6882
19161SOL    HW258062   9.417   5.443   3.134  0.5546 -0.9851 -0.7164
19162SOL     OW58063   2.088   8.051   2.137 -0.8940  0.6283 -0.3493
19162SOL    HW158064   2.001   8.042   2.175 -0.2242  1.3059  1.4707
19162SOL    HW258065   2.130   7.966   2.152 -0.9918  0.5400 -0.5709
19163SOL     OW58066   0.128   5.838   6.940  0.0719 -0.4893  0.2748
19163SOL    HW158067   0.141   5.931   6.924 -0.4050 -0.2937  1.0099
19163SOL    HW258068   0.082   5.806   6.862  1.2844 -0.3663 -0.5190
19164SOL     OW58069   1.287   1.177   1.410 -0.3670  0.1233  0.3755
19164SOL    HW158070   1.262   1.211   1.495  0.9919  0.6477  0.5849
19164SOL    HW258071   1.264   1.247   1.348  1.0973  0.8741  0.6408
19165SOL     OW58072   5.217   1.691   8.032  0.2091 -0.1600  1.0045
19165SOL    HW158073   5.165   1.713   8.109 -0.3963  0.6322  0.3917
19165SOL    HW258074   5.229   1.596   8.036  0.9546 -0.0308  2.5394
19166SOL     OW58075   3.239   7.943   3.326 -0.1880 -0.0290 -0.4056
19166SOL    HW158076   3.246   7.849   3.345  0.4180 -0.3420 -2.0119
19166SOL    HW258077   3.149   7.965   3.347 -0.4666 -1.0778 -0.4282
19167SOL     OW58078   0.739   7.538   4.577 -0.6472  0.4216  0.2915
19167SOL    HW158079   0.726   7.567   4.486  1.2360  0.5068  0.0118
19167SOL    HW258080   0.653   7.550   4.618 -1.1471  1.8544 -1.0637
19168SOL     OW58081   7.491   0.697   6.556  0.4152 -0.4918  0.6232
19168SOL    HW158082   7.530   0.654   6.632  0.9633 -0.0391  0.6049
19168SOL    HW258083   7.543   0.776   6.544  0.9987 -1.0639 -0.8549
19169SOL     OW58084   6.391   1.720   2.532 -0.7702 -0.4635 -0.4872
19169SOL    HW158085   6.312   1.775   2.536 -0.6615 -0.2754 -0.8452
19169SOL    HW258086   6.361   1.638   2.492 -0.7713 -0.3663 -0.6873
19170SOL     OW58087   6.271   1.516   9.617  0.0750 -0.6425  0.3239
19170SOL    HW158088   6.360   1.497   9.646 -0.7393 -0.3624  3.3450
19170SOL    HW258089   6.266   1.479   9.529  3.5541  0.5995 -0.5371
19171SOL     OW58090   8.881   9.470   8.679 -0.7842 -0.1557 -0.1614
19171SOL    HW158091   8.865   9.540   8.617 -1.7081  0.4260  0.6985
19171SOL    HW258092   8.842   9.392   8.639  2.7591 -0.9637 -2.4902
19172SOL     OW58093   2.036   5.114   9.783 -0.1092  0.1184 -0.1636
19172SOL    HW158094   1.945   5.139   9.770  0.1078  0.7066 -0.6350
19172SOL    HW258095   2.074   5.188   9.830 -0.1602 -0.6634  1.1366
19173SOL     OW58096   5.539   9.865   7.933  0.3167 -0.4897  0.6674
19173SOL    HW158097   5.615   9.867   7.873  0.1995  0.0736  0.5328
19173SOL    HW258098   5.502   9.778   7.921 -0.7167  0.1539 -1.3737
19174SOL     OW58099   0.778   5.297   0.062  0.1045  0.3331  0.1346
19174SOL    HW158100   0.724   5.376   0.057 -0.1959  0.1278  0.0374
19174SOL    HW258101   0.747   5.244  -0.012  0.2701  0.1076  0.2293
19175SOL     OW58102   7.172   9.971   6.839 -0.6284  0.3528 -0.2445
19175SOL    HW158103   7.231   9.896   6.828 -1.0741 -0.1049  0.3710
19175SOL    HW258104   7.229  10.047   6.837 -0.3089  0.1034 -2.1879
19176SOL     OW58105   2.745   9.798   4.043 -0.0222 -0.0705  0.3007
19176SOL    HW158106   2.734   9.713   4.085  0.8942 -0.8149 -0.8894
19176SOL    HW258107   2.656   9.823   4.017 -0.8177  0.9412  3.4910
19177SOL     OW58108   6.085   5.464   0.651  0.0751  0.1845 -0.5774
19177SOL    HW158109   6.052   5.430   0.568 -2.6074 -2.6631  1.4401
19177SOL    HW258110   6.175   5.431   0.657 -1.0494 -3.1984 -0.6203
19178SOL     OW58111   4.116   5.011   4.515  0.4387  0.1038  0.1410
19178SOL    HW158112   4.083   4.929   4.479 -1.7366  1.3104 -0.8353
19178SOL    HW258113   4.191   4.986   4.569 -1.2752 -2.7485  1.4199
19179SOL     OW58114   2.669   2.249   1.044  0.4216  0.1833 -0.1092
19179SOL    HW158115   2.648   2.300   1.123  1.3032  0.8932 -0.3203
19179SOL    HW258116   2.604   2.276   0.980 -0.4762 -0.6008  0.4377
19180SOL     OW58117   2.047   8.169   9.268 -0.5237 -0.0752  0.1027
19180SOL    HW158118   2.060   8.257   9.303 -0.2922  0.1794 -0.6035
19180SOL    HW258119   2.023   8.116   9.344 -0.4419  0.5484  0.5712
19181SOL     OW58120   2.638   3.111   4.816  0.2077  0.1248 -0.3474
19181SOL    HW158121   2.714   3.168   4.829 -0.6987  1.5361 -0.9330
19181SOL    HW258122   2.611   3.088   4.905 -0.3962  2.0321  0.0232
19182SOL     OW58123   8.158   9.396   3.368  0.3061  0.1490  0.1077
19182SOL    HW158124   8.215   9.453   3.317  0.5099  1.0373  1.2890
19182SOL    HW258125   8.077   9.446   3.377  0.4356  0.1978  1.0339
19183SOL     OW58126   2.547   5.340   6.429 -0.3247 -0.4359  0.4644
19183SOL    HW158127   2.566   5.307   6.517 -1.3976 -2.0279  0.1394
19183SOL    HW258128   2.628   5.324   6.380 -0.3184 -1.1919  0.7097
19184SOL     OW58129   7.070   6.656   6.724 -0.3528  0.2770 -0.3782
19184SOL    HW158130   7.043   6.717   6.656 -1.0347 -0.3015 -0.6342
19184SOL    HW258131   7.040   6.696   6.806 -1.1304  0.1155 -0.5779
19185SOL     OW58132   6.746   1.652   1.950  0.3561 -0.1942  0.8513
19185SOL    HW158133   6.700   1.590   1.894 -0.9666  1.5295 -0.0829
19185SOL    HW258134   6.696   1.652   2.031 -0.1372  0.2142  0.5567
19186SOL     OW58135   0.110   9.523   8.292 -0.2084  0.4925  0.5059
19186SOL    HW158136   0.044   9.514   8.361 -0.8612 -2.1859 -0.3464
19186SOL    HW258137   0.097   9.447   8.236  1.4394  1.6607 -1.6269
19187SOL     OW58138   0.557   1.305   5.467  0.2060 -0.0141  0.2533
19187SOL    HW158139   0.490   1.367   5.438  1.3799  1.1840  0.0422
19187SOL    HW258140   0.519   1.219   5.447 -0.9257  0.6545 -0.6300
19188SOL     OW58141   7.400   4.458   6.629  0.0427  0.1682  0.4831
19188SOL    HW158142   7.402   4.495   6.718 -1.8581  1.7110 -0.0518
19188SOL    HW258143   7.317   4.488   6.593  1.6213  1.2323 -2.5327
19189SOL     OW58144   0.836   8.944   0.014  0.1955 -0.3559  0.1004
19189SOL    HW158145   0.864   9.025  -0.028  0.7473 -0.4722  0.2321
19189SOL    HW258146   0.760   8.969   0.066  0.7783  0.2244  0.6895
19190SOL     OW58147   3.382   1.089   0.097  0.1364 -0.0538  0.2689
19190SOL    HW158148   3.341   1.163   0.052 -2.0668 -0.8555  0.8650
19190SOL    HW258149   3.376   1.016   0.035  2.4106  0.2121 -0.3682
19191SOL     OW58150   0.074   0.284   9.824  0.2948  0.1473  0.1145
19191SOL    HW158151   0.079   0.299   9.729  0.2396  2.3363  0.4101
19191SOL    HW258152   0.114   0.198   9.836 -2.0364 -1.4226 -2.1599
19192SOL     OW58153   7.302   8.419   3.789 -0.1478 -0.3523  0.1328
19192SOL    HW158154   7.305   8.324   3.800 -2.3413 -0.3948  0.9678
19192SOL    HW258155   7.306   8.453   3.879 -1.2277  0.2362 -0.0333
19193SOL     OW58156   8.274   1.040   9.880  0.7609  0.0707  0.1349
19193SOL    HW158157   8.345   0.987   9.844  0.8105  0.5841 -0.5404
19193SOL    HW258158   8.194   0.999   9.846  0.7066 -0.6504  1.0875
19194SOL     OW58159   8.407   5.452   6.501 -0.2737 -0.2242  0.1565
19194SOL    HW158160   8.401   5.514   6.428 -1.9209  1.0234  1.2743
19194SOL    HW258161   8.476   5.488   6.558 -1.0484  0.4937  0.6738
19195SOL     OW58162   2.576   4.787   9.955  0.0070  0.6414  0.1055
19195SOL    HW158163   2.620   4.859   9.910 -0.0376  1.3560  1.1957
19195SOL    HW258164   2.648   4.733   9.990  0.0346  1.2227  0.9604
19196SOL     OW58165   6.614   3.161   1.985  0.1516  0.0069  0.1165
19196SOL    HW158166   6.530   3.208   1.982 -0.0279 -0.1219  1.8524
19196SOL    HW258167   6.679   3.226   1.958 -0.2551  0.8581  1.1092
19197SOL     OW58168   9.432   7.303   5.714 -0.2138 -0.1051 -0.1257
19197SOL    HW158169   9.466   7.319   5.802 -1.1134  0.3479  0.1542
19197SOL    HW258170   9.432   7.389   5.672 -1.4304 -0.0036  0.0461
19198SOL     OW58171   1.600   8.159   1.329 -0.4302 -0.3982  0.0800
19198SOL    HW158172   1.546   8.081   1.315  0.0547 -0.5396 -1.1452
19198SOL    HW258173   1.690   8.128   1.316 -0.2678  0.4603 -0.9209
19199SOL     OW58174   2.375   4.994   5.777 -0.0697 -0.3039  0.1196
19199SOL    HW158175   2.317   5.070   5.775  2.8913  2.1428  0.0266
19199SOL    HW258176   2.415   4.993   5.690  3.5686  1.2332  1.5817
19200SOL     OW58177   1.899   2.061   4.399  0.5668 -0.0734 -0.0116
19200SOL    HW158178   1.979   2.056   4.451  1.8792  1.1972 -1.7926
19200SOL    HW258179   1.833   2.094   4.461  1.3333 -1.2349  1.5153
19201SOL     OW58180   2.473   6.722   1.320 -0.3349 -0.2187 -0.1027
19201SOL    HW158181   2.483   6.814   1.348 -0.1978 -0.1972 -0.2223
19201SOL    HW258182   2.550   6.705   1.266  0.5878 -0.9435  1.3661
19202SOL     OW58183   7.066   4.361   3.621  0.0062  0.6487 -0.0774
19202SOL    HW158184   7.000   4.324   3.679  1.7093  0.3629  1.7733
19202SOL    HW258185   7.027   4.355   3.534 -1.2513 -2.1691  0.5634
19203SOL     OW58186   0.675   2.402   0.189  0.9549 -0.2049  0.0134
19203SOL    HW158187   0.643   2.317   0.220  2.1136 -0.6616 -0.0158
19203SOL    HW258188   0.595   2.453   0.173  0.2477 -1.2520  0.1200
19204SOL     OW58189   0.184   4.553   4.553  0.6486 -0.1286  0.5278
19204SOL    HW158190   0.138   4.472   4.575 -0.6307  0.6142  0.6465
19204SOL    HW258191   0.216   4.586   4.637  1.1574 -0.4891  0.4815
19205SOL     OW58192   9.743   9.534   0.508  0.6381  0.3000 -0.1650
19205SOL    HW158193   9.758   9.598   0.578  0.3498 -0.7051  0.8583
19205SOL    HW258194   9.675   9.573   0.453 -0.9786  0.0665  1.5574
19206SOL     OW58195   3.201   9.716   8.857 -0.2842 -0.5106 -0.0714
19206SOL    HW158196   3.216   9.655   8.785 -0.5580 -0.9740  0.2585
19206SOL    HW258197   3.182   9.660   8.933 -2.6697 -0.0008 -0.2109
19207SOL     OW58198   6.588   8.175   6.729 -0.2183 -0.0464  0.6999
19207SOL    HW158199   6.681   8.157   6.741  0.2802  1.1867 -1.0269
19207SOL    HW258200   6.563   8.124   6.652 -0.7120  0.4634  0.5126
19208SOL     OW58201   8.070   4.979   9.841  0.0628  0.0770  0.0488
19208SOL    HW158202   8.052   4.885   9.832 -1.3287  0.4126 -1.1396
19208SOL    HW258203   8.055   5.014   9.753  0.7229  1.3999  0.4412
19209SOL     OW58204   5.230   4.345   8.524  0.1193  0.1951 -0.3945
19209SOL    HW158205   5.267   4.407   8.461 -1.7918  1.2407 -0.5704
19209SOL    HW258206   5.244   4.259   8.485 -0.1983  0.7629 -1.8199
19210SOL     OW58207   2.797   3.546   6.915 -0.4302  0.1299 -0.3988
19210SOL    HW158208   2.886   3.568   6.886  0.0169 -0.8281  0.2077
19210SOL    HW258209   2.810   3.488   6.989 -1.5394 -1.6986 -1.5762
19211SOL     OW58210   4.698   0.942   1.903  0.7106 -0.3659 -0.1171
19211SOL    HW158211   4.724   1.032   1.884  0.8890 -0.4067 -0.0650
19211SOL    HW258212   4.780   0.897   1.925  0.9579 -1.0823 -2.2543
19212SOL     OW58213   3.462   7.129   7.180  0.2081  0.6320  0.2093
19212SOL    HW158214   3.468   7.033   7.186  0.2216  0.6113 -0.1000
19212SOL    HW258215   3.510   7.161   7.257  0.1324  0.3888  0.3580
19213SOL     OW58216   1.953   2.846   2.692  0.0678 -0.0259  0.4954
19213SOL    HW158217   2.028   2.798   2.658 -1.6390 -1.0739 -2.0743
19213SOL    HW258218   1.976   2.939   2.680  0.7037 -0.3389 -0.8515
19214SOL     OW58219   5.158   2.135   5.906  0.4074 -0.2414  0.0736
19214SOL    HW158220   5.095   2.171   5.843  0.4514 -2.2385 -1.1869
19214SOL    HW258221   5.189   2.212   5.955 -1.9564  0.9828 -0.1829
19215SOL     OW58222   4.795   8.947   5.810 -0.9358  0.0109 -0.0607
19215SOL    HW158223   4.755   8.985   5.888  0.1857  0.5114  0.2948
19215SOL    HW258224   4.888   8.968   5.818 -0.3150 -2.3845 -0.1143
19216SOL     OW58225   9.303   2.798   2.851  0.3659 -0.2852 -0.5323
19216SOL    HW158226   9.220   2.840   2.826  0.3594 -1.6981 -3.3036
19216SOL    HW258227   9.370   2.865   2.833 -0.0748  1.3570  2.9625
19217SOL     OW58228   5.950   4.130   6.498  0.1355 -0.1946 -0.3682
19217SOL    HW158229   6.032   4.097   6.461  0.6749  1.3232 -0.6125
19217SOL    HW258230   5.884   4.065   6.473  1.1146 -1.0086 -0.8981
19218SOL     OW58231   0.833   1.006   2.080 -0.0603  0.1933 -0.0368
19218SOL    HW158232   0.925   0.980   2.072 -0.7243 -2.3474 -0.2630
19218SOL    HW258233   0.784   0.934   2.040 -2.2379  0.5002  1.8438
19219SOL     OW58234   2.531   0.874   8.474  0.1203 -0.0169 -0.2163
19219SOL    HW158235   2.470   0.832   8.536  0.7520  2.2985  2.1420
19219SOL    HW258236   2.608   0.817   8.475 -0.4538 -0.8253 -0.1220
19220SOL     OW58237   9.194   9.371   2.534  0.3424  0.5129  0.1012
19220SOL    HW158238   9.135   9.374   2.459 -0.4313  1.1790  0.7158
19220SOL    HW258239   9.233   9.284   2.530 -1.6407 -0.4476  0.3849
19221SOL     OW58240   3.062   0.044   3.088 -0.4475 -0.2614  0.2076
19221SOL    HW158241   3.103  -0.023   3.142 -1.5437 -0.8776  0.3164
19221SOL    HW258242   3.128   0.067   3.023 -0.1168 -1.6116  0.0417
19222SOL     OW58243   9.302   8.966   3.757  0.6850 -0.1688  0.1128
19222SOL    HW158244   9.361   8.953   3.831  2.2487 -1.8625 -1.3433
19222SOL    HW258245   9.310   8.886   3.705 -1.9684  0.0700 -0.8394
19223SOL     OW58246   4.194   8.569   9.532 -0.1777  0.5587  0.0945
19223SOL    HW158247   4.208   8.643   9.472 -1.6858  0.2362 -0.6973
19223SOL    HW258248   4.136   8.510   9.484  1.2401 -1.3177  0.5756
19224SOL     OW58249   1.412   5.930   8.131 -0.3163 -0.1380 -0.4103
19224SOL    HW158250   1.376   5.867   8.069  0.7045 -0.5437 -0.6071
19224SOL    HW258251   1.384   5.898   8.217 -1.7245  0.4224 -0.6417
19225SOL     OW58252   9.339   0.687   4.179  0.6352 -0.3649 -0.2085
19225SOL    HW158253   9.391   0.611   4.205  1.1102 -1.0813 -2.9094
19225SOL    HW258254   9.260   0.682   4.232  2.0452 -0.8576  1.9818
19226SOL     OW58255   3.429   7.405   7.877 -0.4076 -0.4658 -1.0908
19226SOL    HW158256   3.512   7.440   7.909 -1.0667  1.6706 -1.5271
19226SOL    HW258257   3.385   7.373   7.955 -0.5157  1.4424 -0.3097
19227SOL     OW58258   2.943   4.940   8.774  0.5103  0.5322  0.3703
19227SOL    HW158259   2.878   4.954   8.705 -0.3569 -1.1490  0.8002
19227SOL    HW258260   2.975   4.851   8.759  2.1438  1.0284  0.6713
19228SOL     OW58261   8.283   4.687   1.315 -0.1869 -0.1671 -0.0803
19228SOL    HW158262   8.367   4.654   1.281  1.3390 -0.3961  3.4265
19228SOL    HW258263   8.308   4.744   1.388 -3.0982  0.2669  0.6870
19229SOL     OW58264   4.123   1.424   3.359 -0.9896 -0.1089 -0.1891
19229SOL    HW158265   4.080   1.384   3.283 -1.7739  2.0463 -0.9867
19229SOL    HW258266   4.215   1.403   3.348 -1.3309 -1.4291 -0.6908
19230SOL     OW58267   7.522   0.608   4.761 -0.3829 -0.1782  0.3530
19230SOL    HW158268   7.462   0.620   4.835  1.1588 -3.6069  2.3913
19230SOL    HW258269   7.597   0.663   4.781 -1.2733  1.3741 -0.3955
19231SOL     OW58270   1.722   8.816   3.307 -0.0119 -0.0121  0.3330
19231SOL    HW158271   1.715   8.729   3.346  0.1245 -0.0724  0.2261
19231SOL    HW258272   1.638   8.858   3.325  0.7659  0.7466  2.5693
19232SOL     OW58273   2.779   5.692   0.140 -0.3638  0.3788 -0.9885
19232SOL    HW158274   2.732   5.714   0.220  1.4123  0.9401 -0.0509
19232SOL    HW258275   2.856   5.644   0.169  0.1324  0.2660 -2.3970
19233SOL     OW58276   9.168   5.425   8.046  1.0327 -0.0179 -0.5421
19233SOL    HW158277   9.144   5.396   8.134  0.3373 -1.9926 -1.3218
19233SOL    HW258278   9.240   5.486   8.059  0.0055  0.8478  1.4721
19234SOL     OW58279   8.872   3.200   1.812 -0.1185  0.2040  0.0116
19234SOL    HW158280   8.870   3.136   1.883  0.1636  0.5939  0.3754
19234SOL    HW258281   8.803   3.263   1.834 -0.1853  0.1993 -0.1806
19235SOL     OW58282   8.530   3.073   0.155  0.0603 -0.0636 -0.0316
19235SOL    HW158283   8.531   3.021   0.075  1.3824 -1.8802  1.0876
19235SOL    HW258284   8.495   3.013   0.222 -1.2739  1.4934  0.7370
19236SOL     OW58285   9.691   1.874   7.071 -0.4044  0.4634  0.4347
19236SOL    HW158286   9.784   1.857   7.059 -0.5645 -0.1955  0.0974
19236SOL    HW258287   9.687   1.944   7.137  0.3047  0.1451  0.8197
19237SOL     OW58288   7.669   4.869   0.366  0.2397 -0.0922  0.3595
19237SOL    HW158289   7.672   4.900   0.457 -0.2477  0.0532  0.3274
19237SOL    HW258290   7.642   4.945   0.315 -0.1596 -0.3539  0.1781
19238SOL     OW58291   1.739   0.318   4.693  0.2495 -0.0248 -0.0091
19238SOL    HW158292   1.732   0.321   4.788 -0.2680 -0.1532 -0.0368
19238SOL    HW258293   1.758   0.408   4.667 -1.0110  0.3000  0.1256
19239SOL     OW58294   7.887   1.178   3.727 -0.5971  0.0997  0.5139
19239SOL    HW158295   7.887   1.094   3.682  1.6859 -0.3295  1.1871
19239SOL    HW258296   7.938   1.163   3.807 -2.1375  1.5516  1.8666
19240SOL     OW58297   6.660   9.586   5.683  0.3353 -0.2638  0.1416
19240SOL    HW158298   6.741   9.562   5.728  1.2080  0.2821 -1.0746
19240SOL    HW258299   6.609   9.505   5.681  0.7771 -0.5849  1.0406
19241SOL     OW58300   7.406   9.764   2.468  0.1961 -0.0587 -0.1364
19241SOL    HW158301   7.401   9.706   2.545 -0.7563 -1.1344 -0.9699
19241SOL    HW258302   7.346   9.725   2.405  0.2456  1.3448 -1.0916
19242SOL     OW58303   8.312   8.356   1.468 -0.0401 -0.6414  0.3268
19242SOL    HW158304   8.408   8.350   1.472 -0.0553 -0.5535  1.0411
19242SOL    HW258305   8.294   8.449   1.478 -0.2386 -0.7962  1.7054
19243SOL     OW58306   8.959   0.504   6.757  0.4321  0.0065 -0.2662
19243SOL    HW158307   9.006   0.587   6.749  0.3964  0.0437 -0.0935
19243SOL    HW258308   8.968   0.463   6.671  0.1660  0.3386 -0.4554
19244SOL     OW58309   7.407   2.402   8.452 -0.0199  0.0527 -0.6715
19244SOL    HW158310   7.374   2.356   8.529  2.3481  0.5914  0.7880
19244SOL    HW258311   7.392   2.342   8.379 -2.7025 -0.3001  0.0626
19245SOL     OW58312   6.046   7.398   6.351 -0.2868  0.5929  0.3127
19245SOL    HW158313   6.102   7.468   6.317 -1.7870  0.9993 -1.4747
19245SOL    HW258314   6.047   7.411   6.446  2.6043  0.5543  0.3804
19246SOL     OW58315   0.380   9.647   7.193  0.6921  0.1218 -0.0258
19246SOL    HW158316   0.377   9.653   7.098 -2.1121  2.0606  0.0735
19246SOL    HW258317   0.407   9.734   7.222 -0.3787  0.1602  0.9434
19247SOL     OW58318   4.099   2.126   3.954 -0.4700  0.4618 -0.3667
19247SOL    HW158319   4.188   2.147   3.925 -0.5684  0.0734 -0.9762
19247SOL    HW258320   4.061   2.076   3.881 -0.8883 -0.1480  0.2581
19248SOL     OW58321   5.960   3.813   4.796 -1.1268 -0.4002  0.4969
19248SOL    HW158322   6.013   3.890   4.774 -3.0364  0.3580 -1.9850
19248SOL    HW258323   5.932   3.827   4.886 -0.4767  1.2245  0.4771
19249SOL     OW58324   9.526   3.851   3.731  0.1428  0.6900 -0.0146
19249SOL    HW158325   9.595   3.854   3.797 -0.9530 -0.4923  1.2754
19249SOL    HW258326   9.468   3.923   3.754  0.0815  0.6561 -0.0618
19250SOL     OW58327   1.837   3.401   2.741  0.2022 -0.1355  0.1429
19250SOL    HW158328   1.885   3.483   2.756 -0.8754  0.4076  0.8102
19250SOL    HW258329   1.834   3.359   2.827  0.9513 -1.0018 -0.2470
19251SOL     OW58330   5.427   4.581   9.253  0.5157 -0.5613 -0.0945
19251SOL    HW158331   5.436   4.670   9.289 -1.2078  0.7489 -2.5933
19251SOL    HW258332   5.464   4.587   9.164  0.2876 -2.3476 -0.3501
19252SOL     OW58333   1.080   7.724   2.428  0.2430  0.2490 -0.6014
19252SOL    HW158334   1.100   7.777   2.505  0.4633  0.6122 -0.8992
19252SOL    HW258335   1.037   7.785   2.368 -0.6497 -0.2314 -0.4525
19253SOL     OW58336   9.942   6.561   5.590  0.3181 -0.6139  0.2994
19253SOL    HW158337  10.036   6.561   5.573  0.0515 -0.7511 -1.2637
19253SOL    HW258338   9.911   6.478   5.553 -0.5202 -0.2838  0.2457
19254SOL     OW58339   8.692   5.478   0.105 -0.0989  0.5047 -0.0585
19254SOL    HW158340   8.679   5.410   0.171  1.7843  0.9798  0.8893
19254SOL    HW258341   8.738   5.434   0.034 -0.2047  0.4539 -0.0945
19255SOL     OW58342   4.079   6.654   9.679  0.0563 -0.1595  0.1933
19255SOL    HW158343   3.999   6.612   9.648 -1.0938  2.4326 -0.6161
19255SOL    HW258344   4.146   6.627   9.617 -0.8536 -0.0728 -0.8727
19256SOL     OW58345   6.908   0.957   8.276 -0.0444 -0.0420 -0.0816
19256SOL    HW158346   6.849   1.028   8.300  3.0813  1.9719  2.3443
19256SOL    HW258347   6.890   0.888   8.340 -1.5881 -0.6674 -1.1176
19257SOL     OW58348   0.420   3.265   8.481 -0.0109 -0.1554  0.7817
19257SOL    HW158349   0.437   3.215   8.561  1.5601 -0.1693  0.4744
19257SOL    HW258350   0.365   3.208   8.428  0.6945 -1.0485  0.9759
19258SOL     OW58351   3.682   8.791   3.185  0.0933  0.2970 -1.0407
19258SOL    HW158352   3.607   8.828   3.138 -0.7038  2.1358  1.4948
19258SOL    HW258353   3.651   8.780   3.275  2.4705 -0.1704 -0.2182
19259SOL     OW58354   4.950   2.700   9.479  0.5338  0.0613  0.4190
19259SOL    HW158355   4.957   2.753   9.399  0.6361 -1.3030 -0.5175
19259SOL    HW258356   4.856   2.692   9.494  0.5107  0.1098  0.3022
19260SOL     OW58357   2.727   7.992   3.355 -0.0622  0.5165 -0.1863
19260SOL    HW158358   2.649   7.945   3.324  0.6684 -0.7243 -0.1985
19260SOL    HW258359   2.693   8.053   3.421 -0.6411 -2.8886  2.9648
19261SOL     OW58360   9.711   9.529   6.934 -0.4106 -0.4488 -0.0100
19261SOL    HW158361   9.799   9.553   6.961 -0.3665  2.1912 -2.1079
19261SOL    HW258362   9.655   9.554   7.007  0.2841  0.9879  0.0640
19262SOL     OW58363   9.420   9.190   5.454 -0.0074  0.7143 -0.8005
19262SOL    HW158364   9.458   9.138   5.525 -0.0896  0.3191 -1.0378
19262SOL    HW258365   9.348   9.136   5.421  0.7565  0.3621 -1.9425
19263SOL     OW58366   6.119   1.963   2.233 -0.0975  0.1035 -0.7880
19263SOL    HW158367   6.069   1.882   2.243  2.2334 -1.4352 -0.9017
19263SOL    HW258368   6.190   1.941   2.173  3.2613  0.8282  2.5469
19264SOL     OW58369   2.431   8.324   9.714  0.0543 -0.4047 -0.2107
19264SOL    HW158370   2.373   8.315   9.639 -2.0141 -0.2610  1.2807
19264SOL    HW258371   2.487   8.398   9.693 -1.8554  0.9393 -0.7881
19265SOL     OW58372   4.321   3.092   4.443 -0.0959  0.7143 -0.3622
19265SOL    HW158373   4.383   3.131   4.505  0.1755 -0.1127 -0.0914
19265SOL    HW258374   4.241   3.081   4.495  0.2498 -0.3373 -0.0229
19266SOL     OW58375   3.752   3.490   7.154  0.6248  0.1690  0.5268
19266SOL    HW158376   3.820   3.507   7.219  0.5051  0.8685  0.4688
19266SOL    HW258377   3.799   3.482   7.071  0.6126  0.9536  0.4387
19267SOL     OW58378   0.817   2.845   6.240  0.1463  0.2380  0.0730
19267SOL    HW158379   0.892   2.896   6.270 -0.5279  2.2535 -1.4670
19267SOL    HW258380   0.814   2.860   6.146 -0.7633 -1.8093 -0.2744
19268SOL     OW58381   6.477   5.252   9.586 -0.3757 -0.0146 -0.4502
19268SOL    HW158382   6.385   5.275   9.602 -0.1796  0.6773 -0.3343
19268SOL    HW258383   6.478   5.156   9.591 -1.2519 -0.0902 -1.3007
19269SOL     OW58384   9.147   5.549   7.213 -0.2959  0.2660 -0.3962
19269SOL    HW158385   9.222   5.514   7.164  0.1725 -0.3943  0.7717
19269SOL    HW258386   9.143   5.641   7.186  0.7076  0.2205 -0.7532
19270SOL     OW58387   0.270   9.444   8.753  0.7419 -0.2260  0.5259
19270SOL    HW158388   0.192   9.418   8.703  0.2716  0.1698  1.0321
19270SOL    HW258389   0.266   9.540   8.755  0.5701 -0.2357  1.5724
19271SOL     OW58390   7.430   4.706   3.739  0.0922 -0.0930 -0.1166
19271SOL    HW158391   7.481   4.784   3.757  1.2448 -0.6135 -1.0296
19271SOL    HW258392   7.449   4.647   3.812 -0.5216  0.3308  0.4000
19272SOL     OW58393   5.335   3.753   7.180 -0.0058  0.7727 -0.3081
19272SOL    HW158394   5.388   3.700   7.240 -0.1356 -0.5057 -1.2900
19272SOL    HW258395   5.399   3.798   7.125  0.0974 -0.1338 -0.9528
19273SOL     OW58396   8.802   5.720   3.710  0.9866  0.0235  0.6095
19273SOL    HW158397   8.832   5.779   3.779  0.2447  0.1149  0.8696
19273SOL    HW258398   8.871   5.722   3.644  0.2073  2.5797 -0.2288
19274SOL     OW58399   2.573   7.091   8.738  0.0375 -0.6087 -0.5892
19274SOL    HW158400   2.640   7.068   8.674 -0.2372 -0.8666 -0.7891
19274SOL    HW258401   2.621   7.120   8.815  0.4395 -2.7129  0.0099
19275SOL     OW58402   8.125   6.781   0.933 -0.1312 -0.7216  0.2892
19275SOL    HW158403   8.141   6.705   0.988  0.5767  0.0919  1.2331
19275SOL    HW258404   8.212   6.815   0.912 -0.3900 -0.8509 -1.1233
19276SOL     OW58405   2.169   6.940   4.782 -0.3736 -0.4693 -0.3069
19276SOL    HW158406   2.121   6.957   4.863 -1.6788 -2.3326 -0.6068
19276SOL    HW258407   2.130   6.999   4.718  0.0992  0.4329  0.2266
19277SOL     OW58408   8.323   6.851   6.000  0.2996 -0.0273 -0.3575
19277SOL    HW158409   8.275   6.805   6.068  0.3699  0.2833 -0.0942
19277SOL    HW258410   8.378   6.784   5.960  0.7255 -0.0975  0.3128
19278SOL     OW58411   5.249   0.277   3.871  0.7161  0.1491  1.0120
19278SOL    HW158412   5.342   0.296   3.885  1.3853 -0.4778 -1.9638
19278SOL    HW258413   5.227   0.324   3.791 -1.3965 -0.2823  1.2867
19279SOL     OW58414   8.433   8.636   8.298 -0.2351  0.0872 -0.3218
19279SOL    HW158415   8.495   8.612   8.367 -0.0538  1.3119 -0.0342
19279SOL    HW258416   8.475   8.607   8.217  0.9136  1.2095 -0.1707
19280SOL     OW58417   6.699   4.844   2.701 -0.0963  0.0468 -0.1762
19280SOL    HW158418   6.628   4.903   2.727 -0.3880 -0.4207  0.1190
19280SOL    HW258419   6.749   4.830   2.781  1.2731  1.6095 -0.7245
19281SOL     OW58420   2.642   6.349   7.171 -0.3811  0.0839 -0.1455
19281SOL    HW158421   2.662   6.284   7.238  1.3116  0.9198  0.2126
19281SOL    HW258422   2.594   6.417   7.218  1.0756  0.8194  0.3437
19282SOL     OW58423   4.757   8.812   0.660  0.6206  0.3482  0.3644
19282SOL    HW158424   4.663   8.829   0.658  0.6099  0.2946 -1.6260
19282SOL    HW258425   4.771   8.763   0.741 -1.1504 -0.1749  0.3927
19283SOL     OW58426   7.753   0.093   6.002 -0.5742 -0.5609 -0.3766
19283SOL    HW158427   7.766   0.000   6.024 -0.8283 -0.9833 -1.9067
19283SOL    HW258428   7.732   0.134   6.086  0.6654 -1.6662  0.5229
19284SOL     OW58429   7.788   4.333   6.301 -0.0501 -0.1678  0.5179
19284SOL    HW158430   7.820   4.266   6.362 -0.1991 -0.7246 -0.0066
19284SOL    HW258431   7.698   4.307   6.281 -0.6224  0.9991  1.4316
19285SOL     OW58432   9.201   2.854   0.428 -0.3764 -0.0033 -0.3921
19285SOL    HW158433   9.225   2.761   0.419  0.0808 -0.0971  1.4049
19285SOL    HW258434   9.209   2.871   0.521  0.2398  2.0501 -0.7800
19286SOL     OW58435   8.690   7.626   9.880 -0.9692  0.5681 -0.3113
19286SOL    HW158436   8.746   7.632   9.957 -2.7407  0.8650  1.0059
19286SOL    HW258437   8.689   7.715   9.844  0.8879  0.1760 -1.5225
19287SOL     OW58438   4.072   7.767   3.210  0.3270 -0.9709 -0.5187
19287SOL    HW158439   4.063   7.778   3.115 -0.8530 -0.0105 -0.3114
19287SOL    HW258440   4.135   7.834   3.236 -1.6456  0.8548 -0.2292
19288SOL     OW58441   5.899   9.122   9.489 -0.1089 -0.0106  0.9933
19288SOL    HW158442   5.939   9.052   9.540 -0.5394 -0.7965  0.2629
19288SOL    HW258443   5.973   9.178   9.463  0.3340 -0.6565  0.8538
19289SOL     OW58444   7.785   8.434   6.074  0.2573  0.8581 -0.6168
19289SOL    HW158445   7.690   8.448   6.077 -0.0387 -1.0624 -0.1536
19289SOL    HW258446   7.806   8.395   6.158  1.3598  0.6339 -0.9883
19290SOL     OW58447   3.660   7.856   5.334  0.3898  0.1295  0.5015
19290SOL    HW158448   3.659   7.888   5.244 -1.3523  0.4048  0.5816
19290SOL    HW258449   3.734   7.796   5.338  0.3371 -0.0805 -1.1927
19291SOL     OW58450   0.273   0.201   7.981  0.5586 -0.0835  0.3257
19291SOL    HW158451   0.338   0.236   7.919 -0.1871  1.8999  0.5994
19291SOL    HW258452   0.230   0.130   7.933 -2.8032  3.8064 -3.2541
19292SOL     OW58453   9.478   3.614   0.123  0.2939 -0.2585  0.3445
19292SOL    HW158454   9.461   3.608   0.217  1.9421 -0.6723  0.6583
19292SOL    HW258455   9.392   3.627   0.083 -0.3256  0.8932  1.9791
19293SOL     OW58456   2.536   2.159   2.342 -0.1972  0.7945  0.6598
19293SOL    HW158457   2.555   2.220   2.271  0.8221  0.7150  0.8470
19293SOL    HW258458   2.457   2.193   2.383 -1.7460 -0.0092 -1.4627
19294SOL     OW58459   4.499   5.369   0.355 -0.1870 -0.4556 -0.0196
19294SOL    HW158460   4.571   5.432   0.353 -1.5863  1.2573  0.3898
19294SOL    HW258461   4.521   5.305   0.288  1.0662  0.7770 -0.8423
19295SOL     OW58462   1.399   2.640   6.540 -0.2763 -0.7737 -0.8135
19295SOL    HW158463   1.477   2.630   6.595 -0.6420 -0.3924 -0.2161
19295SOL    HW258464   1.432   2.681   6.460  0.1795 -0.8611 -0.6762
19296SOL     OW58465   1.013   7.649   4.342 -0.1429 -0.2325 -0.2154
19296SOL    HW158466   1.068   7.727   4.337 -0.6237  0.1345  0.1041
19296SOL    HW258467   0.929   7.676   4.305 -0.2212 -0.6943 -0.3952
19297SOL     OW58468   2.464   0.288   1.350 -0.9233  0.2872 -0.6017
19297SOL    HW158469   2.459   0.373   1.394  0.7618  0.6017 -0.9320
19297SOL    HW258470   2.544   0.293   1.297  0.5982 -2.3104  1.1697
19298SOL     OW58471   8.822   6.488   9.494  0.2107  0.0389 -0.0691
19298SOL    HW158472   8.783   6.572   9.518  1.4066  0.5753  0.0538
19298SOL    HW258473   8.912   6.493   9.526  0.0416 -1.6510  0.7540
19299SOL     OW58474   4.561   5.275   9.635  0.1851 -0.2561 -0.3464
19299SOL    HW158475   4.468   5.257   9.642 -0.0121  1.0101  0.5312
19299SOL    HW258476   4.582   5.256   9.544 -0.5467 -2.1863 -0.1509
19300SOL     OW58477   1.507   6.470   8.428  0.0691  0.4448 -0.1382
19300SOL    HW158478   1.443   6.471   8.357  0.8620  0.1657 -0.8762
19300SOL    HW258479   1.462   6.424   8.500 -0.2593 -0.5417 -0.9372
19301SOL     OW58480   9.751   7.794   0.123  0.4608 -0.4143 -0.2497
19301SOL    HW158481   9.791   7.738   0.190  0.2779 -0.7720 -0.4328
19301SOL    HW258482   9.678   7.837   0.168  0.4202 -0.5523 -0.1805
19302SOL     OW58483   4.501   4.085   6.176 -0.3370  0.5761  0.1932
19302SOL    HW158484   4.455   4.124   6.102 -0.4082  1.5599  0.7352
19302SOL    HW258485   4.589   4.124   6.174 -0.7017  1.5286  1.2872
19303SOL     OW58486   7.924   5.807   1.176  0.0762 -0.1118  0.7513
19303SOL    HW158487   7.842   5.813   1.225 -0.3091  0.8826  0.0149
19303SOL    HW258488   7.912   5.866   1.101  1.0436 -0.7893  0.0295
19304SOL     OW58489   8.109   3.400   9.619 -0.3019 -0.1134  0.4656
19304SOL    HW158490   8.098   3.314   9.661  0.2140  0.5656  2.0643
19304SOL    HW258491   8.124   3.460   9.691  1.8358  0.9384 -0.7475
19305SOL     OW58492   0.130   1.915   6.835 -0.1902 -0.3698 -0.2035
19305SOL    HW158493   0.206   1.907   6.892 -0.3418 -1.3878 -0.1151
19305SOL    HW258494   0.162   1.965   6.760  0.5828 -0.7881 -0.1734
19306SOL     OW58495   4.656   5.306   6.214  0.4359 -0.0526  0.0817
19306SOL    HW158496   4.740   5.350   6.200 -0.0504  0.8721 -0.0162
19306SOL    HW258497   4.606   5.367   6.268 -0.2004 -0.5683  0.0873
19307SOL     OW58498   0.746   0.758   3.261 -0.4432 -0.0420  0.0812
19307SOL    HW158499   0.652   0.740   3.254 -0.1515 -1.3999 -0.8373
19307SOL    HW258500   0.753   0.853   3.253 -1.6127 -0.0461 -1.8939
19308SOL     OW58501   2.273   5.331   9.039  0.3397  0.3527  0.0871
19308SOL    HW158502   2.181   5.304   9.045 -0.3736  2.6525  0.1982
19308SOL    HW258503   2.287   5.386   9.115  1.7295  0.3308 -0.1248
19309SOL     OW58504   7.870   2.662   2.100 -0.2455 -0.2376  0.3847
19309SOL    HW158505   7.888   2.699   2.013  2.0467 -3.7249 -0.8604
19309SOL    HW258506   7.899   2.729   2.161  0.0315  1.5161 -1.5482
19310SOL     OW58507   6.646   8.129   5.589  0.0249 -0.4759  0.0853
19310SOL    HW158508   6.640   8.183   5.511 -0.4776  1.1635  1.2033
19310SOL    HW258509   6.613   8.043   5.562 -0.8684  0.2679 -1.2981
19311SOL     OW58510   1.110   7.265   8.854  0.6372  0.1068  0.5391
19311SOL    HW158511   1.078   7.246   8.766  0.7532  0.0919  0.5000
19311SOL    HW258512   1.205   7.270   8.844  0.5645  1.4510  0.4012
19312SOL     OW58513   5.016   6.912   1.611  0.5365 -0.6988 -0.6005
19312SOL    HW158514   5.000   6.966   1.533  1.4740  0.3744 -0.0765
19312SOL    HW258515   4.929   6.896   1.647  0.1805 -0.2683 -1.2405
19313SOL     OW58516   6.752   4.537   5.404  0.5349  0.0347  0.1899
19313SOL    HW158517   6.755   4.500   5.316 -0.5093 -0.8891  0.5167
19313SOL    HW258518   6.678   4.492   5.447  1.8859 -0.5823  2.0018
19314SOL     OW58519   4.134   5.458   4.490  0.5588  0.5506 -0.4039
19314SOL    HW158520   4.047   5.461   4.450 -1.1897 -1.4504  2.7889
19314SOL    HW258521   4.168   5.371   4.467 -0.7122 -0.8721  2.4973
19315SOL     OW58522   7.382   2.854   9.627  0.5533 -0.0362 -0.1094
19315SOL    HW158523   7.350   2.825   9.712 -0.0182  0.2069 -0.2363
19315SOL    HW258524   7.314   2.912   9.594  1.8353  1.7703  0.2838
19316SOL     OW58525   6.976   3.541   8.624 -0.6261 -0.4253 -0.0717
19316SOL    HW158526   6.939   3.472   8.680 -0.5810 -1.0599 -0.8157
19316SOL    HW258527   7.065   3.553   8.656 -0.5237 -0.9531 -0.1473
19317SOL     OW58528   3.468   0.236   6.541  0.6039  0.2350 -0.2929
19317SOL    HW158529   3.462   0.269   6.631 -0.1564 -0.0702 -0.2240
19317SOL    HW258530   3.476   0.141   6.551 -0.0166  0.1487 -0.5484
19318SOL     OW58531   7.570   1.044   0.742 -0.3147  0.0011  0.8565
19318SOL    HW158532   7.499   1.107   0.730  1.0992  1.5113 -0.1809
19318SOL    HW258533   7.545   0.993   0.819 -3.2278 -0.5952 -0.3399
19319SOL     OW58534   4.201   7.369   7.087 -0.5826 -0.3467  0.0882
19319SOL    HW158535   4.115   7.362   7.044 -0.7706 -0.3680  0.4608
19319SOL    HW258536   4.191   7.443   7.148 -0.3238 -0.3231  0.0996
19320SOL     OW58537   4.491   4.273   0.783 -0.4960 -0.0436 -0.5132
19320SOL    HW158538   4.421   4.224   0.739  0.2308 -1.4504 -0.1306
19320SOL    HW258539   4.447   4.352   0.816 -1.6374 -0.3083 -1.3443
19321SOL     OW58540   6.424   0.318   2.615 -0.1505  0.1016 -0.2226
19321SOL    HW158541   6.334   0.326   2.644  0.3854  1.1004  1.3095
19321SOL    HW258542   6.437   0.224   2.600 -1.0992 -0.2012  0.7377
19322SOL     OW58543   2.178   8.432   4.381  0.2238  0.0295  0.0171
19322SOL    HW158544   2.157   8.339   4.377 -1.9140  0.4057  0.9203
19322SOL    HW258545   2.143   8.460   4.466 -1.9577  2.2381 -1.4834
19323SOL     OW58546   0.527   0.249   9.212  0.0969  0.2660 -0.0493
19323SOL    HW158547   0.445   0.290   9.239 -1.0351 -1.1686 -1.1746
19323SOL    HW258548   0.535   0.272   9.119 -0.0706 -1.2131 -0.4482
19324SOL     OW58549   2.897   8.898   2.529  0.0194  0.6701  0.1693
19324SOL    HW158550   2.827   8.847   2.569  1.0839 -0.0431  1.2098
19324SOL    HW258551   2.938   8.944   2.602 -0.8734  3.0733 -0.7236
19325SOL     OW58552   3.407   5.732   5.856  0.2283 -0.6113 -0.0055
19325SOL    HW158553   3.380   5.800   5.794  1.9503 -0.0486 -0.1819
19325SOL    HW258554   3.333   5.670   5.856 -1.2223  1.0315 -0.1254
19326SOL     OW58555   2.301   8.706   6.517 -0.6669  0.5535 -0.4870
19326SOL    HW158556   2.256   8.708   6.433 -2.0076  0.4974  0.2004
19326SOL    HW258557   2.380   8.757   6.503 -0.7702  0.3857 -1.8314
19327SOL     OW58558   1.194   2.214   3.983 -0.5199  0.1274 -0.0468
19327SOL    HW158559   1.194   2.250   3.894 -0.6959  0.7422  0.1993
19327SOL    HW258560   1.102   2.200   4.004 -0.5083  0.4844  0.2406
19328SOL     OW58561   3.270   3.132   1.769 -0.6621  0.1200 -0.2898
19328SOL    HW158562   3.293   3.218   1.803  2.6213 -0.5512 -0.5396
19328SOL    HW258563   3.251   3.079   1.846  0.9575  0.1530  0.1650
19329SOL     OW58564   7.000   7.726   2.152  0.1649 -0.0093 -0.2357
19329SOL    HW158565   6.943   7.660   2.113 -1.5501  1.3817 -0.2369
19329SOL    HW258566   6.969   7.734   2.242 -0.2559  1.3640 -0.4724
19330SOL     OW58567   0.616   7.386   3.638 -0.4008 -0.0500 -0.3011
19330SOL    HW158568   0.662   7.385   3.554  0.2987  2.4935 -0.0086
19330SOL    HW258569   0.613   7.478   3.663 -0.0058 -0.7716  2.7811
19331SOL     OW58570   9.472   3.698   6.473  0.7398 -0.5633  0.3019
19331SOL    HW158571   9.506   3.724   6.388 -0.9335 -1.7528 -0.7887
19331SOL    HW258572   9.430   3.777   6.508  0.5415 -0.3396 -0.4363
19332SOL     OW58573   7.287   7.192   3.410 -0.4350  0.2262 -0.3700
19332SOL    HW158574   7.293   7.104   3.448  0.1688  0.2690 -0.3525
19332SOL    HW258575   7.376   7.211   3.381 -0.2842  1.2992  0.6870
19333SOL     OW58576   2.155   7.159   7.288 -0.3678 -0.7449  0.3321
19333SOL    HW158577   2.123   7.160   7.197 -1.4050 -3.0304  0.6065
19333SOL    HW258578   2.238   7.206   7.284 -1.2376  0.8050 -1.4308
19334SOL     OW58579   2.531   6.363   5.083 -0.2181  0.5326 -0.6076
19334SOL    HW158580   2.493   6.382   4.997 -0.3277  0.8564 -0.4878
19334SOL    HW258581   2.596   6.432   5.096 -0.6640  0.8741 -0.1417
19335SOL     OW58582   1.244   6.876   6.028  0.1763  0.4110 -0.7743
19335SOL    HW158583   1.175   6.901   6.089 -1.0073 -1.5062 -1.2420
19335SOL    HW258584   1.278   6.959   5.994 -1.6923  1.4140 -0.3036
19336SOL     OW58585   5.262   9.347   8.700  0.4088  0.2766  0.2033
19336SOL    HW158586   5.167   9.353   8.685 -0.2703 -3.5509  1.7617
19336SOL    HW258587   5.278   9.408   8.772 -1.3119 -0.3574  1.2020
19337SOL     OW58588   5.729   8.934   7.706  0.2109 -0.3082  0.0533
19337SOL    HW158589   5.655   8.888   7.667 -0.5165  0.6013  0.3405
19337SOL    HW258590   5.740   9.013   7.653 -1.3231  1.3897  2.0781
19338SOL     OW58591   6.005   6.913   6.858 -0.0938  0.0593  0.1070
19338SOL    HW158592   5.948   6.884   6.930 -0.0021  0.6499  0.4204
19338SOL    HW258593   5.996   7.008   6.857  0.3147  0.0961 -0.3267
19339SOL     OW58594   2.030   9.158   5.008 -0.5597 -0.6110 -0.1420
19339SOL    HW158595   2.075   9.241   4.996  0.7034 -1.2773 -0.1522
19339SOL    HW258596   1.943   9.172   4.969 -0.1093  0.4634 -0.7968
19340SOL     OW58597   4.749   4.423   9.073 -0.0492 -0.3089  0.1150
19340SOL    HW158598   4.844   4.429   9.075 -0.0435 -0.2522 -0.2476
19340SOL    HW258599   4.729   4.337   9.108  0.1232 -0.2118  0.4487
19341SOL     OW58600   9.270   9.262   4.210  0.3949 -0.3464  0.5604
19341SOL    HW158601   9.316   9.315   4.144 -0.0194 -0.4234  0.2052
19341SOL    HW258602   9.217   9.326   4.259  1.3501 -0.1631  1.3892
19342SOL     OW58603   1.448   3.733   3.549 -0.5450 -0.2383  0.9284
19342SOL    HW158604   1.485   3.737   3.461 -1.7293 -0.6196  0.3846
19342SOL    HW258605   1.393   3.655   3.548 -1.3485  0.2911  1.6787
19343SOL     OW58606   6.726   2.960   9.206  0.1966 -0.1566  0.1090
19343SOL    HW158607   6.702   2.872   9.178  0.6781 -1.2132  2.6910
19343SOL    HW258608   6.643   3.000   9.232  0.1170 -0.3606  0.1794
19344SOL     OW58609   7.153   6.995   8.036 -0.0289  0.2978  0.4762
19344SOL    HW158610   7.080   7.040   7.994  1.2811  1.7825 -0.2748
19344SOL    HW258611   7.227   7.009   7.978  1.5747  1.4141  2.6630
19345SOL     OW58612   0.424   5.428   7.309  0.3427 -0.2037  0.6896
19345SOL    HW158613   0.475   5.506   7.331  1.0020 -0.7058  0.9862
19345SOL    HW258614   0.355   5.460   7.251 -0.6372  0.9339  2.3926
19346SOL     OW58615   8.962   9.185   0.364  0.6025  0.1482 -0.0107
19346SOL    HW158616   8.928   9.195   0.275  0.7504  0.4524 -0.0335
19346SOL    HW258617   9.057   9.177   0.353  0.5767 -0.2952  0.0826
19347SOL     OW58618   2.875   4.775   8.208  0.5892 -0.5405  0.0572
19347SOL    HW158619   2.794   4.826   8.211  0.5716 -0.4778 -0.9269
19347SOL    HW258620   2.846   4.684   8.202  0.5690 -0.5011 -0.5842
19348SOL     OW58621   6.602   5.620   3.672 -0.0861  0.1889 -0.5714
19348SOL    HW158622   6.535   5.569   3.625  0.4786 -1.4319  0.3073
19348SOL    HW258623   6.668   5.639   3.606 -0.3449 -0.1478 -0.9341
19349SOL     OW58624   3.675   5.892   9.988  0.1165 -0.3188  0.2713
19349SOL    HW158625   3.720   5.968   9.950  1.0385 -1.0220 -0.0536
19349SOL    HW258626   3.633   5.850   9.913 -2.4613  1.1820  0.7444
19350SOL     OW58627   1.885   3.370   9.623 -0.1543  0.4336 -0.1615
19350SOL    HW158628   1.929   3.316   9.688 -0.7828 -0.0246 -0.1123
19350SOL    HW258629   1.931   3.455   9.628  2.1203 -0.6066 -1.5645
19351SOL     OW58630   0.457   7.713   9.278  0.0703  0.2472 -0.2207
19351SOL    HW158631   0.551   7.702   9.268 -0.1079 -0.6707 -1.0739
19351SOL    HW258632   0.444   7.724   9.372  1.0039  0.1658 -0.0699
19352SOL     OW58633   7.437   5.584   3.020 -0.3485  0.2383 -0.3406
19352SOL    HW158634   7.519   5.559   3.063 -0.1041  2.4731  0.6330
19352SOL    HW258635   7.454   5.670   2.984 -1.9196  0.2299 -1.1998
19353SOL     OW58636   6.378   1.027   4.706  0.1070 -0.4848 -0.1105
19353SOL    HW158637   6.382   0.942   4.750  1.6535 -1.1936 -1.4947
19353SOL    HW258638   6.463   1.066   4.724 -0.3390  0.4759 -0.0687
19354SOL     OW58639   4.759   9.166   4.214 -0.1934 -0.7740 -0.0191
19354SOL    HW158640   4.760   9.232   4.283 -1.2703  0.4591 -1.1191
19354SOL    HW258641   4.771   9.216   4.133  0.2210 -2.0890 -0.8086
19355SOL     OW58642   1.581   3.851   3.322 -0.2244 -0.3103  0.7528
19355SOL    HW158643   1.520   3.875   3.253 -0.1774  0.0311  0.8296
19355SOL    HW258644   1.667   3.868   3.285 -0.0374 -2.7741 -0.1481
19356SOL     OW58645   1.360   9.979   0.611 -0.0809  0.1378 -0.0107
19356SOL    HW158646   1.436   9.982   0.668  0.2311 -0.4042 -0.3846
19356SOL    HW258647   1.391   9.935   0.532 -0.7172  0.1316 -0.2655
19357SOL     OW58648   5.643   6.032   1.728 -0.2235 -0.1036 -0.4194
19357SOL    HW158649   5.612   6.058   1.641  0.3989 -1.6745 -1.1520
19357SOL    HW258650   5.735   6.007   1.714 -1.0463 -3.8729 -0.1398
19358SOL     OW58651   1.737   6.515   5.287  0.0703 -0.5590  0.3082
19358SOL    HW158652   1.800   6.444   5.295  0.3238 -0.5661 -1.4684
19358SOL    HW258653   1.775   6.587   5.338  0.8855 -0.9760  0.2982
19359SOL     OW58654   3.097   3.544   5.323 -0.3629 -0.4044  0.1046
19359SOL    HW158655   3.009   3.558   5.357  0.1872  2.2938  0.6132
19359SOL    HW258656   3.113   3.450   5.336 -3.3936 -1.1508 -0.7140
19360SOL     OW58657   8.556   7.359   4.765 -0.3261  0.2046 -0.3460
19360SOL    HW158658   8.639   7.311   4.757 -0.2322  0.4898 -1.1916
19360SOL    HW258659   8.568   7.436   4.711 -0.8743  0.6439  0.1505
19361SOL     OW58660   0.833   0.525   4.295 -0.6738 -0.2032 -0.3499
19361SOL    HW158661   0.804   0.457   4.234 -1.2104  0.4758 -0.8556
19361SOL    HW258662   0.761   0.588   4.298 -0.8996 -0.4879  1.4009
19362SOL     OW58663   4.622   1.063   6.540  0.2966 -0.4273  0.4912
19362SOL    HW158664   4.529   1.048   6.519  0.3069  0.6307 -0.3553
19362SOL    HW258665   4.623   1.149   6.582  1.0171  0.0764 -0.5200
19363SOL     OW58666   9.406   2.333   4.277  0.4084 -0.1482  0.2843
19363SOL    HW158667   9.357   2.310   4.198 -2.2308 -1.0302  2.0291
19363SOL    HW258668   9.345   2.314   4.349  2.7037  0.5269  2.5500
19364SOL     OW58669   5.093   7.821   9.408  0.1326 -0.0575  0.0069
19364SOL    HW158670   5.143   7.881   9.463 -1.1920  0.6648  0.4802
19364SOL    HW258671   5.062   7.754   9.469 -1.0905  0.5854  0.1473
19365SOL     OW58672   1.158   8.337   1.157  0.2089  0.0682  0.1693
19365SOL    HW158673   1.104   8.416   1.151  1.4218  0.9213  0.0125
19365SOL    HW258674   1.159   8.315   1.250 -0.8390 -0.2737  0.1020
19366SOL     OW58675   4.063   9.848   8.089 -0.1514 -0.0203 -0.1782
19366SOL    HW158676   4.122   9.923   8.093 -1.0096  0.6622  0.0619
19366SOL    HW258677   4.109   9.785   8.033  0.4932  0.7657 -0.5721
19367SOL     OW58678   6.210   0.207   1.293 -0.1241  0.2784  0.1123
19367SOL    HW158679   6.255   0.286   1.262 -1.8536  0.4229 -2.2821
19367SOL    HW258680   6.250   0.136   1.243  1.3012 -0.4323  2.1265
19368SOL     OW58681   1.487  -0.000   7.099  0.2077 -0.2065  0.1862
19368SOL    HW158682   1.551   0.052   7.148  0.9468  0.5081 -1.4480
19368SOL    HW258683   1.492   0.034   7.010  0.0594 -2.4801 -0.7623
19369SOL     OW58684   4.711   2.693   4.481  0.1343 -0.1481  0.4203
19369SOL    HW158685   4.626   2.668   4.516 -0.6191 -0.1975 -1.3278
19369SOL    HW258686   4.697   2.782   4.448  1.0612  0.2420  1.0563
19370SOL     OW58687   6.851   3.264   9.480 -0.0047 -0.2664  0.2422
19370SOL    HW158688   6.833   3.344   9.431 -1.3994 -0.6501  0.0910
19370SOL    HW258689   6.892   3.294   9.561  1.6403  0.4279 -0.8015
19371SOL     OW58690   3.453   4.603   7.615 -0.1994  0.3994 -0.1741
19371SOL    HW158691   3.537   4.624   7.656 -0.9334  1.3691  0.9059
19371SOL    HW258692   3.412   4.689   7.600 -1.8801 -0.1014  1.2460
19372SOL     OW58693   9.769   2.555   9.778  0.0620  0.1059  0.2061
19372SOL    HW158694   9.821   2.478   9.802 -0.9470 -0.6462  0.0710
19372SOL    HW258695   9.678   2.525   9.787 -0.3564  0.6594 -1.7917
19373SOL     OW58696   1.237   7.970   9.795  0.6628  0.4144  0.5062
19373SOL    HW158697   1.212   7.994   9.705  0.5811  1.6875  0.8399
19373SOL    HW258698   1.248   7.875   9.792  1.7855  0.5493 -1.1239
19374SOL     OW58699   2.408   6.303   5.817 -0.3011 -0.0493  0.2597
19374SOL    HW158700   2.356   6.229   5.785 -0.3565  1.6146 -4.2859
19374SOL    HW258701   2.497   6.285   5.785 -0.1220  1.3462 -0.0854
19375SOL     OW58702   3.826   2.657   5.941 -0.2144 -0.2656 -0.4473
19375SOL    HW158703   3.918   2.630   5.948  0.0295  0.3177 -1.3126
19375SOL    HW258704   3.811   2.669   5.847 -1.8412 -2.5954 -0.5798
19376SOL     OW58705   1.073   9.960   2.151 -0.2487  0.6070 -0.0338
19376SOL    HW158706   1.131  10.031   2.121  1.2780 -1.2670 -1.8003
19376SOL    HW258707   1.072   9.898   2.079 -0.4193 -1.8493  1.9593
19377SOL     OW58708   8.892   3.844   3.825  0.4969  0.1536  0.2767
19377SOL    HW158709   8.894   3.901   3.749  0.7516 -0.0272  0.1484
19377SOL    HW258710   8.981   3.810   3.833  0.5247  0.3368  0.7802
19378SOL     OW58711   6.317   3.283   8.987 -0.2326  0.3623 -0.5114
19378SOL    HW158712   6.339   3.192   8.968 -0.3733  0.2747 -0.2734
19378SOL    HW258713   6.224   3.280   9.011 -0.2333  0.5648 -0.4853
19379SOL     OW58714   3.517   6.818   2.561 -0.4091  0.3296 -0.0330
19379SOL    HW158715   3.546   6.729   2.540 -1.2073 -0.4474  1.9006
19379SOL    HW258716   3.569   6.843   2.638  0.6775  2.0609 -1.2599
19380SOL     OW58717   9.209   1.998   3.383 -0.0028 -0.0956 -0.5320
19380SOL    HW158718   9.207   1.925   3.321  1.8447 -0.7431  0.1073
19380SOL    HW258719   9.131   1.985   3.437 -0.8752 -0.3184 -1.7974
19381SOL     OW58720   2.202   5.794   7.371 -0.3701 -0.2548 -0.7530
19381SOL    HW158721   2.296   5.806   7.357 -0.4280 -0.5300 -1.3958
19381SOL    HW258722   2.161   5.862   7.318 -0.5158  0.6044  0.4084
19382SOL     OW58723   3.454   5.214   3.263 -0.1928 -0.0753  0.3026
19382SOL    HW158724   3.444   5.184   3.173 -0.8343 -0.5570  0.5246
19382SOL    HW258725   3.445   5.134   3.316 -1.3462  0.4121  0.8799
19383SOL     OW58726   2.191   1.173   6.472  0.5151 -0.9140  0.3460
19383SOL    HW158727   2.130   1.235   6.512 -0.2425 -0.6513 -1.1445
19383SOL    HW258728   2.137   1.101   6.442  1.3910 -2.3333  2.0152
19384SOL     OW58729   5.532   0.935   0.999  0.0963  0.1121 -0.3964
19384SOL    HW158730   5.462   0.945   1.063  0.4194  2.1992 -0.2874
19384SOL    HW258731   5.495   0.967   0.917  0.8180  1.0281 -0.3863
19385SOL     OW58732   5.128   0.529   5.020  0.3117  0.1740 -0.5316
19385SOL    HW158733   5.052   0.547   4.964 -0.8246  1.4719  1.3219
19385SOL    HW258734   5.164   0.615   5.040  0.6940 -0.2572  0.7080
19386SOL     OW58735   2.983   4.432   8.290 -0.1841 -0.2599  0.6794
19386SOL    HW158736   3.017   4.477   8.213  0.7405 -0.2366  1.0858
19386SOL    HW258737   3.061   4.409   8.341 -0.7996  1.5373  2.6056
19387SOL     OW58738   6.814   3.357   8.117  0.0765 -0.3935 -0.2344
19387SOL    HW158739   6.785   3.387   8.031 -3.8047 -2.0823  0.2509
19387SOL    HW258740   6.809   3.435   8.173 -0.5458  0.0611 -0.9055
19388SOL     OW58741   1.137   4.029   7.391  0.4980  0.1495  0.5784
19388SOL    HW158742   1.054   4.055   7.431  1.1618  1.3373  1.2275
19388SOL    HW258743   1.182   4.111   7.371  0.4106 -0.3940 -2.2521
19389SOL     OW58744   1.927   9.476   3.145 -0.1603 -0.6225  0.4250
19389SOL    HW158745   1.856   9.529   3.181  0.6966 -0.0700  1.3322
19389SOL    HW258746   2.001   9.536   3.136  0.2863 -1.2501 -0.2518
19390SOL     OW58747   2.483   0.542   9.295  0.4115  0.1321  0.5467
19390SOL    HW158748   2.513   0.475   9.234  0.7144 -0.8036  1.6750
19390SOL    HW258749   2.423   0.597   9.244  0.2163 -0.9531 -0.4276
19391SOL     OW58750   1.991   0.661   3.625 -0.5068 -0.2869  0.3557
19391SOL    HW158751   2.060   0.595   3.632 -0.2440  0.1500  2.6163
19391SOL    HW258752   2.024   0.735   3.676 -2.5323  0.0261  1.2951
19392SOL     OW58753   7.247   4.016   2.256  0.2939 -0.7029  0.1236
19392SOL    HW158754   7.219   3.943   2.313 -1.1663 -0.9065 -0.8171
19392SOL    HW258755   7.336   4.036   2.286  0.4367 -2.3533  0.9273
19393SOL     OW58756   0.317   3.352   2.093 -0.2349 -0.9140  0.2542
19393SOL    HW158757   0.364   3.273   2.063 -0.0932 -0.8954  0.4260
19393SOL    HW258758   0.245   3.318   2.146 -0.3040 -0.9364  0.1454
19394SOL     OW58759   9.538   2.756   4.904  0.1492  0.7284  0.1401
19394SOL    HW158760   9.623   2.752   4.861  0.2389  0.0202  0.3813
19394SOL    HW258761   9.475   2.741   4.833  0.3648 -3.0067  0.5637
19395SOL     OW58762   8.653   6.354   2.854  0.0252 -0.1585  0.0961
19395SOL    HW158763   8.716   6.281   2.858 -0.9544 -1.0177  0.4616
19395SOL    HW258764   8.574   6.315   2.815 -0.6523  0.6119  0.6632
19396SOL     OW58765   5.284   2.108   1.521 -0.3603 -0.5721 -0.3960
19396SOL    HW158766   5.282   2.203   1.507  1.1081 -0.4778 -0.1340
19396SOL    HW258767   5.350   2.076   1.460  0.1961 -1.2341  0.5383
19397SOL     OW58768   7.872   3.287   2.997 -0.3801  0.3475 -0.7920
19397SOL    HW158769   7.879   3.238   3.080  0.0972  0.1671 -0.9382
19397SOL    HW258770   7.832   3.225   2.936 -2.0912  0.9297 -0.3338
19398SOL     OW58771   3.023   3.615   4.380  0.5717  0.0403  0.4855
19398SOL    HW158772   3.083   3.541   4.375 -0.2223 -0.6080  0.3139
19398SOL    HW258773   2.955   3.595   4.316 -0.0841  0.5135  1.0139
19399SOL     OW58774   9.911   7.513   1.695 -0.3938  0.0601  0.6366
19399SOL    HW158775   9.923   7.597   1.738 -2.0703  0.0391  1.2225
19399SOL    HW258776   9.952   7.523   1.609 -0.7311  1.5255  0.6326
19400SOL     OW58777   3.498   8.747   7.810  0.7129 -0.1219 -0.0344
19400SOL    HW158778   3.454   8.831   7.828  0.4765 -0.1666 -0.3973
19400SOL    HW258779   3.516   8.749   7.716 -0.3541 -0.9739 -0.2817
19401SOL     OW58780   0.792   2.506   8.627 -0.8765  0.2055  0.0010
19401SOL    HW158781   0.871   2.476   8.583 -0.1024 -1.3500  2.2648
19401SOL    HW258782   0.821   2.574   8.687 -1.4599  0.4047  0.0693
19402SOL     OW58783   1.648   0.447   4.378  0.0283  0.0006 -0.6313
19402SOL    HW158784   1.573   0.436   4.319  0.2450  0.9668 -1.1058
19402SOL    HW258785   1.713   0.386   4.344 -0.6349 -1.0622 -0.0362
19403SOL     OW58786   2.337   8.482   3.806  0.5019 -0.0608  0.1797
19403SOL    HW158787   2.328   8.387   3.813 -0.9697  0.1052  0.7529
19403SOL    HW258788   2.301   8.504   3.720  0.4887  0.0305  0.2080
19404SOL     OW58789   0.388   4.788   9.456 -0.0705  0.4418  0.0410
19404SOL    HW158790   0.460   4.725   9.455 -1.3175 -1.0673 -1.1421
19404SOL    HW258791   0.371   4.804   9.549  0.2920 -1.0014  0.3775
19405SOL     OW58792   0.927   4.485   0.245  0.0866 -0.3681  0.7152
19405SOL    HW158793   0.841   4.525   0.236 -1.0568 -2.1682  2.7028
19405SOL    HW258794   0.973   4.541   0.308 -0.2075 -0.2515  0.8277
19406SOL     OW58795   8.401   0.581   3.367 -0.3308  0.0432  0.0145
19406SOL    HW158796   8.387   0.648   3.300  1.0282 -1.0252 -1.4020
19406SOL    HW258797   8.314   0.557   3.397 -1.1791 -1.0489 -3.0025
19407SOL     OW58798   0.984   2.458   3.700  0.3213  0.4388 -0.2025
19407SOL    HW158799   1.004   2.471   3.793 -0.3695 -0.1434  0.0336
19407SOL    HW258800   0.893   2.485   3.692  0.1609 -0.2156 -0.5645
19408SOL     OW58801   8.335   8.289   6.281  0.6914  0.4580  0.0523
19408SOL    HW158802   8.246   8.259   6.265  0.8839 -0.0828 -0.0359
19408SOL    HW258803   8.358   8.339   6.202 -0.1683  2.1529  0.8419
19409SOL     OW58804   5.656   3.604   3.244 -0.2465  0.7853  0.0352
19409SOL    HW158805   5.628   3.680   3.194  0.3008  1.3976  0.6327
19409SOL    HW258806   5.724   3.564   3.191 -0.5035  0.7424 -0.2612
19410SOL     OW58807   8.971   1.017   9.070 -0.2338 -0.2224 -0.0255
19410SOL    HW158808   8.958   0.923   9.083  0.7650 -0.4295 -0.4443
19410SOL    HW258809   8.961   1.055   9.157 -0.7405 -0.7006  0.1309
19411SOL     OW58810   9.547   2.707   7.302 -0.4432 -0.5498 -0.0879
19411SOL    HW158811   9.456   2.681   7.320 -0.6185  0.3574  0.3979
19411SOL    HW258812   9.552   2.798   7.331  1.0838 -1.0802  1.4373
19412SOL     OW58813   1.822   3.866   2.367  0.3333  0.2801  0.0990
19412SOL    HW158814   1.751   3.836   2.424 -1.0384  0.5936 -1.3667
19412SOL    HW258815   1.856   3.944   2.410 -2.3318  1.9973 -0.6375
19413SOL     OW58816   0.403   6.770   0.631 -0.2057  0.1860  0.1738
19413SOL    HW158817   0.498   6.773   0.647 -0.2280  0.2843  0.2822
19413SOL    HW258818   0.391   6.822   0.552 -0.1890  0.3033  0.2489
19414SOL     OW58819   9.343   1.296   4.978 -0.5068  0.4925 -0.0340
19414SOL    HW158820   9.435   1.307   5.002 -0.2147  1.3709 -1.4536
19414SOL    HW258821   9.312   1.385   4.961 -1.3263  0.1047 -0.6364
19415SOL     OW58822   8.888   6.461   1.685 -0.0439  0.3523  0.6992
19415SOL    HW158823   8.967   6.408   1.676 -0.0980  0.1111  1.5369
19415SOL    HW258824   8.818   6.397   1.697 -0.1769  0.5936  1.2336
19416SOL     OW58825   4.661   2.851   8.085  0.2677  0.6922  0.1480
19416SOL    HW158826   4.605   2.919   8.123  1.0688  2.0359 -0.9909
19416SOL    HW258827   4.665   2.784   8.153 -4.1137 -0.3789 -0.3118
19417SOL     OW58828   3.426   1.628   5.421  0.4019 -0.5497  0.9920
19417SOL    HW158829   3.494   1.691   5.397  0.4088 -0.6171  0.8360
19417SOL    HW258830   3.472   1.564   5.475  0.3533 -0.3118  1.3200
19418SOL     OW58831   1.321   4.337   7.584  0.4053 -0.1078  0.8269
19418SOL    HW158832   1.285   4.301   7.665 -1.7479  0.1027  0.0432
19418SOL    HW258833   1.292   4.428   7.584 -0.0044 -0.2239 -0.3733
19419SOL     OW58834   0.922   9.706   1.142 -0.1632 -0.1751 -0.3825
19419SOL    HW158835   0.914   9.800   1.131 -1.9666  0.2341  3.0488
19419SOL    HW258836   1.016   9.688   1.137  0.2563  1.8824 -0.5057
19420SOL     OW58837   3.949   3.286   5.731 -0.2528 -1.1991  0.2401
19420SOL    HW158838   3.993   3.259   5.812 -0.7062 -0.4044  0.7599
19420SOL    HW258839   3.980   3.223   5.665  1.6526 -0.6823  0.5793
19421SOL     OW58840   6.640   9.252   9.524 -0.2296  0.6104 -0.3242
19421SOL    HW158841   6.665   9.322   9.585  0.2190 -1.2712  1.7949
19421SOL    HW258842   6.721   9.229   9.479 -0.0517  0.4990  0.0442
19422SOL     OW58843   0.774   1.690   1.204  0.3032  0.1774 -0.4138
19422SOL    HW158844   0.802   1.643   1.283 -0.8108  1.8420  1.0476
19422SOL    HW258845   0.855   1.711   1.158  1.0732  0.2407  0.9347
19423SOL     OW58846   0.989   2.494   3.959  0.0635 -0.2213 -0.4972
19423SOL    HW158847   0.961   2.407   3.987  0.5253 -0.4310 -0.6719
19423SOL    HW258848   1.020   2.536   4.039 -0.1297 -0.2316 -0.4181
19424SOL     OW58849   0.219   3.518   3.243 -0.2644  0.2035 -0.3417
19424SOL    HW158850   0.242   3.445   3.301 -1.7157 -1.0989 -1.3188
19424SOL    HW258851   0.131   3.497   3.212  0.1336  1.2718 -2.3637
19425SOL     OW58852   7.252   8.851   2.044  0.8801  0.6010 -0.1122
19425SOL    HW158853   7.224   8.943   2.043  2.1350  1.0149  0.4060
19425SOL    HW258854   7.254   8.828   2.137 -1.9005 -0.7876 -0.3153
19426SOL     OW58855   5.142   3.046   2.819  0.0766 -0.2321 -0.0795
19426SOL    HW158856   5.160   2.953   2.835  2.3387 -0.0090 -1.0640
19426SOL    HW258857   5.049   3.056   2.841  0.2640 -2.2698  1.9941
19427SOL     OW58858   2.263   6.334   2.346 -0.5955 -0.6709 -0.3154
19427SOL    HW158859   2.199   6.353   2.278 -1.5918 -1.6654  0.3054
19427SOL    HW258860   2.291   6.244   2.329  2.3503  0.4070 -1.8739
19428SOL     OW58861   2.356   5.659   3.244 -0.5696  0.1989 -0.0458
19428SOL    HW158862   2.279   5.685   3.294 -1.7434 -0.1665 -1.5710
19428SOL    HW258863   2.421   5.726   3.262 -1.5221  0.9619  0.6490
19429SOL     OW58864   4.047   4.802   2.759 -0.9801 -0.4087  0.0865
19429SOL    HW158865   4.079   4.795   2.849 -2.6221 -2.8155  0.5744
19429SOL    HW258866   4.058   4.714   2.723 -0.6185  0.4419 -2.0277
19430SOL     OW58867   0.487   9.354   9.637 -0.2758  0.2479  0.4173
19430SOL    HW158868   0.501   9.377   9.545 -0.8021  1.0176  0.5233
19430SOL    HW258869   0.513   9.432   9.686 -0.3410 -0.0301  0.9004
19431SOL     OW58870   6.669   1.841   2.789  0.5569  0.3420  0.7321
19431SOL    HW158871   6.620   1.761   2.770 -2.7318  2.5280 -0.9355
19431SOL    HW258872   6.711   1.824   2.874 -1.6055 -2.4472  1.3769
19432SOL     OW58873   8.448   3.739   8.640 -0.0153  0.2697 -0.0496
19432SOL    HW158874   8.452   3.804   8.711 -0.7832  1.2211 -0.8388
19432SOL    HW258875   8.385   3.674   8.671 -1.4446  1.4234 -0.4041
19433SOL     OW58876   7.317   6.864   3.034  0.4186 -0.5305 -0.7025
19433SOL    HW158877   7.279   6.930   3.092  0.4941 -0.9880 -0.1148
19433SOL    HW258878   7.255   6.791   3.037  0.5106 -0.6271 -1.0651
19434SOL     OW58879   0.850   5.342   1.769 -0.1160  0.4704  0.9070
19434SOL    HW158880   0.938   5.314   1.795 -0.3285  0.7214  1.9226
19434SOL    HW258881   0.836   5.424   1.816 -0.8608  0.4882  0.6645
19435SOL     OW58882   7.883   7.972   4.784 -0.3116 -0.5590 -0.1771
19435SOL    HW158883   7.858   7.894   4.833  0.4868  0.2494  1.5902
19435SOL    HW258884   7.931   8.025   4.847 -0.7831  1.3427 -1.3663
19436SOL     OW58885   0.414   8.895   8.313 -0.5164  0.4412 -0.0073
19436SOL    HW158886   0.363   8.870   8.390  0.0513  0.8600  0.5183
19436SOL    HW258887   0.415   8.991   8.316 -1.9557  0.5567 -1.5183
19437SOL     OW58888   2.666   7.597   8.329 -0.4327 -0.1692  0.4290
19437SOL    HW158889   2.623   7.647   8.260  1.2624 -1.7653 -1.9207
19437SOL    HW258890   2.685   7.662   8.397  1.0732  2.3605 -2.1412
19438SOL     OW58891   5.738   7.746   2.960 -0.4006  0.0674 -0.1741
19438SOL    HW158892   5.665   7.764   2.900 -0.5139  1.2542  0.2924
19438SOL    HW258893   5.697   7.729   3.044 -0.1798 -0.3932 -0.1542
19439SOL     OW58894   5.554   9.885   5.520 -0.6760 -0.1020  0.6671
19439SOL    HW158895   5.583   9.930   5.441 -0.1719  0.2388  1.0349
19439SOL    HW258896   5.500   9.950   5.566 -1.2479 -0.4121  0.4482
19440SOL     OW58897   3.829   9.223   8.583 -0.5507 -0.0252  0.3576
19440SOL    HW158898   3.913   9.269   8.590 -1.6532  2.1624 -0.3118
19440SOL    HW258899   3.823   9.198   8.491 -0.0666 -1.4386  0.6664
19441SOL     OW58900   9.341   9.908   5.809 -0.0513  0.8038 -0.2055
19441SOL    HW158901   9.391   9.837   5.768 -0.2586  0.7010 -0.2805
19441SOL    HW258902   9.392   9.931   5.887 -0.0266  0.5132 -0.1333
19442SOL     OW58903   5.615   4.383   0.952  0.2374  0.6252  0.2325
19442SOL    HW158904   5.673   4.309   0.931 -1.0051 -0.4129  0.3152
19442SOL    HW258905   5.664   4.461   0.926  0.9829 -0.3090 -1.2580
19443SOL     OW58906   9.811   2.690   1.369 -0.6296 -0.0629  1.0505
19443SOL    HW158907   9.880   2.748   1.401  0.4552 -0.0494 -1.1059
19443SOL    HW258908   9.858   2.618   1.327 -1.8989 -0.1007 -0.4092
19444SOL     OW58909   9.413   0.948   9.873  0.1549 -0.7786 -0.1811
19444SOL    HW158910   9.323   0.936   9.842  0.4045 -1.3828 -0.6750
19444SOL    HW258911   9.437   0.864   9.912 -0.9095  0.4984  3.7383
19445SOL     OW58912   0.153   8.785   4.106 -0.5287  0.4098 -0.7504
19445SOL    HW158913   0.187   8.718   4.165  0.7194  1.1062 -0.6537
19445SOL    HW258914   0.088   8.832   4.158 -0.1003  0.4298 -0.2254
19446SOL     OW58915   6.052   7.831   4.022  0.4945  0.4531  0.4077
19446SOL    HW158916   6.123   7.802   4.080  0.9778  2.1921  0.7342
19446SOL    HW258917   6.096   7.880   3.953 -0.1223 -1.2148 -1.2554
19447SOL     OW58918   2.856   9.559   9.057  0.4404  0.3172 -0.0121
19447SOL    HW158919   2.767   9.588   9.035  0.5680  1.0988  0.4541
19447SOL    HW258920   2.859   9.468   9.028  0.0055  0.7375 -1.4800
19448SOL     OW58921   0.166   8.118   5.784 -0.5487  0.3330 -0.7211
19448SOL    HW158922   0.141   8.054   5.718  0.1736 -0.4544 -0.2545
19448SOL    HW258923   0.200   8.066   5.857 -1.6721  1.1511  0.4397
19449SOL     OW58924   4.851   0.637   5.592 -0.0870  0.0624 -0.4995
19449SOL    HW158925   4.933   0.598   5.623 -0.0726 -0.3625 -1.0471
19449SOL    HW258926   4.798   0.562   5.565 -1.0159  0.2731  0.6568
19450SOL     OW58927   7.623   0.331   4.737  0.0302  0.5300 -0.4309
19450SOL    HW158928   7.551   0.305   4.794  0.3655 -1.1247 -0.7123
19450SOL    HW258929   7.616   0.426   4.731 -1.8870  0.4421 -0.1507
19451SOL     OW58930   9.659   1.478   0.220 -0.1736 -0.3700 -0.1358
19451SOL    HW158931   9.649   1.436   0.134 -0.3362 -0.6856  0.0389
19451SOL    HW258932   9.578   1.458   0.266 -0.1612 -0.0452  0.0291
19452SOL     OW58933   2.210   0.579   7.893 -0.0495 -0.2781 -0.5954
19452SOL    HW158934   2.210   0.489   7.860 -0.5133 -0.7420  0.6088
19452SOL    HW258935   2.297   0.591   7.930 -0.3931 -0.6978  0.3950
19453SOL     OW58936   9.143   0.583   3.306 -0.4777 -0.0894  0.6490
19453SOL    HW158937   9.216   0.637   3.336 -0.1172 -0.8371  1.1484
19453SOL    HW258938   9.172   0.547   3.222 -1.3222  1.6710 -0.4624
19454SOL     OW58939   9.474   2.010   2.727 -0.3316 -0.2359  0.0095
19454SOL    HW158940   9.396   1.979   2.773  0.1773  0.0591  1.0976
19454SOL    HW258941   9.537   2.028   2.797  1.4450 -2.3853 -0.9311
19455SOL     OW58942   9.158   8.200   4.399  0.0246 -0.0240  0.2960
19455SOL    HW158943   9.248   8.187   4.430  1.0978 -0.8007 -2.7912
19455SOL    HW258944   9.157   8.290   4.366 -0.7559  0.4075  1.4295
19456SOL     OW58945   5.320   3.354   7.875  0.2426  0.0373  0.5351
19456SOL    HW158946   5.331   3.259   7.873 -0.6323 -0.0715  0.4873
19456SOL    HW258947   5.351   3.384   7.790  0.7363 -0.1738  0.6358
19457SOL     OW58948   9.499   8.402   8.932 -0.6175  0.2676 -0.3241
19457SOL    HW158949   9.494   8.306   8.926 -1.5479  0.4236 -2.6733
19457SOL    HW258950   9.584   8.423   8.895  0.2306  0.3298  1.5138
19458SOL     OW58951   1.561   9.670   4.045  0.3882 -0.1736  0.3429
19458SOL    HW158952   1.584   9.753   4.004  0.8831 -0.6907 -0.4432
19458SOL    HW258953   1.600   9.603   3.989 -1.3803 -1.0135  0.0585
19459SOL     OW58954   0.248   2.983   7.138  0.5425 -0.4398  0.2196
19459SOL    HW158955   0.247   2.987   7.234 -2.1882  0.2154  0.2431
19459SOL    HW258956   0.308   3.054   7.112  1.7189 -0.9517  1.3992
19460SOL     OW58957   9.703   6.164   6.063  0.0671 -0.1119 -0.4976
19460SOL    HW158958   9.782   6.210   6.090  0.5469 -0.7388 -0.8176
19460SOL    HW258959   9.732   6.074   6.046 -0.4424 -0.0181 -1.9490
19461SOL     OW58960   8.864   9.113   7.313 -0.0815 -0.0786  0.9705
19461SOL    HW158961   8.853   9.089   7.221 -0.8627  2.7969  0.2155
19461SOL    HW258962   8.880   9.029   7.358  0.4458 -1.5536 -1.7566
19462SOL     OW58963   9.343   4.388   4.845  0.2000  0.0655 -0.3474
19462SOL    HW158964   9.328   4.423   4.757  1.6990  1.6209 -0.0510
19462SOL    HW258965   9.432   4.416   4.867  0.0181 -0.6461  1.5093
19463SOL     OW58966   1.365   9.126   8.637  0.1241 -0.3018  0.4496
19463SOL    HW158967   1.382   9.040   8.599  4.4495  0.5870 -0.1993
19463SOL    HW258968   1.297   9.164   8.582 -1.2041 -2.8637  0.1631
19464SOL     OW58969   8.509   7.024   4.879  0.2927  0.2870 -0.1006
19464SOL    HW158970   8.553   7.070   4.951  0.9934 -2.7785  1.6279
19464SOL    HW258971   8.576   6.964   4.846 -1.0426 -0.7133 -1.0419
19465SOL     OW58972   4.220   3.880   9.254 -0.3640  0.2870 -0.0517
19465SOL    HW158973   4.257   3.961   9.291 -2.4131  1.2702 -0.0138
19465SOL    HW258974   4.225   3.893   9.159  1.0691 -0.4283 -0.1057
19466SOL     OW58975   4.857   6.580   9.025  0.1483 -0.5110 -0.2486
19466SOL    HW158976   4.922   6.646   9.047 -2.1323  1.6316  0.5713
19466SOL    HW258977   4.827   6.546   9.109  0.2196 -1.4870 -0.6093
19467SOL     OW58978   0.987   5.246   3.531 -0.1649 -0.2417 -0.2427
19467SOL    HW158979   1.032   5.200   3.602 -0.5699 -2.2928 -1.2433
19467SOL    HW258980   1.057   5.288   3.481  0.3073 -0.3904  0.2826
19468SOL     OW58981   3.799   4.326   0.557  0.4279 -0.5810  0.2447
19468SOL    HW158982   3.800   4.230   0.563 -1.4498 -0.5760  2.0991
19468SOL    HW258983   3.740   4.345   0.484  0.5432 -0.8350  0.0842
19469SOL     OW58984   7.475   0.199   8.425 -0.0221 -0.0490  0.3010
19469SOL    HW158985   7.474   0.113   8.467  0.4257  0.8397  2.2377
19469SOL    HW258986   7.553   0.241   8.459  0.2448  0.8505 -1.2979
19470SOL     OW58987   9.097   3.038   9.933 -0.3822  0.5697  0.0036
19470SOL    HW158988   9.160   3.110   9.933  0.4190 -0.1049 -0.2666
19470SOL    HW258989   9.035   3.060   9.863  0.3012  0.6238 -0.5932
19471SOL     OW58990   4.003   3.865   8.056 -0.5413  0.4894  0.1827
19471SOL    HW158991   3.946   3.910   7.994  0.1260 -0.0669 -0.8707
19471SOL    HW258992   4.053   3.936   8.098  0.5233  0.7972 -1.4815
19472SOL     OW58993   8.281   7.687   9.690 -0.8820 -0.0919 -0.0744
19472SOL    HW158994   8.324   7.754   9.744  1.6358  0.6620 -2.7447
19472SOL    HW258995   8.221   7.736   9.634  0.3300 -0.0761 -1.4325
19473SOL     OW58996   9.045   1.488   3.374 -0.0301  0.1682 -0.1123
19473SOL    HW158997   8.983   1.554   3.405 -0.2591 -0.7734  1.5464
19473SOL    HW258998   8.993   1.408   3.366  0.6653 -0.2911 -0.1051
19474SOL     OW58999   0.554   9.696   3.438 -0.0855 -0.0278  0.8973
19474SOL    HW159000   0.526   9.666   3.525  1.2909  0.5804  1.5857
19474SOL    HW259001   0.650   9.699   3.443  0.1708 -2.0122 -1.3491
19475SOL     OW59002   1.301   9.609   2.000 -0.2798 -0.0220 -0.2811
19475SOL    HW159003   1.221   9.652   2.031 -0.9263 -1.8082  0.6329
19475SOL    HW259004   1.270   9.544   1.937  0.4988 -0.4812 -0.1939
19476SOL     OW59005   6.293   8.375   9.926 -0.1257 -1.0184 -0.0427
19476SOL    HW159006   6.260   8.410   9.843 -0.2183 -3.7032 -1.2603
19476SOL    HW259007   6.343   8.447   9.964 -1.1533  0.7292 -1.7800
19477SOL     OW59008   1.237   7.289   1.138 -0.0805  0.1183 -0.1708
19477SOL    HW159009   1.182   7.300   1.216  0.6362 -1.2742  0.5620
19477SOL    HW259010   1.297   7.218   1.160  0.2184 -0.2461 -1.9683
19478SOL     OW59011   3.506   1.014   5.760  0.1966  0.0786  0.1417
19478SOL    HW159012   3.434   0.975   5.810  1.0718 -0.0451  1.3335
19478SOL    HW259013   3.463   1.078   5.703 -1.1113 -1.6080 -0.8424
19479SOL     OW59014   8.618   7.241   6.894  0.2480  0.0080  0.0639
19479SOL    HW159015   8.653   7.164   6.939 -0.9552 -0.4996  0.1717
19479SOL    HW259016   8.570   7.206   6.819 -0.7531  0.5955  0.4070
19480SOL     OW59017   9.380   6.116   3.801 -0.1123  0.1168  0.3532
19480SOL    HW159018   9.358   6.118   3.708 -1.7025  0.2901  0.6977
19480SOL    HW259019   9.466   6.075   3.805 -0.6715 -1.3162 -1.1047
19481SOL     OW59020   3.031   2.533   0.039  0.2757  0.2860 -0.0971
19481SOL    HW159021   2.973   2.473  -0.008 -0.9910  1.0140  0.5114
19481SOL    HW259022   3.039   2.609  -0.019  2.5255 -0.7197 -1.2380
19482SOL     OW59023   9.078   4.987   6.333  0.0534 -0.1821 -0.1901
19482SOL    HW159024   9.103   4.927   6.404 -0.4871  0.6340  0.7279
19482SOL    HW259025   8.987   5.009   6.352  0.7798  2.4382  0.6484
19483SOL     OW59026   1.230   8.406   5.362 -0.4407  0.1044 -0.3214
19483SOL    HW159027   1.302   8.464   5.337  0.2285 -1.6851 -2.9872
19483SOL    HW259028   1.152   8.447   5.325 -0.0743 -0.3103 -1.5876
19484SOL     OW59029   6.187   9.140   3.415 -0.4393  0.0179  0.4847
19484SOL    HW159030   6.118   9.128   3.480 -1.1743  1.0941 -0.0584
19484SOL    HW259031   6.152   9.206   3.356  1.1919  0.8466  0.3863
19485SOL     OW59032   4.347   3.567   7.511 -0.0360  0.3552 -0.4746
19485SOL    HW159033   4.319   3.477   7.524  1.0552  0.1400  0.6144
19485SOL    HW259034   4.442   3.566   7.528  0.2035  1.4967 -1.5675
19486SOL     OW59035   7.475   4.581   8.487 -0.2285 -0.3292  0.7769
19486SOL    HW159036   7.391   4.547   8.456 -0.2961  0.1549  0.4159
19486SOL    HW259037   7.536   4.508   8.473 -0.5476 -0.6210  0.8680
19487SOL     OW59038   1.413   3.008   2.589  0.1602 -0.0208  0.0956
19487SOL    HW159039   1.364   3.078   2.632  1.2772  0.7860  0.1145
19487SOL    HW259040   1.494   3.001   2.640  0.9601  0.0950 -1.1054
19488SOL     OW59041   7.894   2.827   6.321  0.1753  0.2595 -0.0338
19488SOL    HW159042   7.876   2.874   6.240  0.0423  1.4570  0.6737
19488SOL    HW259043   7.858   2.882   6.390 -1.0128 -1.4206  0.7610
19489SOL     OW59044   1.798   2.111   7.025 -0.0150  0.1152 -0.0069
19489SOL    HW159045   1.835   2.026   7.001 -0.1007  0.3458 -0.9874
19489SOL    HW259046   1.812   2.117   7.119  1.0725 -0.4622 -0.1164
19490SOL     OW59047   9.450   6.656   8.666 -0.0168 -0.3437  0.4480
19490SOL    HW159048   9.463   6.739   8.622 -1.8330 -0.8569 -1.1959
19490SOL    HW259049   9.410   6.679   8.750  1.4927  0.5152  0.9782
19491SOL     OW59050   5.616   9.108   4.748 -0.4206  0.7357  0.0581
19491SOL    HW159051   5.582   9.127   4.661 -0.1866  1.7870  0.1751
19491SOL    HW259052   5.589   9.018   4.766  2.4616 -0.8093 -2.4539
19492SOL     OW59053   1.136   2.156   9.241 -0.0236  0.1599 -0.1421
19492SOL    HW159054   1.191   2.161   9.163  0.8716  0.0109  0.4661
19492SOL    HW259055   1.106   2.065   9.244  0.4402  0.0104  0.0181
19493SOL     OW59056   1.280   4.930   4.744 -0.2938  0.4130  0.5616
19493SOL    HW159057   1.336   4.897   4.674  0.0300  0.3286  0.8548
19493SOL    HW259058   1.259   5.020   4.719 -0.8961  0.1146 -0.0730
19494SOL     OW59059   8.663   8.836   7.242 -0.4144 -0.6777 -0.3403
19494SOL    HW159060   8.649   8.749   7.205 -0.4215 -0.7004 -0.2837
19494SOL    HW259061   8.701   8.887   7.170  0.2851 -0.9333 -0.1627
19495SOL     OW59062   1.916   9.684   2.796  0.4284  0.1065  0.1449
19495SOL    HW159063   1.959   9.732   2.725 -0.1311 -0.2420 -0.4444
19495SOL    HW259064   1.826   9.718   2.797 -0.1052 -1.1998 -0.5728
19496SOL     OW59065   1.439   6.586   5.812 -0.0579  0.3387  0.4545
19496SOL    HW159066   1.359   6.611   5.856  1.5455  1.3497  3.0235
19496SOL    HW259067   1.433   6.491   5.801 -0.6872  0.0976  2.6173
19497SOL     OW59068   4.313   0.390   7.729  0.4998 -0.3977  0.0452
19497SOL    HW159069   4.406   0.389   7.707  0.3573  1.0530 -0.7379
19497SOL    HW259070   4.297   0.305   7.771  1.6007 -1.8383 -2.2109
19498SOL     OW59071   4.618   2.554   0.469  0.0983 -0.0265  0.1609
19498SOL    HW159072   4.698   2.562   0.521 -0.3250  1.8619  0.5726
19498SOL    HW259073   4.641   2.592   0.385  0.3866 -1.9097 -0.6772
19499SOL     OW59074   6.405   0.310   1.085 -0.5773  0.2375  0.4815
19499SOL    HW159075   6.482   0.322   1.141 -0.1647 -0.4348  0.0763
19499SOL    HW259076   6.437   0.329   0.997 -1.1494  0.9970  0.4329
19500SOL     OW59077   2.275   8.032   0.908 -0.4304  0.2859 -0.6774
19500SOL    HW159078   2.181   8.047   0.916 -0.0210  2.5443  0.5883
19500SOL    HW259079   2.300   7.988   0.989  0.0550  2.4568  0.3952
19501SOL     OW59080   2.067   8.443   5.259 -0.0554 -0.2032 -0.5888
19501SOL    HW159081   2.161   8.431   5.274 -0.0954  1.2196  1.0528
19501SOL    HW259082   2.062   8.519   5.200 -0.1727  0.5819  0.3976
19502SOL     OW59083   2.251   4.875   2.651 -0.2635  0.0753  0.1140
19502SOL    HW159084   2.173   4.929   2.640  0.7827  1.3737 -1.5877
19502SOL    HW259085   2.252   4.819   2.573  0.1402 -0.4459  0.4836
19503SOL     OW59086   9.602   8.236   6.751  0.1442 -0.1607  0.4789
19503SOL    HW159087   9.554   8.153   6.749 -0.0197 -0.0526 -0.2588
19503SOL    HW259088   9.668   8.224   6.819 -0.7850 -0.3921  1.3773
19504SOL     OW59089   6.111   1.091   4.765 -1.3547 -0.3085 -0.2621
19504SOL    HW159090   6.203   1.078   4.739 -1.8999  0.0983 -2.6452
19504SOL    HW259091   6.087   1.009   4.809  0.3235 -0.1402  1.0669
19505SOL     OW59092   6.417   9.250   8.700  0.5231  0.2352  0.0026
19505SOL    HW159093   6.388   9.312   8.767  0.9296  0.4085  0.0214
19505SOL    HW259094   6.384   9.166   8.730  0.9072  0.2751  0.5520
19506SOL     OW59095   0.599   8.304   3.818  0.2829 -0.0278  0.2524
19506SOL    HW159096   0.577   8.395   3.836 -1.1355 -0.6537  1.9862
19506SOL    HW259097   0.652   8.277   3.893  0.3290 -0.7447 -0.0272
19507SOL     OW59098   1.339   5.025   6.093  0.5907  0.0014  0.1965
19507SOL    HW159099   1.419   5.071   6.070  2.2382 -3.0648 -0.6670
19507SOL    HW259100   1.271   5.069   6.042  2.5414 -0.3381 -2.9829
19508SOL     OW59101   1.554   4.176   6.168  0.4690 -0.0457 -0.5712
19508SOL    HW159102   1.579   4.208   6.255  1.3158 -0.9095 -0.4819
19508SOL    HW259103   1.616   4.106   6.150 -0.9659 -1.2575 -1.0165
19509SOL     OW59104   2.149   5.532   1.316  0.1677 -0.1357 -0.0642
19509SOL    HW159105   2.155   5.550   1.410  0.8089 -1.2484  0.1255
19509SOL    HW259106   2.128   5.438   1.311  1.6914 -0.4497 -1.0502
19510SOL     OW59107   0.377   4.440   2.125  0.3086 -0.7047 -0.5132
19510SOL    HW159108   0.418   4.483   2.200 -0.8318  1.1570 -0.8798
19510SOL    HW259109   0.287   4.423   2.154  0.1269 -0.8238 -1.1316
19511SOL     OW59110   2.493   8.508   5.816 -0.3137  0.6099  0.6037
19511SOL    HW159111   2.411   8.521   5.770  0.3927 -0.5181 -1.0932
19511SOL    HW259112   2.513   8.593   5.855 -2.6386  0.6970  1.7347
19512SOL     OW59113   7.720   7.338   0.603  0.3180  0.1216  0.2882
19512SOL    HW159114   7.812   7.324   0.582  0.0933  0.4583 -1.0457
19512SOL    HW259115   7.717   7.339   0.698  1.4388 -1.5176  0.3895
19513SOL     OW59116   0.414   1.134   7.613 -0.1543  0.1916 -0.3547
19513SOL    HW159117   0.426   1.097   7.700  0.3105  2.2314  0.5062
19513SOL    HW259118   0.320   1.128   7.597 -0.2240 -0.3378  0.2072
19514SOL     OW59119   2.902   2.959   7.072 -0.5132  0.6023  0.9625
19514SOL    HW159120   2.872   3.046   7.049  1.5986  1.0936 -0.1415
19514SOL    HW259121   2.994   2.970   7.095  0.4036 -1.5929 -1.1742
19515SOL     OW59122   4.763   0.024   2.389  0.0849 -0.5669 -0.1822
19515SOL    HW159123   4.829   0.092   2.373 -0.0108 -0.5511 -0.5167
19515SOL    HW259124   4.799  -0.027   2.462 -0.6405  0.8715  1.2412
19516SOL     OW59125   1.632   4.319   2.102 -0.6768  0.4214  0.4853
19516SOL    HW159126   1.709   4.344   2.050 -0.2386 -0.9606  0.4454
19516SOL    HW259127   1.667   4.270   2.176 -1.3087  2.2128  2.0517
19517SOL     OW59128   3.467   2.303   6.577  0.2012  0.1780 -0.0986
19517SOL    HW159129   3.441   2.306   6.486  1.1362  1.5923 -0.3504
19517SOL    HW259130   3.515   2.221   6.586  1.2283  0.6373 -1.2180
19518SOL     OW59131   4.831   9.695   9.152  0.0115  0.4892  0.6665
19518SOL    HW159132   4.896   9.736   9.094 -1.0498  0.9553 -0.2243
19518SOL    HW259133   4.803   9.616   9.106  0.3585 -0.0307  1.3212
19519SOL     OW59134   4.296   7.289   1.169 -0.4824 -0.3339  0.5686
19519SOL    HW159135   4.350   7.287   1.248  0.2665  0.1055  0.0778
19519SOL    HW259136   4.215   7.244   1.194 -0.8572  1.0649  2.0380
19520SOL     OW59137   3.088   1.671   3.894 -0.2701  0.1547 -0.1372
19520SOL    HW159138   3.032   1.710   3.827  0.3444  2.0118  0.3691
19520SOL    HW259139   3.028   1.642   3.962 -1.0874 -3.4147 -2.1324
19521SOL     OW59140   5.679   0.041   1.698  0.1599  0.0447 -0.0566
19521SOL    HW159141   5.612   0.006   1.639  1.6111  1.7376 -2.9369
19521SOL    HW259142   5.758  -0.007   1.674  0.5565 -0.0606  1.4125
19522SOL     OW59143   5.757   2.244   3.762 -0.1105  0.5712 -0.2917
19522SOL    HW159144   5.818   2.177   3.730 -0.1407  1.0206 -1.3339
19522SOL    HW259145   5.679   2.195   3.787  0.3479  0.0819  0.2336
19523SOL     OW59146   1.290   6.795   4.504  0.0864  0.1906 -0.4401
19523SOL    HW159147   1.209   6.841   4.482  0.7381  0.6362 -2.0749
19523SOL    HW259148   1.317   6.832   4.588 -0.6451  1.0921 -0.5885
19524SOL     OW59149   9.031   3.976   4.783  0.4526 -0.5969  0.1935
19524SOL    HW159150   8.959   4.028   4.819  1.7520 -0.5781  3.0256
19524SOL    HW259151   9.022   3.890   4.824  0.5431 -1.4588 -1.5088
19525SOL     OW59152   5.623   8.776   1.590  0.1208 -0.0446 -0.2277
19525SOL    HW159153   5.635   8.682   1.581  0.3213  0.0659 -1.2269
19525SOL    HW259154   5.670   8.799   1.670  0.0200 -0.7914  0.0564
19526SOL     OW59155   8.154   4.792   8.001  0.1276 -0.0829 -0.0838
19526SOL    HW159156   8.235   4.816   8.046  0.3973 -0.5348 -0.3260
19526SOL    HW259157   8.091   4.859   8.028  0.2936 -0.3266  0.9362
19527SOL     OW59158   9.770   4.120   8.578  0.3494  0.1410  0.4819
19527SOL    HW159159   9.816   4.194   8.538  1.8761 -0.5086  0.9838
19527SOL    HW259160   9.683   4.122   8.537  0.7558  1.4799 -0.3971
19528SOL     OW59161   2.247   2.937   2.428  0.3376  0.9212 -0.0120
19528SOL    HW159162   2.333   2.975   2.446 -0.7025  3.2385  0.4575
19528SOL    HW259163   2.185   3.010   2.442 -1.4536  0.3197 -3.6243
19529SOL     OW59164   2.087   8.392   1.758 -0.2018  0.1765  0.3203
19529SOL    HW159165   2.171   8.416   1.796  0.4015 -0.8249 -0.3566
19529SOL    HW259166   2.103   8.309   1.713 -1.0853  0.8891 -1.4218
19530SOL     OW59167   3.251   9.076   9.761  0.3399 -0.2812 -0.0136
19530SOL    HW159168   3.262   8.986   9.789 -2.0724 -0.7964 -0.4556
19530SOL    HW259169   3.194   9.071   9.684  1.5866  1.5168 -1.1422
19531SOL     OW59170   3.787   8.934   9.441  0.3925  0.3362 -0.4723
19531SOL    HW159171   3.728   8.886   9.499 -0.5582  0.2891 -1.4563
19531SOL    HW259172   3.749   9.022   9.437 -0.0049  0.1273 -1.6237
19532SOL     OW59173   4.799   9.211   5.222 -0.3162  0.0004  0.0956
19532SOL    HW159174   4.821   9.128   5.265  1.8165  0.3895 -0.1488
19532SOL    HW259175   4.769   9.268   5.293  1.1459 -0.0316  0.7748
19533SOL     OW59176   7.687   3.990   2.047  0.2796  0.1205  0.0740
19533SOL    HW159177   7.759   4.042   2.084 -0.8113 -0.0785  2.6812
19533SOL    HW259178   7.618   4.054   2.028  0.6876  0.1690 -1.3352
19534SOL     OW59179   4.924   6.080   2.504 -0.4453 -0.0460  0.5182
19534SOL    HW159180   4.885   6.166   2.490 -1.6208 -0.7090 -0.5146
19534SOL    HW259181   4.961   6.056   2.420 -0.1651 -0.5620  0.7819
19535SOL     OW59182   6.308   3.329   4.830  0.4304  0.0558  0.3234
19535SOL    HW159183   6.225   3.288   4.806  1.0361 -0.7043 -0.5386
19535SOL    HW259184   6.297   3.355   4.922 -1.1516  1.0075 -0.0991
19536SOL     OW59185   8.423   8.758   3.016 -0.1369  0.3863 -0.1885
19536SOL    HW159186   8.430   8.686   3.078  2.2409  0.4162 -0.3395
19536SOL    HW259187   8.513   8.773   2.986 -1.0516  1.0578 -2.8695
19537SOL     OW59188   4.048   4.717   4.647  0.1857  0.4259 -0.0521
19537SOL    HW159189   4.034   4.731   4.553 -2.4404  0.2573  0.2532
19537SOL    HW259190   4.044   4.622   4.658  0.6834  0.4337  0.2102
19538SOL     OW59191   3.387   8.802   9.543  0.7639 -0.2295 -0.3983
19538SOL    HW159192   3.347   8.836   9.623 -0.4781 -2.9485  0.2472
19538SOL    HW259193   3.314   8.791   9.483  1.7245  2.0785 -2.1248
19539SOL     OW59194   7.559   1.165   7.971  0.1716  0.2779 -0.9367
19539SOL    HW159195   7.480   1.171   8.024  1.0434 -1.5052  0.6395
19539SOL    HW259196   7.554   1.079   7.929  0.6865  0.6768 -1.8541
19540SOL     OW59197   2.247   0.843   0.741  0.0405 -0.0664  0.5091
19540SOL    HW159198   2.168   0.798   0.772 -0.2558 -1.5624 -2.1349
19540SOL    HW259199   2.314   0.775   0.737  1.2893  1.0043  1.8757
19541SOL     OW59200   5.402   9.191   4.078  0.4662  0.0768  0.2983
19541SOL    HW159201   5.480   9.157   4.035  0.8678  2.1096 -0.7004
19541SOL    HW259202   5.383   9.127   4.147  2.6249 -0.8068  0.1597
19542SOL     OW59203   2.609   6.707   7.711 -0.2426  0.4488 -0.5950
19542SOL    HW159204   2.613   6.728   7.618 -1.7240  0.7805 -0.6213
19542SOL    HW259205   2.700   6.705   7.740  0.2823 -0.2176 -2.1622
19543SOL     OW59206   9.086   6.183   2.860  0.3251 -0.2243 -0.4004
19543SOL    HW159207   9.077   6.128   2.939  0.0938  1.3907  0.7489
19543SOL    HW259208   8.997   6.190   2.826 -0.3934  2.4311  1.6437
19544SOL     OW59209   9.656   7.814   8.897  0.0918 -0.7916  0.0876
19544SOL    HW159210   9.640   7.889   8.841 -1.5421 -0.8090  0.4918
19544SOL    HW259211   9.654   7.849   8.986  0.9946 -1.0427  0.2179
19545SOL     OW59212   8.172   6.032   3.700  0.0442 -0.3229 -0.2469
19545SOL    HW159213   8.179   6.126   3.716  1.2390 -0.1371 -1.6861
19545SOL    HW259214   8.123   5.999   3.775  1.5438  1.0963  1.4552
19546SOL     OW59215   8.548   3.346   1.503  0.2314  0.0921  0.4206
19546SOL    HW159216   8.466   3.380   1.469  0.7412  1.7118  0.7299
19546SOL    HW259217   8.574   3.408   1.571  1.0626 -1.0947  1.2422
19547SOL     OW59218   0.120   8.304   0.971  0.0887 -0.2096  0.0563
19547SOL    HW159219   0.209   8.309   0.937 -0.0115  1.0962 -0.0733
19547SOL    HW259220   0.128   8.253   1.051  0.9226 -0.2958 -0.0739
19548SOL     OW59221   7.628   6.970   4.070  0.3808 -0.1593  0.2802
19548SOL    HW159222   7.594   6.881   4.073  0.7788 -0.3704 -0.9296
19548SOL    HW259223   7.629   6.992   3.977 -1.4046  1.7742  0.6415
19549SOL     OW59224   0.801   4.502   9.032  0.0772  0.6076 -0.5763
19549SOL    HW159225   0.731   4.446   9.066 -0.2484  0.3707 -1.5960
19549SOL    HW259226   0.856   4.442   8.981 -0.0904  1.1415 -1.4066
19550SOL     OW59227   7.668   5.118   9.481 -0.1366 -0.4402 -0.1547
19550SOL    HW159228   7.647   5.035   9.523 -2.5407  0.3677  0.4121
19550SOL    HW259229   7.670   5.098   9.388  0.2005 -1.3104  0.0347
19551SOL     OW59230   7.070   1.441   4.564 -0.1792  0.1866 -0.2788
19551SOL    HW159231   7.028   1.527   4.556  1.7665  1.1068 -1.5411
19551SOL    HW259232   7.156   1.459   4.601 -0.7334 -1.6268  2.1624
19552SOL     OW59233   6.461   3.403   3.362 -0.5266  0.4113  0.0003
19552SOL    HW159234   6.469   3.350   3.283  1.5252  0.4974  0.0784
19552SOL    HW259235   6.372   3.387   3.394 -0.6053 -1.4693 -1.0233
19553SOL     OW59236   3.528   5.692   8.334 -0.3249  0.0090  0.0347
19553SOL    HW159237   3.624   5.702   8.339 -0.2166 -0.8291 -0.0902
19553SOL    HW259238   3.494   5.779   8.353  0.4556  0.2235  0.5370
19554SOL     OW59239   0.117   8.132   0.540  0.1429 -0.0754 -0.3377
19554SOL    HW159240   0.107   8.095   0.628 -0.0150 -1.2590 -0.8366
19554SOL    HW259241   0.159   8.217   0.554 -0.0323 -0.1798  0.8931
19555SOL     OW59242   0.484   4.892   0.457 -0.1064  0.1070 -0.1630
19555SOL    HW159243   0.431   4.819   0.490 -1.1293  0.8533 -0.1067
19555SOL    HW259244   0.568   4.852   0.436  0.8491 -0.3781  3.7695
19556SOL     OW59245   3.004   4.804   0.320 -0.3307 -0.4171 -0.0335
19556SOL    HW159246   3.042   4.853   0.248  1.0465 -1.8422 -0.3400
19556SOL    HW259247   3.079   4.771   0.369 -1.2010 -1.4328  0.6685
19557SOL     OW59248   7.675   9.041   4.738  0.2592  0.1894  0.0487
19557SOL    HW159249   7.592   9.038   4.785  0.4593 -0.4656  0.3769
19557SOL    HW259250   7.721   8.961   4.765  1.2230  0.8085  0.3021
19558SOL     OW59251   1.789   2.925   7.577  0.1096  0.3163 -0.1186
19558SOL    HW159252   1.770   2.870   7.500 -0.2320 -1.5420  1.2148
19558SOL    HW259253   1.704   2.951   7.610  0.2051  0.0688  0.3317
19559SOL     OW59254   6.920   6.990   1.815 -0.5196 -0.0573 -0.1936
19559SOL    HW159255   6.959   6.966   1.899  0.6555  1.6030 -0.2271
19559SOL    HW259256   6.845   6.932   1.807 -0.5630 -0.3852  1.9250
19560SOL     OW59257   5.903   8.811   4.427 -0.2865  0.1599  0.0879
19560SOL    HW159258   5.923   8.852   4.343  0.0928 -0.5003 -0.1540
19560SOL    HW259259   5.981   8.826   4.480 -0.1639 -0.2031  0.0134
19561SOL     OW59260   7.622   0.305   6.320 -0.7935  0.0861  0.5641
19561SOL    HW159261   7.558   0.237   6.345 -0.0641 -1.7453 -2.1219
19561SOL    HW259262   7.703   0.276   6.361 -0.6871 -0.1724  0.1762
19562SOL     OW59263   2.567   8.915   9.930  0.2368  0.5519 -0.0346
19562SOL    HW159264   2.574   8.848   9.998  2.0463  0.9936  0.2625
19562SOL    HW259265   2.651   8.959   9.931  1.3104 -0.9157 -4.1375
19563SOL     OW59266   1.851   4.295   1.084 -0.2671  0.1535  0.1917
19563SOL    HW159267   1.850   4.200   1.093  0.5817  0.3401  3.7796
19563SOL    HW259268   1.820   4.311   0.995 -2.5052 -3.3622  0.1480
19564SOL     OW59269   8.927   7.610   6.818  0.8556 -0.2955 -0.3257
19564SOL    HW159270   8.918   7.657   6.735 -1.5720  1.1683  0.6419
19564SOL    HW259271   8.973   7.671   6.875  1.6463 -0.9061 -0.2940
19565SOL     OW59272   5.879   1.169   3.786 -0.0882  0.3554 -0.6989
19565SOL    HW159273   5.900   1.203   3.873 -1.7629 -1.1211  0.3256
19565SOL    HW259274   5.848   1.245   3.737 -1.0399  0.8474  0.6375
19566SOL     OW59275   7.268   0.052   1.381 -0.2532 -0.0500  0.4215
19566SOL    HW159276   7.186   0.073   1.427  0.3850  0.9299  1.1558
19566SOL    HW259277   7.335   0.098   1.431  0.7346 -0.7188 -0.2654
19567SOL     OW59278   6.534   4.410   8.631  0.0523  0.4352 -0.3472
19567SOL    HW159279   6.522   4.505   8.629 -0.7364  0.3321 -1.2155
19567SOL    HW259280   6.502   4.380   8.546  0.0391 -0.6421  0.0214
19568SOL     OW59281   5.944   2.568   9.565 -0.0371 -0.6896 -0.1601
19568SOL    HW159282   5.993   2.487   9.546 -0.8989 -1.3665  0.4358
19568SOL    HW259283   5.852   2.544   9.554 -0.2766  0.3739 -0.5430
19569SOL     OW59284   2.818   0.984   3.004  0.3504 -0.2385  0.3164
19569SOL    HW159285   2.768   1.017   3.079  1.2095 -0.2874  0.9323
19569SOL    HW259286   2.782   1.031   2.929 -1.6751 -1.4142  0.4812
19570SOL     OW59287   1.837   7.587   1.583  0.2730  0.5653 -0.1042
19570SOL    HW159288   1.852   7.644   1.659 -1.4511 -0.2260  0.9124
19570SOL    HW259289   1.906   7.522   1.587 -0.7069 -0.4449  1.8302
19571SOL     OW59290   2.360   9.258   5.335 -0.3407  0.0204  0.6936
19571SOL    HW159291   2.417   9.184   5.355 -0.1026  0.0173  0.0172
19571SOL    HW259292   2.275   9.218   5.315 -0.4891  0.0019  1.3610
19572SOL     OW59293   0.974   0.022   1.171  0.4828  0.3655  0.4011
19572SOL    HW159294   0.925   0.102   1.192 -2.1794 -1.3692  1.2308
19572SOL    HW259295   0.974   0.018   1.076 -2.6742 -0.4512  0.3510
19573SOL     OW59296   8.542   4.173   1.320 -0.2517 -0.3845 -0.1017
19573SOL    HW159297   8.465   4.187   1.264  1.1286  2.9083 -1.4624
19573SOL    HW259298   8.538   4.243   1.385  0.7366 -1.2134  0.9044
19574SOL     OW59299   2.521   2.453   8.364  0.3538  0.4135 -0.2107
19574SOL    HW159300   2.530   2.547   8.351 -1.5256  0.4153 -1.9592
19574SOL    HW259301   2.471   2.444   8.445  0.9269  0.8889  0.2039
19575SOL     OW59302   9.321   1.520   0.814 -0.1206 -0.1692 -0.5768
19575SOL    HW159303   9.299   1.547   0.904 -0.0658  0.8973 -0.8687
19575SOL    HW259304   9.408   1.480   0.822  0.2141  0.5919 -0.2531
19576SOL     OW59305   6.317   0.880   8.609 -0.5380 -0.1155 -0.0024
19576SOL    HW159306   6.330   0.837   8.524 -2.1394 -1.3119  0.3223
19576SOL    HW259307   6.277   0.964   8.588  0.7409  0.3851 -0.5215
19577SOL     OW59308   3.904   4.137   7.672 -0.5309 -0.1216 -0.3549
19577SOL    HW159309   3.966   4.161   7.603 -0.2469  1.2890  0.3440
19577SOL    HW259310   3.937   4.182   7.750 -2.0144  0.0609  0.2017
19578SOL     OW59311   5.873   4.876   6.367 -0.1031 -0.6060 -0.2309
19578SOL    HW159312   5.919   4.795   6.388 -1.9776 -1.7109 -0.1028
19578SOL    HW259313   5.855   4.869   6.273  1.2600  0.5284 -0.6052
19579SOL     OW59314   4.209   9.279   0.354 -0.3996 -0.3110 -0.1470
19579SOL    HW159315   4.183   9.193   0.323  0.2335 -0.3735 -0.5064
19579SOL    HW259316   4.291   9.298   0.308  0.2002 -0.1224  0.9652
19580SOL     OW59317   5.919   0.639   0.922 -0.1138  0.3394 -0.5956
19580SOL    HW159318   5.900   0.674   0.835 -1.1261  0.9979 -0.1325
19580SOL    HW259319   5.840   0.655   0.972  0.1393 -0.8180  0.2198
19581SOL     OW59320   7.277   6.578   2.239  0.1791 -0.6295 -0.4450
19581SOL    HW159321   7.371   6.598   2.243  0.3880 -1.4840 -0.7547
19581SOL    HW259322   7.248   6.578   2.330 -0.0490  1.8733 -0.4252
19582SOL     OW59323   3.442   7.815   5.490  0.3347 -0.0253  0.5544
19582SOL    HW159324   3.373   7.798   5.426  0.1048  1.0521  0.5041
19582SOL    HW259325   3.522   7.823   5.438 -0.0016  1.8355  0.2610
19583SOL     OW59326   7.534   6.804   8.741  0.3023  0.1342 -0.0447
19583SOL    HW159327   7.548   6.886   8.789  0.4331 -0.2028  0.5032
19583SOL    HW259328   7.572   6.737   8.797 -1.5387 -0.5598  0.4651
19584SOL     OW59329   9.355   1.016   9.114  0.5765  0.6036 -0.4920
19584SOL    HW159330   9.437   1.057   9.143  0.0333  0.4690  1.3329
19584SOL    HW259331   9.384   0.939   9.064  1.6127 -0.4703  1.6382
19585SOL     OW59332   2.756   6.855   0.020  0.2075  0.1929  0.1622
19585SOL    HW159333   2.664   6.874   0.042  0.5268  1.0206  0.8113
19585SOL    HW259334   2.771   6.903  -0.062  0.3171  0.7828  0.5262
19586SOL     OW59335   3.329   4.257   1.061  0.1902  0.2164 -0.1591
19586SOL    HW159336   3.293   4.240   1.148  0.2314 -1.1761 -0.3950
19586SOL    HW259337   3.423   4.267   1.075  0.3090 -0.8811 -0.1510
19587SOL     OW59338   5.586   8.320   5.488  0.2723 -0.1519 -0.0812
19587SOL    HW159339   5.594   8.406   5.446 -2.3155  1.0951  1.6871
19587SOL    HW259340   5.599   8.339   5.581  0.6628 -1.9102  0.2480
19588SOL     OW59341   5.604   2.709   7.603 -0.3543  0.4293 -0.5375
19588SOL    HW159342   5.613   2.654   7.681  0.7731  0.5440 -0.5791
19588SOL    HW259343   5.539   2.775   7.627 -0.2172  0.2946  0.2109
19589SOL     OW59344   4.789   6.654   6.072 -0.2854 -0.0057 -0.4508
19589SOL    HW159345   4.791   6.691   6.161 -0.4584 -2.9800  0.9154
19589SOL    HW259346   4.699   6.624   6.061 -0.3265  0.5517 -1.7744
19590SOL     OW59347   1.120   5.748   7.732 -0.2909 -0.0210 -0.6843
19590SOL    HW159348   1.147   5.659   7.710  0.2975  0.3281 -1.4305
19590SOL    HW259349   1.174   5.804   7.676 -0.3916  0.8196  0.0334
19591SOL     OW59350   8.516   8.510   3.175  0.6044  0.3680  0.0140
19591SOL    HW159351   8.549   8.434   3.224 -0.5786 -0.0050  0.2676
19591SOL    HW259352   8.594   8.550   3.138  1.5316  0.5719  2.0748
19592SOL     OW59353   7.247   6.407   3.036 -0.3755  0.1612 -0.1073
19592SOL    HW159354   7.279   6.352   3.108 -0.3492 -1.1933 -1.1040
19592SOL    HW259355   7.325   6.425   2.983 -0.6356 -0.1317 -0.5991
19593SOL     OW59356   0.705   6.509   1.186  0.1572 -0.0723  0.1535
19593SOL    HW159357   0.737   6.590   1.225 -0.1628  1.0328 -1.7606
19593SOL    HW259358   0.615   6.529   1.160  0.1176 -0.9919 -0.4544
19594SOL     OW59359   5.730   3.907   0.235  0.8867  0.1145  0.6118
19594SOL    HW159360   5.650   3.858   0.214  1.0225  0.1614 -0.0023
19594SOL    HW259361   5.717   3.934   0.326  0.7458 -0.9386  0.9268
19595SOL     OW59362   0.383   9.368   4.403  0.1597  0.3943  0.2798
19595SOL    HW159363   0.453   9.339   4.462 -0.7914  0.1625  1.3319
19595SOL    HW259364   0.308   9.382   4.460 -1.0933 -0.7699 -0.9919
19596SOL     OW59365   8.588   8.186   9.493 -0.2667 -0.1742 -0.2282
19596SOL    HW159366   8.530   8.244   9.445 -0.3092 -0.2209 -0.2329
19596SOL    HW259367   8.549   8.100   9.485  0.7685 -0.5476 -1.7954
19597SOL     OW59368   0.453   2.068   7.424  0.3421 -0.6091  0.3811
19597SOL    HW159369   0.539   2.053   7.464 -0.4082 -0.2100  2.2250
19597SOL    HW259370   0.395   2.004   7.465 -0.4512 -0.2299 -0.1167
19598SOL     OW59371   2.624   7.247   0.052 -0.6683 -0.1857  0.9662
19598SOL    HW159372   2.538   7.208   0.035 -0.7091  0.4030 -0.2677
19598SOL    HW259373   2.609   7.307   0.125 -1.5356  0.6331  0.1405
19599SOL     OW59374   2.856   3.349   7.956  0.1504 -0.4807  0.0237
19599SOL    HW159375   2.943   3.383   7.938 -0.3533 -0.3983 -2.5264
19599SOL    HW259376   2.801   3.427   7.963  0.2331 -0.5233  1.7747
19600SOL     OW59377   1.535   3.506   5.141  0.6706  0.6635  0.7755
19600SOL    HW159378   1.597   3.467   5.202  0.7994 -0.3646  0.0194
19600SOL    HW259379   1.589   3.531   5.065  0.1350 -0.6873 -0.0930
19601SOL     OW59380   5.362   2.969   1.513  0.6404  0.1935 -0.2155
19601SOL    HW159381   5.421   2.903   1.549  0.7019 -0.0419 -0.7324
19601SOL    HW259382   5.303   2.990   1.585  0.7613 -0.2623  0.0237
19602SOL     OW59383   5.068   1.074   3.459  0.1369 -0.1595  0.2967
19602SOL    HW159384   5.084   1.117   3.543  0.8317  0.9132 -0.3577
19602SOL    HW259385   5.132   1.003   3.457 -0.5025 -0.7874  1.0516
19603SOL     OW59386   2.631   9.007   3.744 -0.0268 -0.7519  0.7099
19603SOL    HW159387   2.691   9.056   3.688 -0.9522  0.2201  0.5333
19603SOL    HW259388   2.686   8.940   3.785  0.3411 -2.9575 -2.9719
19604SOL     OW59389   7.109   3.552   2.588  0.3071  0.7259  0.3262
19604SOL    HW159390   7.066   3.514   2.665  0.9053  1.1574  0.8834
19604SOL    HW259391   7.171   3.484   2.561  1.1059  1.1199  1.0953
19605SOL     OW59392   6.022   3.565   8.536 -0.1178  0.7833 -0.1724
19605SOL    HW159393   5.934   3.593   8.563 -0.4006 -1.2539  1.3279
19605SOL    HW259394   6.008   3.518   8.454 -0.3662  0.8466 -0.1686
19606SOL     OW59395   3.484   9.661   1.217 -0.5328  0.2696  0.4395
19606SOL    HW159396   3.505   9.578   1.259 -0.6987  0.5781  1.1644
19606SOL    HW259397   3.388   9.664   1.217 -0.5297  1.0773  1.7226
19607SOL     OW59398   4.086   9.842   3.052 -0.6771  0.2600 -0.7170
19607SOL    HW159399   4.131   9.918   3.089 -1.5800  0.2725  0.4278
19607SOL    HW259400   4.001   9.876   3.023 -0.8828 -0.2131 -0.6804
19608SOL     OW59401   5.972   3.530   9.399  0.4854  0.2878 -0.2586
19608SOL    HW159402   6.033   3.489   9.460 -0.5950  1.4772  1.7718
19608SOL    HW259403   6.015   3.611   9.373  0.9467 -0.2193 -1.0778
19609SOL     OW59404   5.500   1.400   8.280  0.1599 -0.5619  0.2596
19609SOL    HW159405   5.548   1.399   8.362  0.2579 -1.3605  0.2028
19609SOL    HW259406   5.441   1.324   8.286  0.1567 -0.6171 -0.3949
19610SOL     OW59407   0.657   5.197   1.912 -0.4195  0.4114  0.2187
19610SOL    HW159408   0.700   5.208   1.997 -1.0933  1.6413  0.4212
19610SOL    HW259409   0.709   5.249   1.851 -1.0879  1.1869  0.2934
19611SOL     OW59410   7.343   9.355   8.165 -0.2759 -0.3081 -0.1242
19611SOL    HW159411   7.352   9.445   8.197 -0.7832 -0.2496 -0.1250
19611SOL    HW259412   7.402   9.303   8.219  0.7935  0.1802 -0.8003
19612SOL     OW59413   1.963   7.465   3.010 -0.1356 -0.7272  0.3029
19612SOL    HW159414   1.964   7.528   3.082  2.7625 -1.1662  0.7778
19612SOL    HW259415   2.011   7.389   3.044 -0.6122 -1.8341 -1.3812
19613SOL     OW59416   3.609   4.094   2.853  0.0718 -0.1462 -0.0387
19613SOL    HW159417   3.679   4.148   2.891  0.9973  0.2181 -2.0741
19613SOL    HW259418   3.528   4.138   2.878  0.5067 -0.5741  2.3757
19614SOL     OW59419   4.391   3.351   2.262  0.4799  0.2585  0.0054
19614SOL    HW159420   4.443   3.271   2.272 -2.6783 -2.0304 -0.3391
19614SOL    HW259421   4.332   3.351   2.338 -0.5100  1.4787 -0.7143
19615SOL     OW59422   0.904   8.176   0.061  0.0547  0.3622 -0.0020
19615SOL    HW159423   0.992   8.208   0.042  0.6875 -1.2569  0.1089
19615SOL    HW259424   0.872   8.233   0.131  1.3080  0.4930  0.4801
19616SOL     OW59425   8.255   3.105   1.913  0.1951 -0.6670  0.0096
19616SOL    HW159426   8.246   3.146   1.999  1.3676 -0.9544  0.2743
19616SOL    HW259427   8.197   3.157   1.856 -0.0901 -0.0771  0.8216
19617SOL     OW59428   3.849   5.523   1.196  0.5019  0.2885  0.8579
19617SOL    HW159429   3.768   5.502   1.149  0.1654  0.3169  1.4258
19617SOL    HW259430   3.849   5.619   1.202  0.7860  0.3161  0.5034
19618SOL     OW59431   0.771   7.807   4.206  0.5876 -0.6051  0.4155
19618SOL    HW159432   0.724   7.847   4.279 -0.6473 -0.3964 -0.4654
19618SOL    HW259433   0.752   7.864   4.132  1.5199 -1.0230 -0.1660
19619SOL     OW59434   5.520   3.651   3.671 -0.5743 -0.1579  0.5770
19619SOL    HW159435   5.505   3.616   3.583  2.1061 -2.4816  0.9015
19619SOL    HW259436   5.442   3.704   3.690 -1.6323 -0.2745 -2.8084
19620SOL     OW59437   0.291   1.223   5.971 -0.0375  0.0095  0.1988
19620SOL    HW159438   0.261   1.134   5.991  0.9933 -0.6758 -1.1196
19620SOL    HW259439   0.266   1.275   6.047 -4.1972 -0.5216 -0.5403
19621SOL     OW59440   1.907   0.332   9.621  0.1672  0.0808  0.3485
19621SOL    HW159441   1.877   0.372   9.703  2.1784 -0.4348  1.4217
19621SOL    HW259442   1.950   0.251   9.649  1.5668  0.2673 -1.1391
19622SOL     OW59443   0.140   1.415   6.195  0.1977  0.0186 -0.1970
19622SOL    HW159444   0.180   1.345   6.246  1.1956  0.5472 -0.2413
19622SOL    HW259445   0.053   1.381   6.172  0.6575 -1.1902 -0.2044
19623SOL     OW59446   6.975   9.325   0.986 -0.2360  0.4174  0.3840
19623SOL    HW159447   7.004   9.265   1.055 -0.8118 -0.1854  0.1179
19623SOL    HW259448   6.993   9.278   0.904 -0.0126  0.9209  0.1404
19624SOL     OW59449   5.564   8.129   6.454 -0.0838 -0.6909  0.3333
19624SOL    HW159450   5.602   8.041   6.460  0.2748 -0.4896  1.1181
19624SOL    HW259451   5.478   8.120   6.497  0.6148 -0.3039  1.8914
19625SOL     OW59452   1.643   9.334   4.954 -0.1806 -0.1300 -0.2169
19625SOL    HW159453   1.690   9.261   4.995  2.2248  0.9944 -0.7446
19625SOL    HW259454   1.551   9.319   4.974  0.2541 -3.1755 -0.1488
19626SOL     OW59455   5.725   4.395   7.513 -0.1307 -0.8680 -0.3929
19626SOL    HW159456   5.683   4.310   7.525  0.0394 -0.8852  0.1280
19626SOL    HW259457   5.805   4.389   7.565 -1.0128  0.2607  1.1671
19627SOL     OW59458   3.396   7.054   2.439 -0.3168 -0.8713 -0.1363
19627SOL    HW159459   3.374   7.033   2.348 -1.5070  0.5094 -0.2094
19627SOL    HW259460   3.452   6.982   2.468 -0.1596 -1.4827 -1.8651
19628SOL     OW59461   4.167   0.059   9.303 -0.0069  0.7431 -0.3307
19628SOL    HW159462   4.228  -0.015   9.307  0.4559  1.1631  0.5729
19628SOL    HW259463   4.207   0.119   9.240 -2.0581 -1.2017 -3.8135
19629SOL     OW59464   4.654   1.796   9.767 -0.0134 -0.1789  0.1224
19629SOL    HW159465   4.607   1.867   9.723 -1.3477 -0.8487  0.3926
19629SOL    HW259466   4.630   1.718   9.717  1.0094 -0.5178  0.1490
19630SOL     OW59467   1.904   2.126   3.763 -0.2433  0.3499  0.0588
19630SOL    HW159468   1.878   2.106   3.853  2.1997 -1.3051  0.4717
19630SOL    HW259469   1.893   2.044   3.715  0.6943  0.5851 -0.5935
19631SOL     OW59470   3.644   7.497   8.492  1.0291 -0.0059  0.0454
19631SOL    HW159471   3.673   7.429   8.552  1.4074 -0.9477 -1.1713
19631SOL    HW259472   3.700   7.487   8.415  0.8345  1.4368 -0.3091
19632SOL     OW59473   2.291   9.628   5.304 -0.5354  0.0991 -0.3218
19632SOL    HW159474   2.353   9.690   5.264 -0.9246 -0.0609 -1.1842
19632SOL    HW259475   2.329   9.542   5.286 -1.1071 -0.0131 -1.0556
19633SOL     OW59476   8.404   0.335   5.463  0.1914  0.5966 -0.5806
19633SOL    HW159477   8.401   0.321   5.558 -1.5520 -0.9216 -0.8025
19633SOL    HW259478   8.371   0.253   5.426  2.3506  0.5196 -2.6081
19634SOL     OW59479   3.837   6.070   3.970 -0.4075 -0.4886 -0.0710
19634SOL    HW159480   3.841   6.157   3.931  0.7017 -0.7586 -0.6034
19634SOL    HW259481   3.913   6.066   4.028 -0.7126 -0.9356  0.3081
19635SOL     OW59482   8.539   0.234   4.578  0.0988 -0.0173  0.5504
19635SOL    HW159483   8.506   0.264   4.663 -0.8946  0.6910 -0.0586
19635SOL    HW259484   8.480   0.163   4.553 -1.3927  1.6026 -0.7848
19636SOL     OW59485   6.000   5.559   8.193 -0.1707  0.4138  0.6157
19636SOL    HW159486   6.055   5.485   8.166 -0.7065 -0.2642  1.3634
19636SOL    HW259487   5.911   5.526   8.186 -0.4687  1.3288 -0.0388
19637SOL     OW59488   2.168   8.302   2.696  0.4016  0.3303  0.1263
19637SOL    HW159489   2.136   8.260   2.616 -0.8640  0.5783  0.4858
19637SOL    HW259490   2.094   8.354   2.727  0.7417 -0.0816  1.6809
19638SOL     OW59491   4.572   7.905   1.765 -0.1973 -0.0338 -0.6511
19638SOL    HW159492   4.663   7.917   1.735 -0.3113 -0.2944 -1.1157
19638SOL    HW259493   4.543   7.825   1.720 -1.0520  0.7102 -1.4556
19639SOL     OW59494   3.202   5.704   2.889  0.8677  0.3400 -0.3588
19639SOL    HW159495   3.212   5.658   2.972 -2.7508  0.9472  0.6007
19639SOL    HW259496   3.212   5.636   2.822 -1.8869 -1.5184  0.9038
19640SOL     OW59497   1.961   2.804   2.023 -0.2656  0.3408  0.4872
19640SOL    HW159498   2.024   2.872   1.997 -0.8838  0.2502 -1.3861
19640SOL    HW259499   1.982   2.786   2.115  2.3896  0.3691 -0.0436
19641SOL     OW59500   1.782   0.754   2.854  0.3446 -0.7164  0.0529
19641SOL    HW159501   1.773   0.661   2.833 -2.7128 -0.0074 -2.5406
19641SOL    HW259502   1.808   0.795   2.772  1.5117  0.7967  1.1218
19642SOL     OW59503   7.035   7.743   0.382 -0.6341 -0.5198  0.0120
19642SOL    HW159504   7.034   7.711   0.472 -1.5763 -1.4292 -0.3092
19642SOL    HW259505   7.054   7.837   0.390  1.7168 -1.0277  0.9894
19643SOL     OW59506   4.748   6.240   5.517 -0.3654 -0.1366  0.0563
19643SOL    HW159507   4.724   6.277   5.602  0.0953 -1.3338  0.7252
19643SOL    HW259508   4.739   6.146   5.528 -1.1920 -0.2755 -1.5138
19644SOL     OW59509   7.716   2.421   5.108  0.0587  0.0229 -0.0548
19644SOL    HW159510   7.637   2.463   5.074 -0.7936  0.4946  2.3236
19644SOL    HW259511   7.788   2.467   5.065 -0.9266  0.0057 -1.7978
19645SOL     OW59512   6.880   2.987   7.013 -0.1041 -0.2928 -0.4160
19645SOL    HW159513   6.895   3.046   6.939  0.1587 -1.0687 -0.9922
19645SOL    HW259514   6.951   2.924   7.008 -0.5274 -0.8096  0.0427
19646SOL     OW59515   8.124   5.530   8.716 -0.0492 -0.2277  0.0118
19646SOL    HW159516   8.086   5.565   8.797  2.8340 -0.8266  1.7739
19646SOL    HW259517   8.051   5.484   8.674 -1.9924  1.2419  1.5405
19647SOL     OW59518   8.935   6.971   6.031 -0.0747 -0.5005 -0.2438
19647SOL    HW159519   8.855   7.013   6.063  0.4077  1.3531 -1.3409
19647SOL    HW259520   8.907   6.883   6.006 -2.0469  0.3989 -1.5050
19648SOL     OW59521   3.026   6.139   3.930 -0.0845  0.1455 -0.0528
19648SOL    HW159522   3.077   6.099   3.860  2.4052  0.0694  1.6931
19648SOL    HW259523   3.078   6.213   3.960 -0.2432 -0.7121  2.7010
19649SOL     OW59524   3.074   9.919   4.396 -0.3305  0.1120 -0.4282
19649SOL    HW159525   2.995   9.917   4.451  0.1542  0.3657  0.3031
19649SOL    HW259526   3.061   9.995   4.339 -0.7352 -0.0065 -0.4944
19650SOL     OW59527   9.912   1.517   2.649  0.0601 -0.2169 -0.1843
19650SOL    HW159528   9.890   1.424   2.646 -0.0316 -0.1720 -1.7221
19650SOL    HW259529  10.008   1.518   2.654  0.0478 -0.4002  0.0872
19651SOL     OW59530   9.118   8.748   3.987 -0.0302 -0.4153  0.1139
19651SOL    HW159531   9.109   8.815   4.055 -1.6894 -2.6135  2.2259
19651SOL    HW259532   9.211   8.726   3.988  0.7282  2.2281 -1.1648
19652SOL     OW59533   2.090   8.052   5.806  0.1964  0.6779  0.0219
19652SOL    HW159534   2.064   8.059   5.714  0.6486 -1.9282 -0.3839
19652SOL    HW259535   2.009   8.036   5.854  0.1968 -0.2348 -0.2626
19653SOL     OW59536   0.519   3.682   9.148 -0.3937 -0.3204 -0.1325
19653SOL    HW159537   0.565   3.749   9.199 -0.4367  0.0893 -0.6237
19653SOL    HW259538   0.589   3.624   9.117 -0.0830  0.7966 -1.6119
19654SOL     OW59539   3.685   0.900   5.241 -0.7922 -0.5363 -0.4436
19654SOL    HW159540   3.653   0.977   5.288 -1.9211 -1.4653  0.3638
19654SOL    HW259541   3.705   0.837   5.310  1.1417 -0.6402 -1.0283
19655SOL     OW59542   1.008   6.874   7.436  0.1074  0.1632  0.0212
19655SOL    HW159543   0.937   6.911   7.490 -0.3872  2.4283 -2.0221
19655SOL    HW259544   1.058   6.950   7.406  1.4868 -1.1559 -1.1873
19656SOL     OW59545   8.025   5.724   4.377  0.1780 -0.1887 -0.2691
19656SOL    HW159546   8.116   5.705   4.401  0.2575  1.2256  0.6107
19656SOL    HW259547   7.999   5.795   4.435 -1.3191 -0.2009 -0.8972
19657SOL     OW59548   5.544   9.604   6.422 -0.3518 -0.6886 -0.0950
19657SOL    HW159549   5.484   9.530   6.412 -1.2461  0.1432 -1.1507
19657SOL    HW259550   5.510   9.652   6.498 -1.1490 -0.1485 -0.7668
19658SOL     OW59551   2.153   8.328   9.880  0.3871 -0.4274  0.4210
19658SOL    HW159552   2.237   8.356   9.845 -0.4428  1.5023 -0.2032
19658SOL    HW259553   2.173   8.294   9.967  1.6081  2.2511  1.2990
19659SOL     OW59554   9.335   1.674   6.384  0.5110  0.1390  0.0359
19659SOL    HW159555   9.320   1.684   6.478  1.5750 -1.6000  0.4531
19659SOL    HW259556   9.267   1.614   6.355 -0.1920  1.1553 -0.4535
19660SOL     OW59557   5.026   8.273   5.063 -0.1062  0.2580  0.4347
19660SOL    HW159558   5.067   8.345   5.014 -0.7869  1.1516  1.1397
19660SOL    HW259559   4.933   8.295   5.065 -0.8993 -2.2848 -2.0818
19661SOL     OW59560   9.109   7.167   5.579  0.0981  0.4545 -0.0622
19661SOL    HW159561   9.111   7.166   5.674 -1.2253 -0.0560 -0.0257
19661SOL    HW259562   9.201   7.170   5.553  0.4607  1.1628  1.2231
19662SOL     OW59563   2.074   0.695   0.441 -0.0901  0.4288 -0.0535
19662SOL    HW159564   2.121   0.631   0.388 -0.2409  1.2381 -1.1982
19662SOL    HW259565   2.131   0.710   0.517 -0.1618 -1.2049  0.3687
19663SOL     OW59566   1.678   8.604   0.568 -0.4490  0.0903 -0.4504
19663SOL    HW159567   1.601   8.556   0.537 -1.6179  0.7806  1.2802
19663SOL    HW259568   1.710   8.552   0.641 -0.2336  0.6496 -0.1449
19664SOL     OW59569   0.317   9.707   7.890 -0.1604  0.2810 -0.0724
19664SOL    HW159570   0.277   9.689   7.975 -0.8913 -0.0905 -0.4831
19664SOL    HW259571   0.388   9.643   7.883 -0.6632 -0.2837 -0.1126
19665SOL     OW59572   2.655   5.569   8.616  0.2640 -0.0510  0.2959
19665SOL    HW159573   2.633   5.626   8.690  0.6601  1.6924 -0.8446
19665SOL    HW259574   2.750   5.562   8.618  0.4041  1.0655 -0.7120
19666SOL     OW59575   1.311   3.439   7.119 -0.7864 -0.0759  0.0162
19666SOL    HW159576   1.258   3.364   7.094 -0.6359 -0.2363  0.1745
19666SOL    HW259577   1.275   3.512   7.069 -1.0724 -0.2097  0.0238
19667SOL     OW59578   2.769   5.643   2.985 -0.1930 -0.2633 -0.1807
19667SOL    HW159579   2.818   5.699   3.046  0.1192 -1.2715  0.5375
19667SOL    HW259580   2.679   5.673   2.991  0.1520  0.9144 -0.6948
19668SOL     OW59581   7.151   0.319   1.154  0.2463  0.2489  0.7197
19668SOL    HW159582   7.143   0.410   1.182 -0.9572  0.2731  0.3125
19668SOL    HW259583   7.120   0.318   1.064  0.8136 -0.4690  0.5210
19669SOL     OW59584   5.674   4.507   4.955  0.0043  0.6974  0.0978
19669SOL    HW159585   5.767   4.484   4.946 -0.0995 -0.2596  1.1425
19669SOL    HW259586   5.629   4.449   4.894  0.0113  0.3546  0.4123
19670SOL     OW59587   4.923   0.837   3.807 -0.3812  0.1912  0.1077
19670SOL    HW159588   4.987   0.767   3.798  0.1436  0.5697  0.7736
19670SOL    HW259589   4.871   0.834   3.727  0.2767 -0.3174 -0.3011
19671SOL     OW59590   3.030   1.434   5.878  0.0606  0.2781 -0.1288
19671SOL    HW159591   3.003   1.457   5.967  0.1703  0.9603 -0.2671
19671SOL    HW259592   2.956   1.384   5.843  0.0043  0.0336  0.3350
19672SOL     OW59593   9.933   9.584   8.596  0.7487 -0.3993  0.1142
19672SOL    HW159594   9.946   9.489   8.596 -1.0037 -0.6804  0.9967
19672SOL    HW259595   9.928   9.607   8.688 -0.4285  0.2883 -0.1012
19673SOL     OW59596   2.587   5.593   7.095  0.0550  0.4004  0.0756
19673SOL    HW159597   2.588   5.663   7.030 -1.5082  0.2917 -0.1057
19673SOL    HW259598   2.532   5.526   7.056 -1.7734  0.7537  1.9188
19674SOL     OW59599   6.445   2.361   6.581  0.2408 -0.2793 -0.5897
19674SOL    HW159600   6.493   2.390   6.659  1.5234 -1.7469 -0.7831
19674SOL    HW259601   6.511   2.362   6.511 -0.6336 -0.0112 -1.4359
19675SOL     OW59602   0.555   3.989   3.983 -0.0723 -0.0132 -0.8709
19675SOL    HW159603   0.542   3.898   4.009 -0.5875  0.2121 -0.3337
19675SOL    HW259604   0.570   3.985   3.889  0.9707 -0.7549 -0.6996
19676SOL     OW59605   2.644   5.297   3.122 -0.0623  0.6752  0.6259
19676SOL    HW159606   2.590   5.307   3.043 -0.0839 -2.3899  0.0987
19676SOL    HW259607   2.733   5.285   3.088 -0.0476 -0.4963  1.0313
19677SOL     OW59608   9.714   8.075   3.880 -0.3154 -0.7053  0.4671
19677SOL    HW159609   9.770   8.005   3.847 -0.8334 -0.5838 -0.7051
19677SOL    HW259610   9.752   8.098   3.965  0.8347 -1.2727  0.1203
19678SOL     OW59611   3.590   0.569   0.873 -0.1980  0.3557 -0.4259
19678SOL    HW159612   3.644   0.502   0.914 -0.8486  0.1173  0.0519
19678SOL    HW259613   3.566   0.629   0.944 -1.0501  0.1310 -0.5101
19679SOL     OW59614   9.978   9.369   7.192 -0.0527  0.8167 -0.1711
19679SOL    HW159615   9.894   9.346   7.153  0.4750 -1.6177 -0.0379
19679SOL    HW259616  10.036   9.295   7.171  1.4035  1.3421  1.6772
19680SOL     OW59617   9.469   1.357   1.144 -0.0356 -0.3317  0.4269
19680SOL    HW159618   9.546   1.340   1.199 -0.5626 -1.1058  0.9539
19680SOL    HW259619   9.504   1.370   1.056  0.8204  0.8111  0.9095
19681SOL     OW59620   6.509   3.789   7.919 -0.4613  0.1765 -0.1184
19681SOL    HW159621   6.436   3.756   7.971 -1.6392  1.8522 -0.6118
19681SOL    HW259622   6.490   3.759   7.830 -0.2587  0.1513 -0.1526
19682SOL     OW59623   7.797   8.471   8.706 -0.2883 -0.4039  0.1390
19682SOL    HW159624   7.805   8.398   8.767 -0.1614 -0.4788  0.0353
19682SOL    HW259625   7.867   8.456   8.642 -0.3585 -0.2750  0.0314
19683SOL     OW59626   4.695   7.656   7.428 -0.0473  0.1970 -0.0860
19683SOL    HW159627   4.683   7.598   7.503 -0.9007  0.6380  0.1270
19683SOL    HW259628   4.726   7.739   7.466  1.9079 -0.3018 -0.4503
19684SOL     OW59629   6.747   5.887   2.934  0.3521  0.4814  0.3851
19684SOL    HW159630   6.793   5.949   2.878  0.3893  0.4446  0.3748
19684SOL    HW259631   6.656   5.892   2.905  0.5607 -0.4449 -0.5380
19685SOL     OW59632   2.888   6.140   3.427 -0.6884  0.9499  0.2103
19685SOL    HW159633   2.968   6.179   3.461 -0.5577  0.7285  0.1534
19685SOL    HW259634   2.830   6.133   3.504 -0.2497  0.0799  0.4783
19686SOL     OW59635   3.294   5.330   9.774  0.6398  0.0225 -0.4407
19686SOL    HW159636   3.269   5.283   9.853 -1.7654  3.7381  1.2316
19686SOL    HW259637   3.290   5.263   9.705  2.1322 -3.2049  2.2981
19687SOL     OW59638   0.740   9.082   3.463 -0.0334 -0.1125 -0.0768
19687SOL    HW159639   0.707   9.146   3.400  1.4855 -0.8722 -1.7145
19687SOL    HW259640   0.708   8.998   3.430 -0.7546 -0.3761  1.2243
19688SOL     OW59641   3.069   2.154   1.586  0.1167  0.2101 -0.0019
19688SOL    HW159642   2.992   2.200   1.552  0.1490  0.2962  0.0420
19688SOL    HW259643   3.117   2.127   1.508 -0.9390 -1.5438 -0.1149
19689SOL     OW59644   1.836   9.845   5.663 -0.9784  0.3516 -0.4510
19689SOL    HW159645   1.856   9.913   5.599 -0.6211  0.7678  0.0843
19689SOL    HW259646   1.865   9.763   5.623  1.4424  0.8711  0.0880
19690SOL     OW59647   2.136   6.010   4.980  0.2068 -0.1719  0.6760
19690SOL    HW159648   2.230   5.993   4.977  0.3643 -0.0969  2.9834
19690SOL    HW259649   2.122   6.050   5.067 -1.9355 -0.0731  0.3429
19691SOL     OW59650   8.273   8.231   2.507 -0.1896  0.1953 -0.2041
19691SOL    HW159651   8.349   8.287   2.521 -1.0529  1.7833 -1.5134
19691SOL    HW259652   8.305   8.142   2.524  1.5344  0.9526  0.7734
19692SOL     OW59653   8.121   2.048   8.778 -0.1960  0.1637 -0.2206
19692SOL    HW159654   8.171   2.032   8.698 -0.1960  1.0702 -0.4168
19692SOL    HW259655   8.034   2.074   8.747 -1.1602 -2.4057  0.1277
19693SOL     OW59656   9.391   0.148   9.274  0.0228 -0.2621  0.3360
19693SOL    HW159657   9.307   0.178   9.241 -0.3553 -1.4643  0.1389
19693SOL    HW259658   9.432   0.226   9.311 -2.0481 -0.0147  2.3365
19694SOL     OW59659   5.374   9.375   5.355 -0.0732  0.0018  0.4321
19694SOL    HW159660   5.466   9.384   5.377  0.5355 -1.9040 -1.0387
19694SOL    HW259661   5.347   9.293   5.396 -0.2555 -1.0184 -1.6182
19695SOL     OW59662   0.036   1.473   3.415 -0.1114  0.1868 -0.7787
19695SOL    HW159663   0.113   1.528   3.433 -1.0197  1.4892 -0.7278
19695SOL    HW259664  -0.007   1.516   3.342 -1.6629  0.4153  0.2304
19696SOL     OW59665   0.159   8.809   3.128 -0.8233  0.6661 -0.5309
19696SOL    HW159666   0.249   8.822   3.160 -1.0101 -0.1184  0.3761
19696SOL    HW259667   0.120   8.896   3.130 -0.1544  0.9742 -0.6859
19697SOL     OW59668   5.985   7.512   6.857  0.1000  0.5726  0.2638
19697SOL    HW159669   6.012   7.430   6.815 -0.5648  0.8282 -0.6884
19697SOL    HW259670   5.917   7.547   6.800 -1.0029  0.8226  1.6793
19698SOL     OW59671   4.849   2.965   2.167  0.9008 -0.3894 -0.3315
19698SOL    HW159672   4.846   2.869   2.158 -2.0682 -0.2766 -1.8780
19698SOL    HW259673   4.808   2.997   2.086  1.2531  2.1791  0.4421
19699SOL     OW59674   8.082   9.392   6.261  0.8305  0.2507 -0.0311
19699SOL    HW159675   8.124   9.385   6.176  0.6085  1.2588 -0.2306
19699SOL    HW259676   7.998   9.347   6.251  1.0738 -0.1857 -0.1493
19700SOL     OW59677   9.277   6.691   5.780  0.6724 -0.7116 -0.2279
19700SOL    HW159678   9.305   6.736   5.700 -0.5071 -0.9802 -0.8088
19700SOL    HW259679   9.187   6.662   5.761  0.1286 -0.1858  1.4447
19701SOL     OW59680   6.412   6.023   0.832  0.0434 -0.1840  0.0853
19701SOL    HW159681   6.343   6.089   0.838  1.6016  1.5940 -0.5655
19701SOL    HW259682   6.385   5.954   0.892 -0.8873  1.7835  2.0522
19702SOL     OW59683   9.783   2.629   4.799  0.7025  0.0080  0.6191
19702SOL    HW159684   9.856   2.675   4.839  0.0335  0.0721  1.7955
19702SOL    HW259685   9.756   2.565   4.865 -0.6975  0.4072  0.4618
19703SOL     OW59686   3.372   2.051   0.453 -0.0242 -0.1149  0.2184
19703SOL    HW159687   3.460   2.068   0.487 -0.1449  0.2097  0.3804
19703SOL    HW259688   3.318   2.120   0.492 -0.3869 -0.4246  0.2700
19704SOL     OW59689   5.243   9.610   6.161  0.0229  0.4878 -0.0738
19704SOL    HW159690   5.269   9.518   6.159 -0.2929  0.3794  0.6228
19704SOL    HW259691   5.168   9.616   6.103  0.1394  0.3335 -0.2389
19705SOL     OW59692   7.605   6.875   2.308  0.4889 -0.1195  0.9818
19705SOL    HW159693   7.701   6.874   2.310  0.5033 -0.2376  0.5158
19705SOL    HW259694   7.581   6.958   2.349  0.8596  0.7187 -0.4157
19706SOL     OW59695   1.161   9.373   2.920 -0.3569  0.3425  0.0713
19706SOL    HW159696   1.242   9.412   2.889 -0.9731  1.8145  0.1998
19706SOL    HW259697   1.158   9.286   2.881  1.8904 -0.2592  1.0989
19707SOL     OW59698   3.459   1.454   1.832  0.3406 -0.4308  0.0283
19707SOL    HW159699   3.424   1.394   1.766 -0.6349  0.0994  0.0505
19707SOL    HW259700   3.384   1.505   1.861  0.9267 -0.0436  0.9145
19708SOL     OW59701   5.138   4.916   7.792 -0.2715  0.0251  0.0003
19708SOL    HW159702   5.186   4.974   7.851 -1.2666  1.3341 -0.4216
19708SOL    HW259703   5.192   4.912   7.713 -0.4415  0.8575 -0.1740
19709SOL     OW59704   1.578   4.111   0.710 -0.1885 -0.8334 -0.5351
19709SOL    HW159705   1.495   4.116   0.664 -0.0735  1.6236 -0.6149
19709SOL    HW259706   1.644   4.108   0.640 -0.0744  1.4961 -0.5824
19710SOL     OW59707   7.326   8.760   5.962 -0.4336  1.1265 -0.3322
19710SOL    HW159708   7.266   8.805   6.021 -0.8385  2.2643 -1.5582
19710SOL    HW259709   7.318   8.807   5.879  1.1979  0.4944 -0.8917
19711SOL     OW59710   1.293   5.086   2.605 -0.3676  0.1666 -0.2136
19711SOL    HW159711   1.254   5.095   2.692 -1.5753 -1.0136 -0.5955
19711SOL    HW259712   1.306   5.176   2.576 -2.1539  0.6338  0.2557
19712SOL     OW59713   0.052   4.776   6.344  0.1316  0.0963  0.1473
19712SOL    HW159714   0.032   4.869   6.352  0.0754  0.2593 -1.5392
19712SOL    HW259715   0.000   4.734   6.413 -1.9390  1.0602 -0.7235
19713SOL     OW59716   5.978   0.264   9.915 -0.0070  0.1972 -0.6085
19713SOL    HW159717   6.004   0.237   9.827 -0.9096 -2.3874 -0.1736
19713SOL    HW259718   6.002   0.189   9.971 -3.3267 -0.0959  0.6259
19714SOL     OW59719   7.296   8.866   4.515  0.3912 -0.2735 -0.0636
19714SOL    HW159720   7.291   8.830   4.427  1.7684 -0.3401 -0.1312
19714SOL    HW259721   7.267   8.794   4.572 -0.2178 -0.3259 -0.4243
19715SOL     OW59722   0.451   2.095   9.576 -0.4035  0.1470 -0.1880
19715SOL    HW159723   0.377   2.147   9.547 -2.0688 -2.1589 -0.3261
19715SOL    HW259724   0.518   2.110   9.509 -0.6746  2.2708 -0.0566
19716SOL     OW59725   1.887   2.391   1.024 -0.2955 -0.2044  1.0143
19716SOL    HW159726   1.930   2.458   1.077 -1.7539 -0.6499  2.8759
19716SOL    HW259727   1.810   2.434   0.988  1.5609  0.6056 -2.3435
19717SOL     OW59728   8.458   4.806   1.487  0.0913 -0.7061 -0.1904
19717SOL    HW159729   8.485   4.720   1.453  1.8306 -0.1117 -0.4401
19717SOL    HW259730   8.522   4.867   1.450 -1.6831  0.8712 -0.8251
19718SOL     OW59731   6.776   1.599   8.145 -0.2389 -0.2075  0.6938
19718SOL    HW159732   6.736   1.681   8.118  0.3590 -0.1711 -0.1067
19718SOL    HW259733   6.831   1.573   8.071  1.6023 -0.0094  1.9212
19719SOL     OW59734   6.750   1.018   0.412 -0.2580 -0.2459  0.1608
19719SOL    HW159735   6.717   0.948   0.468 -1.7000  0.8074  0.7071
19719SOL    HW259736   6.700   1.010   0.331 -1.1385  0.6954  0.5845
19720SOL     OW59737   4.496   2.876   7.828  0.2587  0.3118  0.1685
19720SOL    HW159738   4.568   2.875   7.891  2.0528  3.1036 -1.6478
19720SOL    HW259739   4.526   2.823   7.755 -0.5111 -0.3311  0.2962
19721SOL     OW59740   7.098   9.019   1.475  0.2848 -0.2658  0.0046
19721SOL    HW159741   7.075   9.108   1.448  0.6684  0.0332  0.6525
19721SOL    HW259742   7.073   9.015   1.568  0.0536 -0.9105 -0.0793
19722SOL     OW59743   0.599   0.059   5.253 -0.0653 -0.1687 -0.2095
19722SOL    HW159744   0.590  -0.027   5.212  0.5355  0.6933 -2.3279
19722SOL    HW259745   0.692   0.069   5.269  0.0966  0.6661 -1.4774
19723SOL     OW59746   9.840   6.834   7.478 -0.0814 -0.1703 -0.0003
19723SOL    HW159747   9.934   6.854   7.481 -0.1021 -0.1741  0.9006
19723SOL    HW259748   9.835   6.739   7.491 -0.2394 -0.0842  0.5821
19724SOL     OW59749   7.238   4.000   8.915  0.2740 -0.2110  0.0594
19724SOL    HW159750   7.326   4.007   8.951  0.3224  0.5058 -0.1852
19724SOL    HW259751   7.221   4.085   8.874 -1.3464  0.4799  1.9687
19725SOL     OW59752   6.309   0.694   1.956  0.0485 -0.6719 -0.4614
19725SOL    HW159753   6.377   0.685   2.023 -0.7276 -1.0996  0.2760
19725SOL    HW259754   6.353   0.743   1.885  1.7663 -2.7188 -0.9218
19726SOL     OW59755   6.833   6.392   1.887  0.0559 -0.3000 -0.3263
19726SOL    HW159756   6.839   6.464   1.950  1.7262 -1.9480  1.5534
19726SOL    HW259757   6.903   6.409   1.825  0.3379 -0.2204  0.0115
19727SOL     OW59758   1.115   6.712   3.648 -0.2920 -0.2470 -0.2590
19727SOL    HW159759   1.070   6.628   3.651 -1.4225  0.3542  1.1971
19727SOL    HW259760   1.208   6.690   3.652 -0.5867 -1.4123  0.7486
19728SOL     OW59761   4.064   4.192   5.579  0.2966 -0.4119 -0.2733
19728SOL    HW159762   4.061   4.097   5.591  1.3890 -0.8850 -3.0727
19728SOL    HW259763   4.155   4.215   5.597 -0.0317  0.2194  0.7112
19729SOL     OW59764   9.023   5.505   5.591 -0.4437 -0.0703  0.0234
19729SOL    HW159765   9.110   5.537   5.565 -1.1490  1.4144 -0.6207
19729SOL    HW259766   8.966   5.526   5.517 -1.3478 -1.1463  0.3819
19730SOL     OW59767   6.577   0.916   6.899 -0.5026 -0.1492  0.0049
19730SOL    HW159768   6.605   0.966   6.822  2.6808 -1.7736 -0.0531
19730SOL    HW259769   6.491   0.881   6.874 -1.9846  3.5181 -0.6760
19731SOL     OW59770   8.549   2.089   9.372 -0.4971 -0.6037  0.0349
19731SOL    HW159771   8.621   2.043   9.415 -0.2365 -0.4157 -0.1988
19731SOL    HW259772   8.473   2.031   9.385  0.1979 -2.0783 -1.8879
19732SOL     OW59773   3.951   3.815   6.728  0.2056  0.1046  0.2431
19732SOL    HW159774   3.872   3.765   6.706  1.4356 -1.4885 -0.7610
19732SOL    HW259775   3.937   3.900   6.686 -0.7775 -0.3189 -0.3324
19733SOL     OW59776   9.350   0.498   8.955  0.4225  0.0824  0.1859
19733SOL    HW159777   9.436   0.464   8.978  0.0013 -1.3929 -0.3351
19733SOL    HW259778   9.302   0.499   9.038  0.2999 -1.0241  0.1328
19734SOL     OW59779   2.636   2.145   5.508 -0.4651 -0.0954  0.3478
19734SOL    HW159780   2.576   2.193   5.451 -1.8092 -1.0382  0.9337
19734SOL    HW259781   2.581   2.109   5.577  0.6164 -1.8295  0.3584
19735SOL     OW59782   2.448   3.770   4.824 -0.0288  0.2294  0.1873
19735SOL    HW159783   2.476   3.730   4.742  1.2108  1.1426  0.1280
19735SOL    HW259784   2.506   3.846   4.834 -0.3886  0.3339  1.7238
19736SOL     OW59785   9.963   8.421   1.462  0.1568  0.0455  0.2960
19736SOL    HW159786   9.948   8.399   1.370  1.2230 -0.6544  0.2784
19736SOL    HW259787   9.881   8.398   1.505 -0.7669  1.4221 -0.6232
19737SOL     OW59788   2.299   9.040   3.142 -0.0427  0.0906 -0.2886
19737SOL    HW159789   2.259   9.125   3.128  0.5621  0.5545  0.7140
19737SOL    HW259790   2.225   8.980   3.155 -0.4493  0.5933 -0.2762
19738SOL     OW59791   5.712   9.532   8.083  0.4462  0.2349  0.2973
19738SOL    HW159792   5.732   9.441   8.104 -0.8652  0.2879  1.9133
19738SOL    HW259793   5.657   9.562   8.155  1.1492  2.4312 -0.0203
19739SOL     OW59794   2.533   3.855   2.166  0.1282 -0.3629  0.1571
19739SOL    HW159795   2.609   3.796   2.165  0.6699  0.3211 -0.9330
19739SOL    HW259796   2.556   3.923   2.228  0.6222  0.0882 -0.5033
19740SOL     OW59797   1.956   7.902   3.461 -0.1612 -0.3894 -0.4797
19740SOL    HW159798   2.041   7.921   3.500  0.8492  0.6685 -2.9494
19740SOL    HW259799   1.941   7.810   3.479  1.6801 -0.6763 -0.2231
19741SOL     OW59800   7.751   9.465   8.910 -0.3349 -0.1349  0.2038
19741SOL    HW159801   7.719   9.446   8.822  0.5094 -0.2792 -0.0822
19741SOL    HW259802   7.762   9.378   8.950 -0.0075 -0.0981  0.1914
19742SOL     OW59803   7.514   6.390   1.380 -0.0671  0.1523 -0.0498
19742SOL    HW159804   7.562   6.361   1.457  2.7209  0.7646 -1.4397
19742SOL    HW259805   7.487   6.479   1.401 -0.9294 -0.2936  0.8490
19743SOL     OW59806   4.112   5.634   7.840  0.0323  0.3765 -0.4345
19743SOL    HW159807   4.167   5.654   7.765 -1.5220 -0.5557 -1.9192
19743SOL    HW259808   4.120   5.539   7.852  0.3913  0.5307  0.7121
19744SOL     OW59809   3.337   9.328   0.110  0.5836  0.2055 -0.8214
19744SOL    HW159810   3.257   9.306   0.159  1.2663  0.7660  0.6210
19744SOL    HW259811   3.380   9.395   0.164  3.3743 -1.9551 -0.1445
19745SOL     OW59812   6.241   8.588   9.156 -0.1864  0.2079  0.2528
19745SOL    HW159813   6.191   8.666   9.180 -3.7178 -1.5600 -0.8128
19745SOL    HW259814   6.237   8.585   9.061  2.7330  0.3368  0.0273
19746SOL     OW59815   9.398   5.385   4.846  0.2561  0.5918 -0.7782
19746SOL    HW159816   9.412   5.290   4.856  0.4724  0.6478 -0.5300
19746SOL    HW259817   9.423   5.403   4.756  0.2201  0.4110 -0.8259
19747SOL     OW59818   9.572   1.349   9.972  0.3191 -0.0190  0.1856
19747SOL    HW159819   9.527   1.285  10.027 -1.5813  1.5098  0.5250
19747SOL    HW259820   9.604   1.299   9.897 -1.2177 -1.3533  0.3629
19748SOL     OW59821   0.608   1.365   8.332  0.4531 -0.1678  0.3205
19748SOL    HW159822   0.644   1.319   8.257  1.8431  0.3461  0.6286
19748SOL    HW259823   0.534   1.416   8.298  0.3374 -0.8508 -0.4482
19749SOL     OW59824   0.626   6.169   7.827 -0.1388  0.1274 -0.4354
19749SOL    HW159825   0.681   6.209   7.760  0.2313 -2.3560 -1.7364
19749SOL    HW259826   0.537   6.175   7.792  0.0747 -1.3290 -1.3009
19750SOL     OW59827   7.074   2.814   0.725  0.3966  0.6643 -0.1754
19750SOL    HW159828   7.026   2.850   0.650 -1.6517 -1.4600 -0.0312
19750SOL    HW259829   7.009   2.811   0.796  1.1786 -0.8365  0.5346
19751SOL     OW59830   2.187   8.293   6.166 -1.1286 -0.4235  0.1501
19751SOL    HW159831   2.120   8.341   6.117 -1.0967 -0.9780 -0.4372
19751SOL    HW259832   2.270   8.328   6.134 -1.1171  0.5990  1.2103
19752SOL     OW59833   4.335   0.687   0.131  0.0440 -0.1147 -0.3161
19752SOL    HW159834   4.313   0.695   0.224  0.6386  1.2046 -0.2553
19752SOL    HW259835   4.414   0.632   0.130  1.2089  1.4504  0.1869
19753SOL     OW59836   7.072   6.068   8.253 -0.0929 -0.4498 -0.5786
19753SOL    HW159837   6.979   6.047   8.258 -0.4483  0.3615 -2.7975
19753SOL    HW259838   7.075   6.164   8.244  1.2108  0.0964  3.4463
19754SOL     OW59839   0.981   2.639   7.051 -0.0279 -0.0193  0.0857
19754SOL    HW159840   0.921   2.659   6.979 -0.1894 -0.0757  0.2050
19754SOL    HW259841   1.017   2.553   7.029 -0.2857 -0.1611  0.2101
19755SOL     OW59842   9.470   6.914   7.949  0.1054 -0.5793 -0.3798
19755SOL    HW159843   9.475   6.902   8.044  1.2389  1.0745 -0.1811
19755SOL    HW259844   9.397   6.975   7.936  1.4799  1.1975 -0.2732
19756SOL     OW59845   1.395   4.104   1.736 -0.0986  0.1812 -0.0379
19756SOL    HW159846   1.413   4.167   1.666 -0.2728  0.4695  0.1735
19756SOL    HW259847   1.467   4.117   1.798 -0.1472  0.1863  0.0172
19757SOL     OW59848   2.792   7.736   4.840  0.3901  0.3298  0.3191
19757SOL    HW159849   2.790   7.795   4.915 -0.2165 -2.0798  2.3712
19757SOL    HW259850   2.752   7.785   4.769 -0.1360  2.3287  1.9002
19758SOL     OW59851   0.921   8.748   0.794  0.0114 -0.0530 -0.6478
19758SOL    HW159852   0.852   8.797   0.749 -2.1645 -2.1399  0.2559
19758SOL    HW259853   0.899   8.756   0.887  3.0126  2.0795  0.0285
19759SOL     OW59854   5.366   6.391   8.201 -0.1042 -0.3909  0.2981
19759SOL    HW159855   5.458   6.394   8.175  0.2822  1.3072  1.6640
19759SOL    HW259856   5.357   6.461   8.266 -2.3169 -0.6623  0.3656
19760SOL     OW59857  -0.012   8.829   0.043  0.2857 -0.6866  0.4270
19760SOL    HW159858   0.065   8.778   0.016  0.2527 -0.4104 -0.1990
19760SOL    HW259859   0.019   8.919   0.042 -0.9741 -0.1400 -3.3953
19761SOL     OW59860   4.677   0.478   3.071 -0.0396 -0.2605  0.5012
19761SOL    HW159861   4.663   0.572   3.058  0.9562  0.1133  1.8850
19761SOL    HW259862   4.611   0.452   3.134 -0.8955 -0.7197 -0.5464
19762SOL     OW59863   3.502   6.725   0.354  0.0101  0.2485 -0.6845
19762SOL    HW159864   3.550   6.756   0.430 -0.1802 -0.6459 -0.1867
19762SOL    HW259865   3.412   6.757   0.367  0.5211  2.3393 -1.8565
19763SOL     OW59866   9.504   5.148   6.043 -0.6797  0.5657  0.1025
19763SOL    HW159867   9.480   5.063   6.006  0.3449  1.0222 -1.7370
19763SOL    HW259868   9.472   5.145   6.133  1.2522 -2.6380  0.8561
19764SOL     OW59869   0.209   3.910   1.978 -0.4581  0.4339 -0.2970
19764SOL    HW159870   0.221   3.819   2.004 -1.5503 -0.2410 -2.0417
19764SOL    HW259871   0.173   3.952   2.056 -0.1567 -0.6582  0.4512
19765SOL     OW59872   8.365   9.492   5.333  0.9780 -0.0684  0.3911
19765SOL    HW159873   8.442   9.436   5.341  1.7247  0.5481 -1.7657
19765SOL    HW259874   8.310   9.448   5.269  0.5731  0.5893  0.2776
19766SOL     OW59875   8.858   8.931   4.026 -0.2136 -0.3154  0.0603
19766SOL    HW159876   8.797   8.894   4.090  0.2339 -0.4160  0.4288
19766SOL    HW259877   8.807   8.934   3.945 -0.3600 -1.4254  0.0944
19767SOL     OW59878   9.682   2.502   5.471 -0.2827 -0.1829  0.4936
19767SOL    HW159879   9.684   2.452   5.390 -0.5006 -1.9607  1.5300
19767SOL    HW259880   9.770   2.538   5.480 -0.0387 -0.6121 -0.1372
19768SOL     OW59881   0.373   7.141   2.593 -0.1867 -0.4380  0.0497
19768SOL    HW159882   0.461   7.142   2.555 -0.9500 -1.6584 -1.8996
19768SOL    HW259883   0.373   7.065   2.651  0.2789  0.0658  0.7264
19769SOL     OW59884   4.077   2.256   9.162  0.4592  0.3668 -0.1453
19769SOL    HW159885   4.002   2.242   9.220 -0.1931  0.8755 -0.8434
19769SOL    HW259886   4.151   2.220   9.210 -0.6980 -3.4445 -0.8969
19770SOL     OW59887   0.813   4.618   9.287 -0.3870 -0.1186  0.0900
19770SOL    HW159888   0.812   4.575   9.201 -1.0590 -0.7247  0.3940
19770SOL    HW259889   0.754   4.693   9.276 -2.6201 -1.6767  0.7373
19771SOL     OW59890   8.353   1.748   6.370 -0.7429  0.3090 -0.0046
19771SOL    HW159891   8.266   1.767   6.406 -0.6179  1.9442 -0.5089
19771SOL    HW259892   8.335   1.704   6.287 -1.0459 -0.7816  0.6090
19772SOL     OW59893   5.483   9.599   8.628 -0.3156 -0.0631 -0.7574
19772SOL    HW159894   5.491   9.505   8.643  0.2794 -0.0671 -1.0756
19772SOL    HW259895   5.545   9.638   8.690  1.1228 -0.0081 -2.1665
19773SOL     OW59896   1.661   2.404   6.265  0.1438  0.1158 -0.1309
19773SOL    HW159897   1.706   2.353   6.197  1.0703  0.4736  0.1905
19773SOL    HW259898   1.571   2.410   6.235  0.0985 -1.3819 -0.3581
19774SOL     OW59899   7.625   5.150   6.215  0.6074  0.1812  0.5703
19774SOL    HW159900   7.594   5.186   6.298 -1.2750  0.3008 -0.1428
19774SOL    HW259901   7.632   5.056   6.231 -0.5259  0.0996  0.6499
19775SOL     OW59902   0.730   3.395   7.357 -0.2001 -0.1942  0.2007
19775SOL    HW159903   0.797   3.334   7.325 -1.4109 -1.8802  0.7610
19775SOL    HW259904   0.647   3.351   7.340 -1.0857  1.0131  1.2384
19776SOL     OW59905   0.988   3.162   2.059  0.5969  0.0254 -0.8279
19776SOL    HW159906   0.968   3.239   2.006 -0.3658 -0.4813 -1.2316
19776SOL    HW259907   0.921   3.098   2.034  1.2095 -0.8436 -0.2971
19777SOL     OW59908   8.555   2.239   9.065  0.5958  0.6525  0.0380
19777SOL    HW159909   8.496   2.167   9.046  1.2536  0.3858 -1.0764
19777SOL    HW259910   8.641   2.208   9.039  0.9835  1.6271  0.0897
19778SOL     OW59911   2.280   8.180   3.605  0.1711  0.2046 -0.0341
19778SOL    HW159912   2.223   8.110   3.572 -0.0470  0.2202  0.3049
19778SOL    HW259913   2.327   8.140   3.678  1.6011 -0.2176 -1.1389
19779SOL     OW59914   4.159   5.468   8.199  0.4092 -0.4576  0.0179
19779SOL    HW159915   4.081   5.524   8.194  0.6740 -0.1351 -0.6148
19779SOL    HW259916   4.136   5.401   8.263 -0.7339 -0.8951 -0.8125
19780SOL     OW59917   0.417   6.432   8.299 -0.1783 -1.0853  0.7391
19780SOL    HW159918   0.431   6.400   8.210  1.4768 -1.2674  1.0220
19780SOL    HW259919   0.465   6.514   8.303 -3.2602  0.8662  0.4336
19781SOL     OW59920   4.599   9.018   3.822  0.7696  0.0471  0.1830
19781SOL    HW159921   4.526   9.076   3.842  1.1732  0.6214  0.0302
19781SOL    HW259922   4.559   8.934   3.801  0.1569  0.3646  0.0688
19782SOL     OW59923   2.299   0.200   7.095  0.1198 -0.0239 -0.2700
19782SOL    HW159924   2.321   0.114   7.130  1.0639 -0.2274 -1.3123
19782SOL    HW259925   2.350   0.207   7.015  2.0103  2.5225  1.0264
19783SOL     OW59926   4.059   1.353   4.401  0.2493 -0.2003 -0.2920
19783SOL    HW159927   4.137   1.299   4.391 -1.5179 -3.2645  1.1379
19783SOL    HW259928   3.986   1.294   4.381 -1.7920  2.0368  0.1184
19784SOL     OW59929   4.851   7.845   9.019  0.0641  0.2588 -0.4233
19784SOL    HW159930   4.792   7.911   8.983  1.2822  0.9675 -1.2426
19784SOL    HW259931   4.877   7.880   9.104 -0.4473  0.0926 -0.1953
19785SOL     OW59932   3.472   8.655   4.152 -0.0193  0.0213 -0.1591
19785SOL    HW159933   3.513   8.710   4.086  1.6609 -1.9870 -0.8936
19785SOL    HW259934   3.461   8.712   4.228  0.9293  1.5405 -1.1246
19786SOL     OW59935   8.866   5.482   9.283 -0.1204 -0.3076  0.2371
19786SOL    HW159936   8.931   5.502   9.351 -0.1203  1.2215 -0.1649
19786SOL    HW259937   8.849   5.566   9.242 -2.4015 -0.6497  0.3470
19787SOL     OW59938   8.783   3.778   8.297  0.4176  0.3467 -0.0584
19787SOL    HW159939   8.816   3.688   8.291  1.3712  0.6818 -0.0149
19787SOL    HW259940   8.778   3.795   8.391 -1.4273 -0.2311 -0.0100
19788SOL     OW59941   3.616   5.745   3.627  0.0958 -0.0609  0.5408
19788SOL    HW159942   3.710   5.738   3.610 -0.2815 -0.7389 -1.4956
19788SOL    HW259943   3.574   5.721   3.544 -1.8736  1.0156  1.1571
19789SOL     OW59944   0.261   7.514   1.971 -0.8999 -0.2917 -0.0657
19789SOL    HW159945   0.216   7.599   1.977 -4.3526 -1.8679 -1.1887
19789SOL    HW259946   0.258   7.479   2.060  1.6356  1.1274  0.6841
19790SOL     OW59947   7.136   8.049   0.416  0.0296 -0.2041  0.2249
19790SOL    HW159948   7.118   8.133   0.375 -2.5697 -0.9273 -0.2994
19790SOL    HW259949   7.205   8.068   0.480  1.0595  1.8382 -1.3563
19791SOL     OW59950   9.216   6.894   6.488 -0.2518  0.4713 -0.0027
19791SOL    HW159951   9.193   6.843   6.566  0.2219  1.5891  0.8868
19791SOL    HW259952   9.299   6.936   6.510 -0.6737  1.6981 -0.6918
19792SOL     OW59953   2.135   6.179   7.351  0.4531  0.3571  0.1835
19792SOL    HW159954   2.127   6.102   7.295  1.4269 -0.4558  1.1121
19792SOL    HW259955   2.062   6.172   7.412 -0.2542  0.9183 -0.5812
19793SOL     OW59956   1.392   5.562   5.003  0.3609 -0.1678 -0.2120
19793SOL    HW159957   1.309   5.601   4.976  0.8315  1.0901  0.1299
19793SOL    HW259958   1.367   5.490   5.061 -0.5022 -0.0416 -0.4190
19794SOL     OW59959   5.764   6.547   7.607 -0.1834 -0.0974 -0.3344
19794SOL    HW159960   5.814   6.606   7.550 -1.9550  1.7000 -0.1495
19794SOL    HW259961   5.812   6.548   7.690  0.4642  0.1620 -0.7058
19795SOL     OW59962   2.570   9.066   8.644  0.0320 -0.2858  0.3999
19795SOL    HW159963   2.519   9.094   8.568 -0.1062 -2.4996 -0.4031
19795SOL    HW259964   2.581   8.972   8.633  2.0736 -0.3202  1.9086
19796SOL     OW59965   6.447   0.066   1.568 -0.2474 -0.0654  0.0630
19796SOL    HW159966   6.455   0.103   1.656  1.7162  0.1317 -0.1539
19796SOL    HW259967   6.513  -0.004   1.565 -1.0463 -0.8039 -0.8985
19797SOL     OW59968   1.972   8.091   3.798  0.1592  0.2788  0.5106
19797SOL    HW159969   2.032   8.149   3.845 -1.1115  2.6517 -0.6641
19797SOL    HW259970   1.998   8.098   3.706 -1.1128  0.3381  0.1423
19798SOL     OW59971   0.433   3.638   4.507  0.0747 -0.4773  0.1086
19798SOL    HW159972   0.420   3.728   4.537  0.9116 -0.2658 -0.1513
19798SOL    HW259973   0.493   3.645   4.433 -1.0142 -1.1148 -0.8560
19799SOL     OW59974   5.782   8.546   8.301  0.2826 -0.0327  0.0461
19799SOL    HW159975   5.850   8.533   8.235 -1.0001 -0.8417 -1.1505
19799SOL    HW259976   5.831   8.563   8.382  1.9938 -2.5503 -0.3470
19800SOL     OW59977   7.726   8.109   4.564  0.1453 -0.1910 -0.7098
19800SOL    HW159978   7.759   8.057   4.636  0.3777  0.7465 -0.1180
19800SOL    HW259979   7.791   8.099   4.495  0.5163 -0.1650 -0.3654
19801SOL     OW59980   0.582   7.050   2.397  0.2289 -0.5281  0.3391
19801SOL    HW159981   0.600   6.987   2.467  0.9187 -0.8164 -0.0889
19801SOL    HW259982   0.618   7.132   2.429  0.1431 -0.5554  0.5094
19802SOL     OW59983   6.788   3.477   3.432  0.2918  0.1368  0.3015
19802SOL    HW159984   6.715   3.523   3.391  0.5314  0.8131  0.6073
19802SOL    HW259985   6.748   3.424   3.501  0.0724  0.3656  0.3500
19803SOL     OW59986   4.086   8.043   3.577 -0.1443  0.5788  0.1877
19803SOL    HW159987   4.119   8.016   3.662 -2.0495 -0.2299  0.7189
19803SOL    HW259988   4.145   8.114   3.550  0.8110  0.4994  1.9172
19804SOL     OW59989   4.900   1.331   3.370  0.2725 -0.1511 -0.1023
19804SOL    HW159990   4.887   1.425   3.386  0.2299 -0.3655  1.3154
19804SOL    HW259991   4.812   1.295   3.366  0.2508  0.0386 -1.9773
19805SOL     OW59992   3.704   7.852   5.816  0.2725  0.3438 -0.2129
19805SOL    HW159993   3.685   7.854   5.910  0.1615 -0.6635 -0.2020
19805SOL    HW259994   3.796   7.827   5.811  0.3947  0.8152 -0.3688
19806SOL     OW59995   0.827   1.222   9.929 -0.0369  0.2560 -0.1980
19806SOL    HW159996   0.731   1.224   9.926 -0.0383 -0.5901 -1.0108
19806SOL    HW259997   0.850   1.138   9.891  1.0575  0.6805 -0.4904
19807SOL     OW59998   9.241   3.765   7.142 -0.0122 -0.5353 -0.4497
19807SOL    HW159999   9.289   3.706   7.200  0.9864  0.4001 -0.2985
19807SOL    HW260000   9.204   3.708   7.074 -0.2092 -1.4899  0.4434
19808SOL     OW60001   1.753   8.545   5.515 -0.7569  0.2658 -0.0387
19808SOL    HW160002   1.788   8.470   5.562 -0.4090  1.1927  1.2585
19808SOL    HW260003   1.724   8.605   5.584 -1.2652  1.2114 -1.0384
19809SOL     OW60004   3.945   0.804   5.944  0.0861  0.7992 -0.3761
19809SOL    HW160005   3.877   0.748   5.981 -0.0735  2.1801  1.6089
19809SOL    HW260006   3.897   0.880   5.909  0.5214  1.3645  0.2255
19810SOL     OW60007   4.346   0.248   5.387 -0.4002  0.7125 -0.0160
19810SOL    HW160008   4.409   0.181   5.358 -0.4562  0.3331  0.7163
19810SOL    HW260009   4.276   0.198   5.429 -0.8019  1.1894 -0.1101
19811SOL     OW60010   2.408   9.063   4.367  0.1207  0.1502  0.0401
19811SOL    HW160011   2.329   9.073   4.420 -0.9125 -2.5446 -0.8085
19811SOL    HW260012   2.388   9.108   4.285  0.1103  0.8260  0.4083
19812SOL     OW60013   7.839   8.532   1.043  0.5456  0.4968 -0.4131
19812SOL    HW160014   7.856   8.566   0.955 -2.0459 -1.4788 -1.8022
19812SOL    HW260015   7.857   8.607   1.101 -1.0203  3.0323 -2.9201
19813SOL     OW60016   9.647   1.665   0.593  0.6912 -0.3775  0.1633
19813SOL    HW160017   9.645   1.742   0.651  3.4344  0.3730 -0.5953
19813SOL    HW260018   9.737   1.633   0.600  0.3644 -1.8301 -1.7160
19814SOL     OW60019   2.122   0.590   4.026 -0.4147 -0.0813  0.0276
19814SOL    HW160020   2.120   0.683   4.049 -0.3781 -0.4001  1.3625
19814SOL    HW260021   2.043   0.577   3.973 -0.8806  0.5345  0.5514
19815SOL     OW60022   4.926   4.401   7.716 -0.8594 -0.5443  0.6504
19815SOL    HW160023   4.889   4.463   7.779  2.4825  3.1569 -0.6571
19815SOL    HW260024   4.902   4.436   7.630  1.2272 -0.9368 -0.1414
19816SOL     OW60025   6.330   5.786   8.804  0.1221  0.1910 -0.3588
19816SOL    HW160026   6.322   5.779   8.708  0.7890  0.1921 -0.4176
19816SOL    HW260027   6.255   5.737   8.837 -0.4864  0.7445 -0.8848
19817SOL     OW60028   3.767   2.153   0.223 -0.0972  0.2952 -0.3022
19817SOL    HW160029   3.794   2.086   0.286 -1.0142 -0.4284 -0.6485
19817SOL    HW260030   3.777   2.236   0.270 -2.0132 -0.3009  1.3043
19818SOL     OW60031   9.968   3.385   1.573 -0.4426 -0.3984  0.1910
19818SOL    HW160032   9.931   3.473   1.572 -1.0491 -0.6384 -1.5554
19818SOL    HW260033   9.945   3.350   1.660  0.5329  1.4127  1.2473
19819SOL     OW60034   2.172   8.510   9.129  0.4361 -0.1842  0.5455
19819SOL    HW160035   2.139   8.435   9.079 -0.3840  0.9739 -0.7123
19819SOL    HW260036   2.254   8.533   9.086  0.7717 -0.4494  1.0350
19820SOL     OW60037   9.853   9.045   5.147  0.1317  0.1805  0.4686
19820SOL    HW160038   9.836   9.139   5.144 -1.3728 -0.0905 -0.2939
19820SOL    HW260039   9.900   9.026   5.065 -2.1731 -0.1555 -0.8654
19821SOL     OW60040   2.398   2.539   4.188 -0.7619  0.7849  0.1463
19821SOL    HW160041   2.364   2.499   4.108 -0.4660 -0.6479  0.7121
19821SOL    HW260042   2.367   2.483   4.258  3.7655 -1.5504  0.6597
19822SOL     OW60043   4.176   2.333   8.547 -0.0104  0.2786 -0.9588
19822SOL    HW160044   4.231   2.323   8.625  3.0145 -1.2695 -3.0679
19822SOL    HW260045   4.179   2.426   8.527  2.1927  0.2202 -1.1260
19823SOL     OW60046   0.405   0.608   7.486  0.2086 -0.4432  0.0392
19823SOL    HW160047   0.465   0.540   7.453  1.2604  1.5274 -2.4216
19823SOL    HW260048   0.454   0.651   7.556  0.6437 -0.5137 -0.2141
19824SOL     OW60049   1.934   1.865   5.858  0.3193  0.0235  0.0961
19824SOL    HW160050   1.866   1.799   5.865  0.7210 -0.2453  1.8632
19824SOL    HW260051   1.951   1.871   5.764  0.4062 -2.5419 -0.1338
19825SOL     OW60052   6.419   4.949   0.847  0.5475 -0.1004 -0.4535
19825SOL    HW160053   6.433   5.014   0.915 -0.0756 -0.1516 -0.2750
19825SOL    HW260054   6.446   4.866   0.886  0.3998 -0.0968 -0.3438
19826SOL     OW60055   5.034   9.678   5.974  0.1656 -0.2112 -0.0461
19826SOL    HW160056   5.011   9.719   6.057  0.1560 -1.6233  0.6765
19826SOL    HW260057   5.082   9.745   5.926  1.7171  0.0937  1.8160
19827SOL     OW60058   2.288   1.394   9.784  0.3365 -0.1002 -0.0892
19827SOL    HW160059   2.356   1.412   9.849  1.3104 -1.3661 -0.6965
19827SOL    HW260060   2.264   1.302   9.799  0.5801 -0.4254 -1.4718
19828SOL     OW60061   1.426   7.767   5.215 -0.7229 -0.2862 -0.3783
19828SOL    HW160062   1.432   7.742   5.307  1.9034 -1.2739 -0.7454
19828SOL    HW260063   1.461   7.856   5.212 -1.6948  0.1137 -0.3311
19829SOL     OW60064   1.567   3.479   4.683  0.3314 -0.1283 -0.1172
19829SOL    HW160065   1.474   3.497   4.671  0.6464  1.4248 -0.6264
19829SOL    HW260066   1.607   3.509   4.601  1.5173  1.4977  0.9838
19830SOL     OW60067   2.079   5.094   5.163  0.0346 -0.2740  0.7669
19830SOL    HW160068   2.107   5.182   5.138 -1.8944  0.1605 -0.0532
19830SOL    HW260069   1.995   5.107   5.207 -0.2184 -1.7018  0.7469
19831SOL     OW60070   5.033   3.825   3.360  0.6753 -0.3487  0.4118
19831SOL    HW160071   5.000   3.914   3.347  2.8169  0.5714  0.9155
19831SOL    HW260072   4.962   3.768   3.329 -0.5463  1.5243 -0.3663
19832SOL     OW60073   8.079   3.847   6.349 -0.4852 -0.0514 -0.5483
19832SOL    HW160074   8.010   3.901   6.310 -0.5016  0.1313 -0.2735
19832SOL    HW260075   8.087   3.772   6.290 -0.0347  0.5552 -1.2761
19833SOL     OW60076   6.929   7.875   8.181  0.3435  0.4537 -0.6074
19833SOL    HW160077   6.945   7.934   8.107  0.8038 -0.9398 -1.6630
19833SOL    HW260078   6.837   7.889   8.203  0.5116  1.7409 -0.6599
19834SOL     OW60079   5.115   6.296   5.939  0.2436 -0.5026 -0.2565
19834SOL    HW160080   5.127   6.332   6.027  1.2878  0.8867 -0.9236
19834SOL    HW260081   5.040   6.345   5.903 -0.1221 -1.0004 -0.1750
19835SOL     OW60082   8.205   8.224   1.864  0.0403  0.5243  0.2748
19835SOL    HW160083   8.250   8.215   1.779 -1.2405 -0.3962 -0.3386
19835SOL    HW260084   8.112   8.229   1.842 -0.3648 -0.3216  1.6469
19836SOL     OW60085   9.008   3.901   3.293 -0.1122  0.0740 -0.0545
19836SOL    HW160086   9.009   3.852   3.375  1.4767 -1.9980 -1.1969
19836SOL    HW260087   9.100   3.903   3.265  0.0435  4.3149  0.1593
19837SOL     OW60088   1.572   7.385   0.238  0.2301 -0.2562  0.1464
19837SOL    HW160089   1.550   7.478   0.226  0.5924 -0.2401 -0.3885
19837SOL    HW260090   1.626   7.363   0.163  0.9129 -0.6628  0.7407
19838SOL     OW60091   1.537   2.452   7.646 -0.3571 -0.1656 -0.0766
19838SOL    HW160092   1.444   2.432   7.642 -0.5779  0.9901 -1.3914
19838SOL    HW260093   1.575   2.410   7.569  0.2650 -0.8246  0.5732
19839SOL     OW60094   6.695   6.543   3.327 -0.3786  0.1219  0.2139
19839SOL    HW160095   6.776   6.528   3.376  0.3656  1.1099 -0.6720
19839SOL    HW260096   6.650   6.459   3.330  1.1177 -0.7268 -0.0485
19840SOL     OW60097   4.077   3.461   6.153 -0.3318  0.1577 -0.2183
19840SOL    HW160098   4.071   3.551   6.184  3.0031 -0.0427  1.4922
19840SOL    HW260099   4.037   3.409   6.222  1.9501  0.1107  1.1655
19841SOL     OW60100   4.821   9.808   0.428 -0.1548 -0.1046 -0.6540
19841SOL    HW160101   4.859   9.733   0.474  1.6298  0.4795 -1.1191
19841SOL    HW260102   4.792   9.773   0.344 -1.1060 -0.6373 -0.1309
19842SOL     OW60103   1.416   9.755   7.217  0.2789  0.2950 -0.1240
19842SOL    HW160104   1.337   9.718   7.180 -0.2935  0.5350  0.8187
19842SOL    HW260105   1.419   9.844   7.183 -0.1663  0.4688  0.2806
19843SOL     OW60106   9.015   8.899   7.716  0.2268 -0.7159  0.2292
19843SOL    HW160107   9.029   8.846   7.795 -0.9805  0.8684  1.5667
19843SOL    HW260108   8.925   8.928   7.722 -0.5756 -2.1524 -2.8291
19844SOL     OW60109   5.808   9.939   5.859 -0.5887  0.3885  0.6229
19844SOL    HW160110   5.756  10.008   5.817 -2.0379 -0.3837  1.0761
19844SOL    HW260111   5.891   9.938   5.811 -0.7916  1.9935  0.1884
19845SOL     OW60112   5.710   1.942   8.451 -0.3067  0.1644  0.0333
19845SOL    HW160113   5.724   1.954   8.357 -0.9787 -1.1627 -0.2528
19845SOL    HW260114   5.795   1.962   8.490  0.4251 -0.8002 -0.9927
19846SOL     OW60115   1.661   6.919   5.811 -0.0511  0.3979 -0.4213
19846SOL    HW160116   1.685   6.999   5.857 -0.0406  0.0901  0.1113
19846SOL    HW260117   1.650   6.853   5.880 -2.7979  0.5965 -0.5830
19847SOL     OW60118   5.090   2.432   7.922  0.1968 -0.0940  0.1968
19847SOL    HW160119   5.028   2.360   7.934  1.8993 -1.5067  0.8832
19847SOL    HW260120   5.144   2.430   8.001  3.9812 -1.8302 -2.1711
19848SOL     OW60121   2.775   5.154   0.288  0.6627  0.1726  0.7348
19848SOL    HW160122   2.736   5.070   0.310  2.2920 -1.3915 -1.7925
19848SOL    HW260123   2.843   5.168   0.354  0.3383 -0.4637  1.2081
19849SOL     OW60124   0.164   3.222   4.689 -0.0785 -0.1632  0.2519
19849SOL    HW160125   0.078   3.254   4.662 -0.3466 -1.8459 -1.0781
19849SOL    HW260126   0.224   3.254   4.622 -0.3981 -2.5217 -1.2733
19850SOL     OW60127   4.389   6.890   7.096  0.0301  0.1624  0.0367
19850SOL    HW160128   4.307   6.938   7.109  0.8547  1.5132  0.4573
19850SOL    HW260129   4.410   6.904   7.003 -0.9213 -1.3815 -0.4358
19851SOL     OW60130   3.180   3.803   9.735  0.1488 -0.4814  0.0694
19851SOL    HW160131   3.215   3.718   9.760 -2.9266 -1.7902  0.2609
19851SOL    HW260132   3.162   3.847   9.818 -0.1086 -0.4425 -0.0084
19852SOL     OW60133   1.359   4.487   1.767 -0.2381  0.3302 -0.6271
19852SOL    HW160134   1.400   4.432   1.834 -0.6960 -0.6588 -1.1404
19852SOL    HW260135   1.393   4.575   1.784  0.3796 -0.0763  0.3135
19853SOL     OW60136   2.685   8.488   2.503  0.3117 -0.1837 -0.1543
19853SOL    HW160137   2.677   8.571   2.551  0.5820  0.2666 -0.8626
19853SOL    HW260138   2.633   8.502   2.423  2.3020  0.2179 -1.4503
19854SOL     OW60139   6.182   5.895   0.336 -0.0882  0.4731 -0.1850
19854SOL    HW160140   6.097   5.873   0.299 -0.3037 -0.0537  0.6048
19854SOL    HW260141   6.173   5.984   0.367 -0.1205  0.6739 -0.7497
19855SOL     OW60142   9.789   9.017   8.446  0.1620 -0.3288 -0.5500
19855SOL    HW160143   9.731   9.089   8.469 -0.7541 -1.3985  0.6644
19855SOL    HW260144   9.736   8.959   8.391  0.2180 -1.0632  0.1494
19856SOL     OW60145   9.435   5.848   0.987  0.0803 -0.6592 -0.0554
19856SOL    HW160146   9.476   5.808   0.910  0.3241 -0.9437  0.2211
19856SOL    HW260147   9.367   5.787   1.012 -0.5614 -0.1601 -0.5467
19857SOL     OW60148   6.882   1.376   9.297 -0.7813 -0.0042  0.8808
19857SOL    HW160149   6.914   1.428   9.370 -0.8704  0.8567  0.3192
19857SOL    HW260150   6.897   1.431   9.220  2.9922 -2.3482 -0.3451
19858SOL     OW60151   8.645   8.205   1.970  0.1730  0.4419  0.2417
19858SOL    HW160152   8.695   8.147   2.027 -0.6097 -1.0492 -0.5484
19858SOL    HW260153   8.580   8.245   2.028  1.0045  0.8879  0.8789
19859SOL     OW60154   6.409   1.847   5.032 -0.1798  0.0822  0.3466
19859SOL    HW160155   6.320   1.842   5.067 -0.8660  1.4781 -1.0682
19859SOL    HW260156   6.398   1.850   4.937  1.4330 -0.3647  0.1018
19860SOL     OW60157   6.780   3.333   4.220 -0.4559  0.0439 -0.2749
19860SOL    HW160158   6.733   3.258   4.256  2.2170 -0.6698  2.0429
19860SOL    HW260159   6.813   3.302   4.136  0.5795 -1.4263  0.6334
19861SOL     OW60160   9.928   4.419   9.936  0.9316  0.1920  0.2663
19861SOL    HW160161   9.951   4.499   9.984 -2.0375  1.4627 -0.2295
19861SOL    HW260162   9.862   4.377   9.991 -1.3065  0.8067 -1.8244
19862SOL     OW60163   7.166   5.899   9.157  0.3642  0.3259 -0.1794
19862SOL    HW160164   7.223   5.847   9.213  1.1102  1.0688 -0.2268
19862SOL    HW260165   7.158   5.847   9.076 -0.4745 -0.6051  0.4746
19863SOL     OW60166   2.311   3.223   7.796  0.2955 -0.4067 -0.1564
19863SOL    HW160167   2.261   3.298   7.826 -0.1611 -0.7517 -0.0366
19863SOL    HW260168   2.248   3.172   7.743  1.2827  0.6205 -2.4793
19864SOL     OW60169   8.545   1.686   4.438  0.3059  0.2023  0.3227
19864SOL    HW160170   8.561   1.734   4.357  0.7759 -0.8343 -0.2217
19864SOL    HW260171   8.451   1.668   4.438  0.2493  0.4959  0.1788
19865SOL     OW60172   2.638   7.373   8.671 -0.1810  0.1289  0.5120
19865SOL    HW160173   2.678   7.421   8.743  0.6876  0.7520 -0.3565
19865SOL    HW260174   2.644   7.281   8.697  1.8930  0.1913  0.4215
19866SOL     OW60175   3.558   8.548   0.173 -0.2984 -0.3066  0.1953
19866SOL    HW160176   3.580   8.579   0.261  0.8804  0.5155 -0.3530
19866SOL    HW260177   3.638   8.563   0.122 -1.0196 -0.5932 -1.0634
19867SOL     OW60178   2.419   6.080   9.764 -0.2763  0.0860  0.2855
19867SOL    HW160179   2.329   6.103   9.784 -0.6968 -0.6874 -0.6568
19867SOL    HW260180   2.467   6.163   9.773 -0.8302  0.2580  2.0027
19868SOL     OW60181   1.639   3.056   0.379 -0.1716  0.0913  0.2192
19868SOL    HW160182   1.664   2.977   0.427 -0.7187  0.1220  0.5642
19868SOL    HW260183   1.553   3.036   0.342  1.0390 -0.6423 -2.3959
19869SOL     OW60184   2.583   8.523   5.184 -0.2477 -0.0731 -0.1486
19869SOL    HW160185   2.599   8.484   5.098  0.1007  0.6421 -0.4218
19869SOL    HW260186   2.615   8.613   5.175  0.1099 -0.0927  0.8402
19870SOL     OW60187   9.360   5.147   7.016  0.5796 -0.4023 -0.2685
19870SOL    HW160188   9.322   5.195   6.942 -0.4786  0.0759  0.5619
19870SOL    HW260189   9.408   5.075   6.975 -1.8837 -1.5323 -1.3867
19871SOL     OW60190   6.230   5.349   9.723 -0.8433 -0.1417  0.3973
19871SOL    HW160191   6.236   5.442   9.700  0.0994  0.2033  1.9108
19871SOL    HW260192   6.236   5.347   9.818  0.5825 -1.8494  0.3156
19872SOL     OW60193   0.637   3.167   6.187  0.2847  0.3955 -0.1218
19872SOL    HW160194   0.653   3.198   6.276 -0.8597  1.2390 -0.1849
19872SOL    HW260195   0.610   3.076   6.198 -1.4334  0.9545  0.5664
19873SOL     OW60196   0.527   1.099   9.307 -0.4742  1.1189  0.2431
19873SOL    HW160197   0.577   1.017   9.311 -0.9073  0.8748  1.0370
19873SOL    HW260198   0.586   1.162   9.266  0.1887  0.6276  0.4253
19874SOL     OW60199   3.595   0.011   2.821  0.3606  0.0417  0.7130
19874SOL    HW160200   3.601   0.103   2.793  1.7509 -0.3746 -0.4415
19874SOL    HW260201   3.529  -0.027   2.764  0.0141  0.2250  0.9811
19875SOL     OW60202   4.213   4.010   8.709  0.2350 -0.1386  0.0821
19875SOL    HW160203   4.146   4.075   8.689 -0.6139 -1.1193 -0.2999
19875SOL    HW260204   4.287   4.034   8.652  0.7427  1.7092  1.4114
19876SOL     OW60205   7.024   3.394   5.189 -0.0109  0.3735 -0.0516
19876SOL    HW160206   7.120   3.393   5.189 -0.0136 -0.6644 -0.6399
19876SOL    HW260207   6.999   3.302   5.184 -1.0492  0.5960  0.6674
19877SOL     OW60208   8.717   6.408   7.407  0.1609  0.3005 -0.1279
19877SOL    HW160209   8.748   6.428   7.319  2.1029  1.1889  0.7078
19877SOL    HW260210   8.754   6.477   7.462 -0.9864 -0.2516  1.3946
19878SOL     OW60211   2.559   7.067   3.717  0.1361 -0.1238 -0.2540
19878SOL    HW160212   2.599   7.059   3.803  1.0606  0.7991 -0.5898
19878SOL    HW260213   2.473   7.107   3.733 -0.1803 -1.0140  0.3379
19879SOL     OW60214   2.511   9.482   4.085 -0.4002  0.5119 -0.2464
19879SOL    HW160215   2.526   9.467   4.178  0.1371 -0.1311 -0.4283
19879SOL    HW260216   2.586   9.534   4.056 -0.2013  0.1179 -0.4580
19880SOL     OW60217   4.385   2.295   1.605 -0.6827 -0.1627  0.0553
19880SOL    HW160218   4.345   2.211   1.583 -0.3418 -0.1927 -0.4676
19880SOL    HW260219   4.410   2.333   1.521 -0.5443  0.3188  0.3095
19881SOL     OW60220   3.093   3.772   8.017  0.4790  0.0937 -0.0270
19881SOL    HW160221   3.038   3.696   8.036  1.9803 -0.6880  1.3995
19881SOL    HW260222   3.033   3.847   8.020 -0.5813 -0.7676  0.9871
19882SOL     OW60223   8.820   3.691   9.069 -0.5519 -0.0947  0.4503
19882SOL    HW160224   8.839   3.775   9.026 -1.1542  0.5386  1.3773
19882SOL    HW260225   8.725   3.690   9.079 -0.7411 -1.6625 -1.0357
19883SOL     OW60226   1.374   2.709   7.944 -0.0872 -0.4430  0.6899
19883SOL    HW160227   1.319   2.666   7.879 -0.4141  2.1270 -0.8823
19883SOL    HW260228   1.428   2.770   7.893 -0.8595  2.2034  2.7919
19884SOL     OW60229   2.979   5.501   8.032  1.0705 -0.3197  0.0722
19884SOL    HW160230   3.011   5.518   7.944  0.1226  0.3202 -0.1692
19884SOL    HW260231   3.037   5.433   8.067  2.4467  0.5689 -0.4426
19885SOL     OW60232   3.885   0.312   1.206  0.3981 -0.5573 -0.1489
19885SOL    HW160233   3.823   0.359   1.151  0.3844 -1.0240 -0.5430
19885SOL    HW260234   3.833   0.243   1.247  0.6331 -0.8989 -0.4177
19886SOL     OW60235   4.863   5.983   4.081 -0.0244 -0.4778 -0.1864
19886SOL    HW160236   4.939   5.967   4.137  1.2744  0.0183 -1.7248
19886SOL    HW260237   4.807   6.042   4.132  0.8188 -0.5241  0.8205
19887SOL     OW60238   0.824   9.310   9.161 -0.2939 -0.2694 -0.1881
19887SOL    HW160239   0.855   9.226   9.128 -0.8124 -0.1639 -0.9587
19887SOL    HW260240   0.897   9.344   9.213 -0.1723 -1.3043  0.3345
19888SOL     OW60241   1.272   4.960   0.334  0.3361  0.3042 -0.4214
19888SOL    HW160242   1.322   4.953   0.415 -2.6166 -0.9386  1.4694
19888SOL    HW260243   1.237   5.049   0.334 -0.9075 -0.1507  0.5622
19889SOL     OW60244   1.905   3.562   3.098  0.6449 -0.2657 -0.6174
19889SOL    HW160245   1.944   3.550   3.012  0.2359  1.3498 -1.0707
19889SOL    HW260246   1.972   3.608   3.149  0.6162 -0.5771 -0.2910
19890SOL     OW60247   4.523   6.677   1.980  0.1591 -0.1857  0.2130
19890SOL    HW160248   4.449   6.719   1.937 -0.4440  0.3080  1.6487
19890SOL    HW260249   4.502   6.584   1.980  0.3883 -0.2491 -0.9224
19891SOL     OW60250   2.922   2.897   1.667  0.0858  0.1861 -0.4750
19891SOL    HW160251   2.877   2.867   1.587 -0.2393  0.1643 -0.2861
19891SOL    HW260252   3.015   2.883   1.649  0.0360  0.4639 -0.9692
19892SOL     OW60253   4.029   5.708   7.326  0.5660  0.3875 -0.1417
19892SOL    HW160254   4.086   5.750   7.261  0.6238 -1.6038 -1.4518
19892SOL    HW260255   3.975   5.647   7.276 -2.5328  1.8808  1.0985
19893SOL     OW60256   4.931   8.798   7.602 -0.1776 -1.1652  0.4661
19893SOL    HW160257   4.912   8.861   7.671  0.0372 -1.5928  0.9253
19893SOL    HW260258   4.875   8.824   7.528  1.6493  1.0212 -0.2359
19894SOL     OW60259   3.180   3.538   0.837  0.5750 -0.2553 -0.1405
19894SOL    HW160260   3.115   3.469   0.825  0.0674  0.0213  0.8372
19894SOL    HW260261   3.212   3.557   0.749  0.2235 -1.2516 -0.4973
19895SOL     OW60262   2.025   8.601   9.879 -0.5569 -0.8113 -0.3375
19895SOL    HW160263   2.014   8.518   9.832 -1.8309 -0.7632 -0.1655
19895SOL    HW260264   1.965   8.662   9.834  0.4723  0.0707 -0.5572
19896SOL     OW60265   4.070   2.574   7.601 -0.3543  0.4520  0.1320
19896SOL    HW160266   4.127   2.515   7.650 -0.8570 -2.1166 -2.1522
19896SOL    HW260267   4.117   2.657   7.599  1.8945 -0.7391  0.8429
19897SOL     OW60268   7.468   0.106   3.480  0.3460 -0.1093 -0.3653
19897SOL    HW160269   7.516   0.087   3.560 -0.5513  0.4815  0.3331
19897SOL    HW260270   7.496   0.038   3.418  2.6170  0.6542 -0.2445
19898SOL     OW60271   9.825   2.924   8.965 -0.5949 -0.1350 -0.1012
19898SOL    HW160272   9.800   2.944   8.875  1.2929 -0.7449 -0.8132
19898SOL    HW260273   9.828   3.010   9.009  2.9502  0.8506 -1.8977
19899SOL     OW60274   2.104   7.236   3.075 -0.1973  0.5335 -0.5804
19899SOL    HW160275   2.191   7.249   3.112 -0.0785 -0.5425 -0.4533
19899SOL    HW260276   2.115   7.162   3.015 -0.6396  1.4929 -1.9067
19900SOL     OW60277   4.720   7.510   0.298 -0.1450 -0.5977  0.4577
19900SOL    HW160278   4.765   7.595   0.301  0.7273 -1.0872  2.5541
19900SOL    HW260279   4.786   7.449   0.266  0.0405 -0.9427  1.4850
19901SOL     OW60280   9.684   3.275   8.015  0.3429 -0.0422 -0.4015
19901SOL    HW160281   9.648   3.323   7.941 -1.0923 -0.7094 -0.1740
19901SOL    HW260282   9.645   3.317   8.092  0.1789 -0.6613 -0.1369
19902SOL     OW60283   5.081   3.068   5.279 -0.0600  0.5296  0.2914
19902SOL    HW160284   5.160   3.030   5.241 -0.6968 -0.5797  0.0085
19902SOL    HW260285   5.097   3.162   5.279  1.1769  0.3411  0.0716
19903SOL     OW60286   2.818   8.930   7.931  0.3901 -0.7626  0.2514
19903SOL    HW160287   2.804   8.844   7.970 -0.6920 -0.9158 -0.4247
19903SOL    HW260288   2.838   8.911   7.839  1.3934 -0.3433  0.3759
19904SOL     OW60289   8.284   3.527   8.703 -0.2860  0.4386 -0.0644
19904SOL    HW160290   8.226   3.515   8.779  0.2763 -1.1592  0.1528
19904SOL    HW260291   8.227   3.511   8.627 -0.6861  1.3359  0.0384
19905SOL     OW60292   0.466   0.121   5.909  0.1217  0.0724 -0.2170
19905SOL    HW160293   0.438   0.147   5.821 -0.2531 -0.1112 -0.1514
19905SOL    HW260294   0.562   0.123   5.905  0.2305  3.8164  0.4642
19906SOL     OW60295   7.491   8.119   0.321  0.6819  0.1098 -0.1716
19906SOL    HW160296   7.506   8.213   0.336  0.1209  0.2029 -0.1740
19906SOL    HW260297   7.488   8.081   0.409  0.8121  0.1053 -0.1680
19907SOL     OW60298   5.862   6.431   6.511  0.2301 -0.1761 -0.2820
19907SOL    HW160299   5.837   6.485   6.437 -3.5010 -2.3257 -0.8353
19907SOL    HW260300   5.878   6.344   6.474  2.2781 -0.4176  1.0088
19908SOL     OW60301   8.156   6.240   7.670  0.1845  0.1356  0.8528
19908SOL    HW160302   8.100   6.291   7.611 -0.3225 -0.0867  1.1341
19908SOL    HW260303   8.128   6.149   7.656 -0.2755  0.1263  1.7755
19909SOL     OW60304   0.802   1.374   5.624 -0.0616 -0.4197 -0.3756
19909SOL    HW160305   0.738   1.342   5.561  0.4042 -0.6996 -0.7219
19909SOL    HW260306   0.760   1.364   5.709 -1.2385  1.2316 -0.7136
19910SOL     OW60307   8.327   2.566   1.896 -0.3565 -0.0135 -0.2793
19910SOL    HW160308   8.419   2.587   1.881 -0.4464 -0.6594 -1.9920
19910SOL    HW260309   8.282   2.650   1.892  0.1411  0.3017  0.5401
19911SOL     OW60310   9.673   0.924   4.835 -0.4284 -0.1787 -0.1154
19911SOL    HW160311   9.637   0.836   4.850 -1.5874  0.2049 -0.5738
19911SOL    HW260312   9.760   0.907   4.797  0.3849 -1.1132  1.9870
19912SOL     OW60313   1.803   0.813   0.513  0.1082 -0.1344 -0.3928
19912SOL    HW160314   1.888   0.785   0.480 -0.3218 -1.0366 -0.7751
19912SOL    HW260315   1.794   0.770   0.598 -0.2006 -0.5004 -0.6072
19913SOL     OW60316   5.902   5.961   3.534 -0.1694  0.6033  0.2320
19913SOL    HW160317   5.851   5.991   3.610 -1.0343  2.3813 -0.9829
19913SOL    HW260318   5.841   5.966   3.461  0.5851 -1.3165 -0.5794
19914SOL     OW60319   8.091   1.244   8.287 -0.1862 -0.5360 -0.3459
19914SOL    HW160320   8.114   1.323   8.238  0.4350 -0.8460 -0.5680
19914SOL    HW260321   8.174   1.195   8.295  0.2423  0.4476  2.7922
19915SOL     OW60322   0.550   8.318   7.166 -0.5646 -0.2922 -0.0372
19915SOL    HW160323   0.549   8.301   7.071 -0.3229 -1.7353  0.1879
19915SOL    HW260324   0.460   8.301   7.194 -1.2962  2.6003 -0.3468
19916SOL     OW60325   8.037   7.578   6.909 -0.1259  0.1294 -0.4832
19916SOL    HW160326   8.106   7.567   6.974  0.6858 -0.5174 -1.4372
19916SOL    HW260327   7.969   7.516   6.935  0.1182 -0.0077 -0.1682
19917SOL     OW60328   7.867   1.562   6.401 -0.0450 -0.0119  0.1776
19917SOL    HW160329   7.960   1.570   6.421  0.1870 -0.6360 -0.6022
19917SOL    HW260330   7.825   1.543   6.485  0.8017 -1.8676  0.2280
19918SOL     OW60331   6.464   5.387   5.662  0.0321 -0.1941 -0.0777
19918SOL    HW160332   6.448   5.294   5.676 -2.0328  0.0797 -0.2764
19918SOL    HW260333   6.395   5.431   5.712  0.8867  1.2269 -0.0939
19919SOL     OW60334   2.744   2.790   3.202 -0.0036 -0.0589  0.6116
19919SOL    HW160335   2.817   2.765   3.259  0.9965 -0.1899 -0.6627
19919SOL    HW260336   2.784   2.850   3.138 -0.5621 -1.5599 -1.2462
19920SOL     OW60337   4.114   9.078   8.924  0.6033  0.1827 -0.0410
19920SOL    HW160338   4.137   8.992   8.889  1.5146  0.2822  0.2930
19920SOL    HW260339   4.059   9.059   9.001 -0.7497 -0.0483 -1.0239
19921SOL     OW60340   0.555   8.727   7.895 -0.1016 -0.4249 -0.0692
19921SOL    HW160341   0.631   8.723   7.953  0.3601 -1.8542 -0.7171
19921SOL    HW260342   0.496   8.789   7.937  2.0049  1.8844 -0.2937
19922SOL     OW60343   1.524   0.425   9.879 -0.0880  0.5557  0.1874
19922SOL    HW160344   1.583   0.419   9.954  1.6972 -1.6995 -1.2633
19922SOL    HW260345   1.491   0.337   9.867  0.6891  0.5270 -2.3665
19923SOL     OW60346   1.727   2.236   2.687  0.4545 -0.0359 -0.0679
19923SOL    HW160347   1.753   2.316   2.734 -0.3106 -1.5481  3.2005
19923SOL    HW260348   1.641   2.256   2.651  0.0849  0.5329  1.0784
19924SOL     OW60349   2.297   4.208   2.718  0.4720  0.3840 -0.3729
19924SOL    HW160350   2.254   4.134   2.674  2.0161 -1.9490  1.7530
19924SOL    HW260351   2.275   4.284   2.664 -0.2361 -1.7636 -3.3884
19925SOL     OW60352   8.820   3.942   8.974  0.1713 -0.1340  0.7350
19925SOL    HW160353   8.790   3.989   9.052 -0.6720 -1.7525  1.4413
19925SOL    HW260354   8.839   4.010   8.910 -2.0820  1.1243  1.3220
19926SOL     OW60355   0.726   0.061   5.559  0.0403  0.0285 -0.2040
19926SOL    HW160356   0.651   0.001   5.554 -0.4389  0.5599  0.5289
19926SOL    HW260357   0.802   0.003   5.561 -0.3862 -0.5392 -0.1096
19927SOL     OW60358   1.858   3.476   1.443 -0.1109 -0.1609  0.4739
19927SOL    HW160359   1.926   3.479   1.509  0.2805  0.0261  0.0693
19927SOL    HW260360   1.810   3.395   1.461  1.4050 -1.3029 -0.3959
19928SOL     OW60361   1.076   6.095   6.330 -0.0635  0.0479  0.0442
19928SOL    HW160362   0.986   6.061   6.327  0.3993 -1.1747 -0.1778
19928SOL    HW260363   1.118   6.043   6.398  0.2130  1.3146  0.8743
19929SOL     OW60364   3.670   2.497   4.597 -0.1826 -0.4340 -0.7814
19929SOL    HW160365   3.733   2.483   4.668  1.3605 -0.5607 -2.1049
19929SOL    HW260366   3.588   2.520   4.641  0.7975 -0.2023  1.0171
19930SOL     OW60367   9.896   9.697   0.225 -0.3375  0.4198 -0.7580
19930SOL    HW160368   9.851   9.613   0.214  1.0916 -0.3801 -0.7128
19930SOL    HW260369   9.854   9.755   0.161  0.2195 -0.9941 -2.4985
19931SOL     OW60370   5.242   9.237   9.035  0.3981  0.2735  0.0675
19931SOL    HW160371   5.264   9.304   8.969  1.9514  0.5205  0.7813
19931SOL    HW260372   5.205   9.165   8.984  1.5951  0.4365 -1.1141
19932SOL     OW60373   8.683   2.153   6.092  0.0759  0.2497 -0.3669
19932SOL    HW160374   8.716   2.209   6.021  2.2583 -2.0997 -1.3704
19932SOL    HW260375   8.597   2.124   6.061  0.1078  0.8851 -1.0975
19933SOL     OW60376   0.690   8.382   3.379 -0.3496  0.3813 -0.8109
19933SOL    HW160377   0.657   8.307   3.429 -0.3466 -0.2838 -1.7801
19933SOL    HW260378   0.706   8.347   3.291 -1.3976  1.7725 -1.5973
19934SOL     OW60379   9.542   6.271   2.359  0.1180 -0.2843 -0.5662
19934SOL    HW160380   9.624   6.298   2.400  1.2821 -2.1251 -1.5402
19934SOL    HW260381   9.478   6.275   2.429  0.8164  2.0798  0.0053
19935SOL     OW60382   7.924   4.426   8.072 -0.3233  0.5522  0.0140
19935SOL    HW160383   7.897   4.343   8.032  0.0357  0.4485 -0.0155
19935SOL    HW260384   7.964   4.475   8.000  1.3117 -0.0606  0.4477
19936SOL     OW60385   8.492   3.591   4.871 -0.3567 -0.2000 -0.0460
19936SOL    HW160386   8.569   3.634   4.833  0.2950 -1.3811 -0.1117
19936SOL    HW260387   8.420   3.651   4.854  0.1561 -0.0625 -1.9876
19937SOL     OW60388   6.956   3.598   5.827 -0.4546  0.4377 -0.0239
19937SOL    HW160389   6.959   3.686   5.864 -3.2467  1.3683 -1.7223
19937SOL    HW260390   7.036   3.591   5.774 -0.8852  2.5629 -1.0427
19938SOL     OW60391   3.419   4.005   7.349 -0.2730 -0.7406  0.0017
19938SOL    HW160392   3.384   4.022   7.261  1.1787 -1.0344 -0.6696
19938SOL    HW260393   3.513   4.025   7.341  0.6237 -4.2332  0.4644
19939SOL     OW60394   6.049   4.449   6.221  0.0055  0.1895  0.0687
19939SOL    HW160395   6.047   4.483   6.132 -2.6906  0.0511 -0.0099
19939SOL    HW260396   6.012   4.361   6.214 -1.2996  0.5773  1.4079
19940SOL     OW60397   0.593   4.115   4.555  0.0009  0.2685 -0.3639
19940SOL    HW160398   0.611   4.186   4.617 -1.3163  2.3207 -2.1967
19940SOL    HW260399   0.544   4.156   4.484  0.6263 -2.1526 -2.3582
19941SOL     OW60400   4.874   1.002   7.242  0.0727  0.0654  0.1934
19941SOL    HW160401   4.965   1.004   7.270  0.5535  0.4495 -1.3322
19941SOL    HW260402   4.859   0.913   7.213  0.2532  0.2434 -0.4563
19942SOL     OW60403   9.073   6.953   1.272  0.1272  0.3695  0.1540
19942SOL    HW160404   9.108   7.024   1.217  0.4655 -1.6446 -2.3898
19942SOL    HW260405   9.150   6.905   1.301 -0.2195 -0.7422 -0.7215
19943SOL     OW60406   1.600   5.647   8.349  0.7519  0.6485 -0.2443
19943SOL    HW160407   1.666   5.582   8.323 -0.0843  0.4807 -2.1335
19943SOL    HW260408   1.634   5.684   8.431  3.2146  0.6161 -1.1508
19944SOL     OW60409   0.302   9.426   7.851  0.2526  0.3570  0.3842
19944SOL    HW160410   0.238   9.447   7.784 -0.8716 -0.8612  1.0220
19944SOL    HW260411   0.384   9.413   7.803  0.1603  2.3080 -0.4050
19945SOL     OW60412   0.149   3.332   0.530 -0.1012 -0.5816  0.3990
19945SOL    HW160413   0.092   3.257   0.548 -0.7941 -0.8998 -2.5258
19945SOL    HW260414   0.090   3.400   0.497  0.9330 -0.2032 -0.7793
19946SOL     OW60415   9.240   1.767   5.981  0.2689 -0.9311 -0.0613
19946SOL    HW160416   9.161   1.794   5.935 -0.6533 -1.2065  1.3130
19946SOL    HW260417   9.238   1.671   5.977 -0.4219 -1.0149  1.4480
19947SOL     OW60418   5.095   3.883   1.622  0.4790 -0.9113  0.1574
19947SOL    HW160419   5.035   3.821   1.665  1.0561 -1.4888  0.1402
19947SOL    HW260420   5.151   3.914   1.692 -0.9481  0.9993  0.5322
19948SOL     OW60421   1.789   4.457   0.032 -0.3641  0.1844 -0.1107
19948SOL    HW160422   1.858   4.515   0.063  0.0987 -0.6781  0.5110
19948SOL    HW260423   1.755   4.415   0.111  0.9228 -2.1477 -0.7044
19949SOL     OW60424   0.295   8.167   2.444 -0.1774  0.1128  0.1274
19949SOL    HW160425   0.322   8.078   2.421  0.1669  0.3792 -0.5042
19949SOL    HW260426   0.200   8.159   2.460 -0.0620 -0.4594  0.5741
19950SOL     OW60427   3.843   0.731   9.387  0.0480  0.7146  0.0667
19950SOL    HW160428   3.769   0.671   9.383 -1.3034  2.2215  1.1779
19950SOL    HW260429   3.919   0.677   9.368 -1.2400 -1.0718 -0.2159
19951SOL     OW60430   3.416   9.827   5.802  0.0565 -0.1947  0.2187
19951SOL    HW160431   3.511   9.832   5.792 -0.0945 -1.1543 -2.2092
19951SOL    HW260432   3.403   9.783   5.886  1.7485 -0.7137  0.2387
19952SOL     OW60433   0.554   7.449   2.092  0.3395  0.3706  0.2068
19952SOL    HW160434   0.469   7.478   2.058  0.9156  0.1084 -1.6106
19952SOL    HW260435   0.610   7.527   2.088  1.1329 -0.2251 -2.0841
19953SOL     OW60436   7.417   7.691   8.040  0.1861  0.7359  0.0448
19953SOL    HW160437   7.345   7.740   8.080 -0.4741  0.1472 -0.3839
19953SOL    HW260438   7.425   7.612   8.094 -1.5130 -0.6514 -1.5980
19954SOL     OW60439   8.923   6.210   7.043 -0.1262 -0.1193  0.3033
19954SOL    HW160440   8.853   6.145   7.055 -0.8638  0.1512 -1.9489
19954SOL    HW260441   9.004   6.159   7.047 -0.4637 -0.5676  2.1569
19955SOL     OW60442   1.043   3.873   4.838  0.3349 -0.3715  0.4607
19955SOL    HW160443   0.967   3.858   4.781  0.0253 -2.5852  1.3433
19955SOL    HW260444   1.005   3.898   4.922  0.7526  1.7992  0.0542
19956SOL     OW60445   3.089   1.240   5.374 -0.1467  0.0057  0.1847
19956SOL    HW160446   2.999   1.212   5.356 -0.5366 -0.2828  2.3221
19956SOL    HW260447   3.143   1.164   5.353 -0.1203  0.7100 -2.7749
19957SOL     OW60448   5.349   9.905   9.538 -0.1059  0.3449 -0.4071
19957SOL    HW160449   5.356   9.818   9.497 -0.1773  0.0075  0.2882
19957SOL    HW260450   5.439   9.935   9.546  0.0436 -0.3600  0.8023
19958SOL     OW60451   2.811   0.658   3.418 -0.2905 -0.1092 -0.8440
19958SOL    HW160452   2.715   0.665   3.413 -0.3888 -0.8879 -0.2731
19958SOL    HW260453   2.826   0.583   3.475  0.6686 -0.0103 -0.9570
19959SOL     OW60454   3.251   4.150   8.184  0.2248 -0.4936  0.3786
19959SOL    HW160455   3.280   4.188   8.101  0.0769 -0.1846  0.4669
19959SOL    HW260456   3.318   4.086   8.206 -1.3495 -3.1099 -1.7082
19960SOL     OW60457   6.490   6.046   9.398 -0.1011 -0.1941  0.2928
19960SOL    HW160458   6.456   6.106   9.332  0.4819  0.6496  0.7443
19960SOL    HW260459   6.541   5.982   9.349 -1.2108 -0.6859 -0.2535
19961SOL     OW60460   9.553   0.729   3.235 -0.2815 -0.0561 -0.6182
19961SOL    HW160461   9.484   0.744   3.300 -0.5888 -0.1505 -0.9220
19961SOL    HW260462   9.519   0.767   3.154 -0.5363 -1.2479 -1.0933
19962SOL     OW60463   5.239   4.569   0.519 -0.0606 -0.4627 -0.4825
19962SOL    HW160464   5.229   4.594   0.610  0.5182  0.7506 -0.7315
19962SOL    HW260465   5.162   4.516   0.499 -0.9223  0.4751  0.3060
19963SOL     OW60466   0.606   2.928   8.048  0.4451 -0.1204 -0.1206
19963SOL    HW160467   0.685   2.964   8.007  1.1129 -1.6830 -0.2687
19963SOL    HW260468   0.548   3.003   8.056  2.0674  1.1645  0.3163
19964SOL     OW60469   7.711   9.141   9.893 -0.0659  0.4436  0.1098
19964SOL    HW160470   7.634   9.093   9.864  2.1380 -4.0404  0.8658
19964SOL    HW260471   7.722   9.117   9.985  1.2262  2.5161  0.5715
19965SOL     OW60472   0.706   8.005   5.971  0.2945  0.1560 -0.0298
19965SOL    HW160473   0.795   7.979   5.946  0.4257 -1.8234  2.1180
19965SOL    HW260474   0.649   7.956   5.912  0.6241 -1.0578  0.6357
19966SOL     OW60475   3.359   1.130   4.307  0.4056  0.1658  0.3714
19966SOL    HW160476   3.371   1.216   4.266  1.1521  0.3971  1.0325
19966SOL    HW260477   3.324   1.149   4.393 -0.3549 -0.2645  0.1643
19967SOL     OW60478   3.345   8.467   7.653 -0.1285  0.4143 -0.0448
19967SOL    HW160479   3.384   8.483   7.567 -1.5111  2.9068 -0.3221
19967SOL    HW260480   3.265   8.419   7.635 -0.1957  0.5522 -0.1184
19968SOL     OW60481   3.899   0.994   1.459  0.0200  0.0207  0.8272
19968SOL    HW160482   3.872   0.924   1.518  0.3390  0.7827  1.8923
19968SOL    HW260483   3.832   1.062   1.469  0.0722  0.1593  0.3005
19969SOL     OW60484   9.913   4.443   4.189  0.4380  0.6195 -0.5018
19969SOL    HW160485   9.930   4.535   4.169 -0.2405  1.3911  2.0301
19969SOL    HW260486   9.830   4.424   4.145 -0.0282  1.6095 -0.0949
19970SOL     OW60487   7.135   2.196   6.023 -0.0534  0.7294 -0.0916
19970SOL    HW160488   7.171   2.209   5.935  1.2240  2.1827  0.5936
19970SOL    HW260489   7.201   2.232   6.081 -1.3000  0.6592  1.4345
19971SOL     OW60490   3.403   8.316   9.368 -0.6130 -0.6887  0.2832
19971SOL    HW160491   3.397   8.267   9.285  0.2707 -1.1545  0.4851
19971SOL    HW260492   3.351   8.265   9.429 -0.7377 -0.6915  0.1757
19972SOL     OW60493   0.606   4.774   6.444  0.4280 -0.6123 -0.4239
19972SOL    HW160494   0.531   4.834   6.439 -0.4424 -1.0885  3.5440
19972SOL    HW260495   0.575   4.693   6.403 -0.4216 -0.1084 -0.7929
19973SOL     OW60496   6.155   4.615   2.759  0.1218 -0.1823  0.4987
19973SOL    HW160497   6.158   4.536   2.813 -0.6503  0.2469  1.1842
19973SOL    HW260498   6.064   4.644   2.763  0.1730  0.1655 -0.6018
19974SOL     OW60499   7.303   2.516   3.443 -0.0699 -0.4741 -0.4143
19974SOL    HW160500   7.268   2.588   3.390 -0.2956  1.8583  2.6358
19974SOL    HW260501   7.386   2.550   3.477 -0.2809 -1.5374  1.2628
19975SOL     OW60502   0.777   4.176   8.042  0.0681  0.6919  0.3664
19975SOL    HW160503   0.692   4.219   8.036 -0.2819 -0.0701 -0.4361
19975SOL    HW260504   0.794   4.167   8.135 -0.5303  1.2233  0.5316
19976SOL     OW60505   5.172   1.753   7.459  0.1410  0.1588 -0.0404
19976SOL    HW160506   5.078   1.760   7.476  0.4844  3.4958  1.1810
19976SOL    HW260507   5.190   1.824   7.397  2.1070  0.7184  1.1051
19977SOL     OW60508   6.654   7.441   6.156  0.8015  0.0327 -0.2182
19977SOL    HW160509   6.606   7.366   6.120  1.7421 -0.6590 -0.0621
19977SOL    HW260510   6.647   7.508   6.089 -0.7105  0.0919 -0.0331
19978SOL     OW60511   5.885   3.795   5.477  0.1095 -0.6151 -0.3297
19978SOL    HW160512   5.918   3.708   5.496  0.6509 -0.4313 -0.3849
19978SOL    HW260513   5.936   3.853   5.534  1.5989 -0.0846 -2.0953
19979SOL     OW60514   1.305   7.454   7.566 -0.1684 -0.3950  0.2389
19979SOL    HW160515   1.307   7.520   7.497 -0.3745  0.8817  1.4146
19979SOL    HW260516   1.361   7.383   7.533  1.8877  1.2972 -0.1358
19980SOL     OW60517   5.483   4.677   3.649 -0.1932  0.7342  0.1231
19980SOL    HW160518   5.397   4.719   3.659  0.2098  1.4541  0.6677
19980SOL    HW260519   5.463   4.583   3.640 -1.0648  0.9541 -0.3562
19981SOL     OW60520   8.687   0.206   1.812  0.8835 -0.3054 -0.2555
19981SOL    HW160521   8.602   0.245   1.833  0.2058 -1.6959 -0.3424
19981SOL    HW260522   8.716   0.253   1.733  0.7210  0.9097  0.3788
19982SOL     OW60523   2.972   3.759   6.526 -0.0637 -0.7906 -0.2095
19982SOL    HW160524   2.880   3.745   6.548 -0.6990  1.1990 -1.2813
19982SOL    HW260525   3.003   3.823   6.591 -0.5873  1.4228 -2.0067
19983SOL     OW60526   3.285   0.413   9.527 -0.3215  0.4818 -0.0066
19983SOL    HW160527   3.256   0.391   9.439 -2.0769  0.5611  0.5117
19983SOL    HW260528   3.258   0.338   9.581  0.1869  0.6960  0.5669
19984SOL     OW60529   4.738   1.419   6.908 -0.4102  0.2755 -0.6217
19984SOL    HW160530   4.762   1.340   6.955  1.0252  0.5052 -0.9123
19984SOL    HW260531   4.655   1.446   6.947  1.6377  1.6434  3.3339
19985SOL     OW60532   6.493   5.152   8.370  0.2880  0.2348 -0.1126
19985SOL    HW160533   6.546   5.166   8.291 -0.2462 -0.2520 -0.5645
19985SOL    HW260534   6.455   5.238   8.388  1.2291  0.5961  0.2292
19986SOL     OW60535   7.614   2.093   8.985  0.1911  0.9825 -0.2424
19986SOL    HW160536   7.596   2.184   9.005 -1.1490  0.6415  0.2026
19986SOL    HW260537   7.594   2.084   8.891 -1.7516  0.6985  0.1578
19987SOL     OW60538   4.958   2.129   4.603  0.4473 -0.1639  0.0697
19987SOL    HW160539   4.984   2.206   4.653 -0.1711  0.5039 -0.5992
19987SOL    HW260540   5.036   2.106   4.552  0.3376  0.6832 -0.5190
19988SOL     OW60541   0.030   6.825   5.151 -0.1072 -0.0396  0.1617
19988SOL    HW160542   0.121   6.795   5.148 -0.2299 -0.6196  1.4178
19988SOL    HW260543  -0.017   6.764   5.094  0.1921 -0.1042 -0.0204
19989SOL     OW60544   0.425   7.872   7.115 -0.3820 -0.2073 -0.0593
19989SOL    HW160545   0.453   7.953   7.157 -1.9385  0.5909 -0.4579
19989SOL    HW260546   0.372   7.827   7.181 -1.0018 -0.0203 -0.4189
19990SOL     OW60547   2.723   4.749   8.633  0.0134  0.0540 -0.0611
19990SOL    HW160548   2.701   4.839   8.610  0.6994  0.4156  0.6718
19990SOL    HW260549   2.812   4.737   8.600 -0.6549 -0.8976 -1.6200
19991SOL     OW60550   3.622   6.038   8.539  0.3193  0.3714  0.5246
19991SOL    HW160551   3.656   6.114   8.491  1.1341 -0.4480 -0.2284
19991SOL    HW260552   3.696   6.008   8.592  0.5388 -0.9069 -0.4685
19992SOL     OW60553   7.186   7.393   7.658 -0.2358  0.2796  0.3446
19992SOL    HW160554   7.265   7.339   7.655  1.9688  3.2386  1.3091
19992SOL    HW260555   7.185   7.430   7.746 -1.5508  1.9373 -0.3091
19993SOL     OW60556   1.974   1.542   1.379  0.3224  0.0084  0.1470
19993SOL    HW160557   1.964   1.485   1.303  0.5885 -1.8624  1.4523
19993SOL    HW260558   1.891   1.590   1.385  0.3706  0.3097 -1.3897
19994SOL     OW60559   4.526   6.341   6.003 -0.2537 -0.1475  0.3402
19994SOL    HW160560   4.563   6.255   5.981 -0.6996 -0.1147 -0.5780
19994SOL    HW260561   4.453   6.353   5.942  0.7141  1.5178 -0.5765
19995SOL     OW60562   3.559   1.662   6.094  0.1984 -0.0291 -0.3194
19995SOL    HW160563   3.495   1.628   6.032  1.2556 -1.6542 -0.5503
19995SOL    HW260564   3.602   1.733   6.047 -1.9663  1.7143  0.1410
19996SOL     OW60565   5.588   2.785   6.721 -0.4457  0.1784 -0.2653
19996SOL    HW160566   5.628   2.840   6.653 -0.2752 -0.9960 -1.1341
19996SOL    HW260567   5.499   2.819   6.728 -0.3678  0.5325 -0.8534
19997SOL     OW60568   3.626   3.731   1.694 -0.6087  0.0666 -0.4198
19997SOL    HW160569   3.682   3.761   1.766  0.1981 -1.9683 -0.1509
19997SOL    HW260570   3.542   3.776   1.709  0.0184  0.8504  0.8991
19998SOL     OW60571   3.911   5.307   8.288  0.0751  0.1847  0.1445
19998SOL    HW160572   3.912   5.218   8.251 -0.8779 -0.2375  1.0742
19998SOL    HW260573   3.952   5.297   8.374 -0.5570  0.5181  0.4942
19999SOL     OW60574   3.752   7.023   4.001 -0.4946 -0.7973 -0.0544
19999SOL    HW160575   3.718   7.111   3.981  1.3672  0.0309  0.2344
19999SOL    HW260576   3.783   6.989   3.917  0.3651 -0.4475  0.1113
20000SOL     OW60577   1.732   4.360   5.794 -0.3919 -0.3162 -0.2102
20000SOL    HW160578   1.646   4.318   5.784  0.0374 -1.2912  0.0939
20000SOL    HW260579   1.720   4.423   5.865 -0.8387 -0.4864 -0.1298
20001SOL     OW60580   4.775   1.104   2.653 -0.3373 -0.9979  0.1348
20001SOL    HW160581   4.792   1.189   2.693 -1.1816 -1.2796  1.1657
20001SOL    HW260582   4.757   1.124   2.561  1.5635 -0.3155 -0.1304
20002SOL     OW60583   9.516   2.088   6.112  0.4086  0.1675  0.0843
20002SOL    HW160584   9.509   1.999   6.147 -0.6417 -0.2536 -1.1348
20002SOL    HW260585   9.426   2.121   6.113  0.9556  1.8008  1.8997
20003SOL     OW60586   1.393   1.235   6.255 -0.3393 -0.0493  0.4727
20003SOL    HW160587   1.424   1.325   6.255 -1.0257  0.1977 -0.1129
20003SOL    HW260588   1.339   1.228   6.176 -0.5910 -0.8657  0.7057
20004SOL     OW60589   2.378   1.766   8.638  0.0606 -0.9940 -0.0466
20004SOL    HW160590   2.466   1.747   8.673 -0.3582 -0.0382  1.6552
20004SOL    HW260591   2.319   1.724   8.700 -0.7527  1.8845  1.3198
20005SOL     OW60592   4.327   3.279   3.548 -0.2904 -0.1227  0.2226
20005SOL    HW160593   4.337   3.281   3.453  1.3104  2.3177  0.3376
20005SOL    HW260594   4.410   3.245   3.580 -0.7236 -0.6855  0.7640
20006SOL     OW60595   1.767   8.228   8.168 -0.1528  0.1526  0.2842
20006SOL    HW160596   1.755   8.224   8.263 -1.6401 -1.3730  0.0908
20006SOL    HW260597   1.758   8.321   8.146 -0.4757  0.4411  1.5747
20007SOL     OW60598   4.275   1.007   8.695  0.1567  0.1829 -0.3056
20007SOL    HW160599   4.180   1.000   8.696  0.2262 -0.9129 -0.2671
20007SOL    HW260600   4.301   1.004   8.787  0.2926 -0.8187 -0.3602
20008SOL     OW60601   3.242   1.014   4.065 -0.8376  0.1723  0.0192
20008SOL    HW160602   3.250   1.045   4.155 -2.6576 -1.1495  0.7042
20008SOL    HW260603   3.148   1.006   4.051 -0.5473 -1.0603 -1.4803
20009SOL     OW60604   7.026   7.069   2.103 -0.5839  0.1301 -0.0120
20009SOL    HW160605   6.995   7.048   2.191  1.0636  0.3333  0.6674
20009SOL    HW260606   7.084   6.996   2.081 -2.1162 -0.6662 -1.5688
20010SOL     OW60607   8.639   6.908   0.315  0.8046 -0.4091 -0.5162
20010SOL    HW160608   8.661   6.999   0.295 -0.2339 -0.3868 -1.6873
20010SOL    HW260609   8.694   6.856   0.257  1.7763 -0.5736  0.5171
20011SOL     OW60610   9.605   0.285   0.134  0.8349  0.0232 -0.2738
20011SOL    HW160611   9.633   0.252   0.220  2.9137  0.9285 -0.5619
20011SOL    HW260612   9.635   0.219   0.072 -1.4442 -1.0815 -0.3136
20012SOL     OW60613   6.110   5.872   2.432 -0.4914 -0.2281  0.3245
20012SOL    HW160614   6.132   5.793   2.383  2.3347  0.4561  0.3208
20012SOL    HW260615   6.095   5.841   2.521 -0.6516 -0.9229  0.0576
20013SOL     OW60616   0.190   7.839   9.557 -0.4115 -0.1189 -0.1178
20013SOL    HW160617   0.223   7.921   9.591  0.6678 -0.1011 -1.1565
20013SOL    HW260618   0.120   7.814   9.617 -1.1720  1.8521 -0.1257
20014SOL     OW60619   9.742   8.703   7.832  0.3942  0.1403  0.4131
20014SOL    HW160620   9.837   8.708   7.822  0.6362 -2.9812  0.2978
20014SOL    HW260621   9.713   8.651   7.758 -1.1071 -0.7816  1.5893
20015SOL     OW60622   7.008   2.030   0.638  0.3781  0.4939  0.2115
20015SOL    HW160623   7.050   1.985   0.711  1.2550  1.1725  0.1379
20015SOL    HW260624   7.080   2.071   0.590 -0.3018  1.0735 -0.3416
20016SOL     OW60625   0.203   4.272   5.073  0.0014  0.5120  0.0517
20016SOL    HW160626   0.233   4.352   5.030  0.0594  0.9082  0.8189
20016SOL    HW260627   0.233   4.280   5.163  2.0960 -1.4679 -0.3785
20017SOL     OW60628   0.362   8.269   7.580 -0.3431  0.2717  0.0053
20017SOL    HW160629   0.365   8.331   7.653  1.9736 -0.9338  1.0460
20017SOL    HW260630   0.454   8.248   7.563 -0.9827 -1.6508 -1.3703
20018SOL     OW60631   8.092   2.200   0.325 -0.2518  0.1379  0.4493
20018SOL    HW160632   8.059   2.233   0.409 -0.1949 -0.8195  0.8590
20018SOL    HW260633   8.027   2.135   0.298  1.5451 -2.2958  1.6156
20019SOL     OW60634   2.399  -0.015   8.362 -0.5378  0.8077  0.4659
20019SOL    HW160635   2.326   0.016   8.308 -0.2642  1.7343  0.5976
20019SOL    HW260636   2.477   0.008   8.310 -0.1677  3.3037  1.9376
20020SOL     OW60637   1.703   2.762   9.241 -0.1701 -0.2940 -0.0757
20020SOL    HW160638   1.746   2.678   9.224  0.3945  0.1781 -1.0659
20020SOL    HW260639   1.720   2.778   9.334 -0.4440 -1.3528  0.1757
20021SOL     OW60640   0.733   5.905   9.270  0.1024  0.0119  0.0630
20021SOL    HW160641   0.755   5.995   9.295 -3.1733  1.7478 -2.4423
20021SOL    HW260642   0.767   5.896   9.181 -1.0240 -0.5576 -0.3358
20022SOL     OW60643   8.872   1.232   3.394  0.6574  0.1129 -0.5121
20022SOL    HW160644   8.792   1.285   3.401  0.3765 -0.3928  0.1020
20022SOL    HW260645   8.903   1.224   3.484  1.0992 -0.1611 -0.6913
20023SOL     OW60646   7.058   4.342   2.978 -0.1461 -0.8305  0.2043
20023SOL    HW160647   6.989   4.372   2.918 -0.9583 -1.8261  0.6079
20023SOL    HW260648   7.036   4.383   3.062  2.0453  2.1012 -0.5088
20024SOL     OW60649   1.729   8.443   6.507 -0.2761  0.1532  0.5321
20024SOL    HW160650   1.730   8.365   6.562 -4.0128  0.0171  0.6516
20024SOL    HW260651   1.693   8.512   6.563  0.3606  1.2840 -0.3894
20025SOL     OW60652   7.631   8.004   9.793  0.0839 -1.1701 -0.6785
20025SOL    HW160653   7.568   7.932   9.781 -2.4106  0.4313  1.5906
20025SOL    HW260654   7.637   8.014   9.888  0.3183  1.6066 -0.9218
20026SOL     OW60655   9.438   4.356   2.357  0.4836  0.3889 -0.6132
20026SOL    HW160656   9.387   4.277   2.344  0.4305  0.2224  0.4763
20026SOL    HW260657   9.523   4.337   2.317  0.4823 -0.2362 -0.3326
20027SOL     OW60658   8.228   4.369   8.818 -0.2818 -0.9243 -0.3916
20027SOL    HW160659   8.321   4.390   8.824 -0.5574  0.6520 -1.0915
20027SOL    HW260660   8.209   4.372   8.724 -1.1275 -0.8005 -0.2208
20028SOL     OW60661   4.402   5.314   1.124  0.2023 -0.6091 -0.1212
20028SOL    HW160662   4.325   5.278   1.080  0.1339 -2.2298  1.2377
20028SOL    HW260663   4.374   5.328   1.215  1.3024 -0.5627  0.2303
20029SOL     OW60664   9.415   5.181   5.408  1.1710  0.3475  0.4889
20029SOL    HW160665   9.351   5.229   5.355  1.7651  1.2381  0.5412
20029SOL    HW260666   9.456   5.120   5.348  1.0804  0.5886  0.1810
20030SOL     OW60667   7.777   7.326   8.482 -0.0392 -0.0655  0.3559
20030SOL    HW160668   7.693   7.342   8.527 -0.0278  2.4355 -0.3315
20030SOL    HW260669   7.842   7.365   8.540  0.2106  1.1725 -0.6985
20031SOL     OW60670   1.845   6.362   2.751  0.2316  0.1095  0.0364
20031SOL    HW160671   1.907   6.289   2.746  1.4539  1.0867  0.4111
20031SOL    HW260672   1.872   6.411   2.829  0.4068  1.7943 -1.0239
20032SOL     OW60673   9.513   0.640   6.009 -0.0322 -0.2023  0.0942
20032SOL    HW160674   9.478   0.707   5.950  0.3497 -0.0338  0.0612
20032SOL    HW260675   9.482   0.557   5.972 -1.0117 -0.0156  0.4699
20033SOL     OW60676   0.980   5.118   1.441  0.2363 -0.1308 -0.1679
20033SOL    HW160677   1.014   5.042   1.395  0.3964  0.3022 -0.7760
20033SOL    HW260678   0.901   5.086   1.485 -0.0688 -0.4931 -0.9608
20034SOL     OW60679   2.411   9.836   4.843 -0.1824 -0.0984 -0.3990
20034SOL    HW160680   2.450   9.880   4.918 -1.7223 -1.5684  1.3484
20034SOL    HW260681   2.450   9.748   4.844 -1.1302 -0.5332 -0.5415
20035SOL     OW60682   4.678   9.456   6.614 -0.6597  0.5308 -0.1322
20035SOL    HW160683   4.599   9.416   6.579  0.3712 -1.7939  0.0022
20035SOL    HW260684   4.727   9.484   6.537 -1.3438  1.4390 -0.2392
20036SOL     OW60685   2.244   9.804   9.478  0.2222  0.5883  0.3905
20036SOL    HW160686   2.233   9.860   9.401 -0.1017  0.8134  0.5972
20036SOL    HW260687   2.244   9.715   9.443  0.7219  0.7114  0.0603
20037SOL     OW60688   1.688   6.181   5.443 -0.6620  0.1492 -0.4069
20037SOL    HW160689   1.634   6.153   5.517 -0.2380  0.2970 -0.0382
20037SOL    HW260690   1.631   6.173   5.367 -0.2925 -2.6511 -0.4816
20038SOL     OW60691   5.128   7.207   7.352 -0.2897  0.3634  0.3712
20038SOL    HW160692   5.044   7.162   7.358 -0.2620 -0.5024 -3.1796
20038SOL    HW260693   5.106   7.299   7.345 -0.7359  0.3928  1.9088
20039SOL     OW60694   1.405   1.889   6.165 -0.4107 -0.1434  0.1410
20039SOL    HW160695   1.322   1.844   6.147 -0.5190  0.9947 -2.8282
20039SOL    HW260696   1.378   1.973   6.203 -0.6016 -0.0938 -0.0940
20040SOL     OW60697   4.379   7.071   1.602  0.0248 -0.5148 -0.0382
20040SOL    HW160698   4.345   7.090   1.690  0.7342 -0.5387  0.2477
20040SOL    HW260699   4.347   6.982   1.583  1.0158 -1.0746  0.7899
20041SOL     OW60700   8.421   7.847   9.909 -0.0452  0.0330 -0.0561
20041SOL    HW160701   8.501   7.825   9.957 -0.2561 -0.3771  0.1135
20041SOL    HW260702   8.438   7.934   9.873  0.5851 -0.1636 -0.2572
20042SOL     OW60703   7.460   8.428   5.848 -0.3393  0.1577  0.2433
20042SOL    HW160704   7.520   8.502   5.838 -0.0083 -0.1709 -0.2986
20042SOL    HW260705   7.506   8.355   5.806 -0.5454 -0.4174  1.0033
20043SOL     OW60706   4.682   8.121   7.026 -0.1114  0.5292  0.1452
20043SOL    HW160707   4.729   8.065   7.088  0.1156  0.0186 -0.4796
20043SOL    HW260708   4.592   8.120   7.057 -0.0457  0.0919  0.3326
20044SOL     OW60709   9.769   7.251   6.324 -0.0785  0.7549  0.4301
20044SOL    HW160710   9.861   7.268   6.308 -0.0122  0.8888  0.9544
20044SOL    HW260711   9.763   7.232   6.417 -0.4855  0.1023  0.2780
20045SOL     OW60712   6.266   3.356   7.337  0.2022 -0.0397 -0.5308
20045SOL    HW160713   6.313   3.309   7.405 -0.3664  0.4647  0.2355
20045SOL    HW260714   6.179   3.316   7.336  0.2764 -0.1982 -1.1319
20046SOL     OW60715   2.879   5.102   2.795 -0.0870 -0.1427 -0.1844
20046SOL    HW160716   2.869   5.007   2.809 -0.0964 -0.2730 -1.0309
20046SOL    HW260717   2.798   5.128   2.752 -0.5967  0.4840  1.0922
20047SOL     OW60718   5.217   9.235   1.199  0.1319  0.2069 -0.4840
20047SOL    HW160719   5.253   9.204   1.282 -1.8767 -0.2513  0.2806
20047SOL    HW260720   5.196   9.155   1.151 -2.6365  0.3183  0.3964
20048SOL     OW60721   2.698   3.577   5.769 -0.2652  0.1753 -0.0637
20048SOL    HW160722   2.605   3.557   5.759 -0.2242 -1.6736  2.3679
20048SOL    HW260723   2.742   3.519   5.707 -0.6936  0.7894 -0.9559
20049SOL     OW60724   6.735   7.972   7.055 -0.0591  0.3933  0.0591
20049SOL    HW160725   6.710   7.904   7.117 -1.4168  0.9515  0.1673
20049SOL    HW260726   6.693   7.948   6.973 -1.2160  1.4691  0.2995
20050SOL     OW60727   0.193   6.084   8.858 -0.4736  0.4486 -0.1349
20050SOL    HW160728   0.246   6.081   8.778  0.4074  1.1846  0.4032
20050SOL    HW260729   0.204   5.997   8.897  0.2200  0.5356 -0.1198
20051SOL     OW60730   9.692   1.068   0.313 -0.1765 -0.0938 -0.3536
20051SOL    HW160731   9.685   1.008   0.239  1.0558  0.6069 -1.0699
20051SOL    HW260732   9.603   1.097   0.329 -0.4044  0.2133 -1.9810
20052SOL     OW60733   2.199   6.650   4.774  0.1149 -0.2149  0.5479
20052SOL    HW160734   2.184   6.744   4.783  0.0834 -0.0106 -1.2733
20052SOL    HW260735   2.112   6.612   4.764  0.1452 -0.4161  1.0041
20053SOL     OW60736   6.302   9.274   9.831  0.1887 -0.3583 -0.2739
20053SOL    HW160737   6.319   9.350   9.887  3.0235 -1.1143  0.0722
20053SOL    HW260738   6.219   9.239   9.861 -0.6674  1.9529  0.2713
20054SOL     OW60739   7.465   5.172   1.119 -0.2473  0.9731  0.0968
20054SOL    HW160740   7.463   5.104   1.186  1.5120  0.7896  0.0044
20054SOL    HW260741   7.388   5.154   1.065  1.4246 -2.5470 -1.4336
20055SOL     OW60742   3.914   9.243   0.944  0.4772  0.3830 -0.2760
20055SOL    HW160743   3.886   9.315   1.001 -0.9804  0.2870 -0.8282
20055SOL    HW260744   3.985   9.280   0.892 -1.2862  1.9849 -1.6846
20056SOL     OW60745   4.750   7.851   5.877 -0.6186 -0.3486  0.0855
20056SOL    HW160746   4.752   7.758   5.853  2.1262 -0.5890  0.8849
20056SOL    HW260747   4.817   7.892   5.822 -1.3837  1.0527  0.1582
20057SOL     OW60748   3.662   5.466   8.849 -0.4886  0.0366 -0.1327
20057SOL    HW160749   3.578   5.511   8.848 -1.2649 -1.2875 -2.1453
20057SOL    HW260750   3.714   5.509   8.781 -0.5727 -0.8271 -0.7787
20058SOL     OW60751   2.450   3.983   8.708  0.2745 -0.3408 -0.2647
20058SOL    HW160752   2.467   4.032   8.789 -1.2349 -1.0088  0.4907
20058SOL    HW260753   2.402   4.045   8.653 -0.7788 -0.6191  0.3090
20059SOL     OW60754   7.970   3.581   7.716  0.1897  0.4309  0.1035
20059SOL    HW160755   8.008   3.667   7.732 -0.8437  1.3916 -2.2007
20059SOL    HW260756   7.922   3.590   7.634 -2.4733 -1.5315  1.2947
20060SOL     OW60757   4.283   6.448   2.434  0.1735 -0.1685  0.5505
20060SOL    HW160758   4.207   6.496   2.468  0.1942 -0.4369  0.9806
20060SOL    HW260759   4.251   6.411   2.351  0.6747  2.0038 -0.7146
20061SOL     OW60760   0.980   5.137   8.951  0.0959  0.1111  0.7395
20061SOL    HW160761   0.970   5.166   9.042  0.1137 -1.0091  1.1236
20061SOL    HW260762   0.904   5.081   8.936 -0.4885  1.1596 -0.3097
20062SOL     OW60763   5.948   1.384   2.806 -0.2618 -0.2725 -0.0107
20062SOL    HW160764   5.885   1.392   2.877 -1.1235  1.6544 -0.9108
20062SOL    HW260765   6.026   1.349   2.848 -0.9335  0.2202  1.7760
20063SOL     OW60766   5.087   7.746   2.065 -0.7915 -0.0238 -0.1033
20063SOL    HW160767   5.055   7.767   2.153  1.0310  0.6059  0.4559
20063SOL    HW260768   5.105   7.830   2.026 -2.1595 -0.2747 -1.3598
20064SOL     OW60769   7.819   4.820   8.147  0.2108 -0.2699  0.2095
20064SOL    HW160770   7.776   4.828   8.061 -0.7357  1.5041  0.7907
20064SOL    HW260771   7.905   4.860   8.133  0.8277 -1.7401 -0.3753
20065SOL     OW60772   3.577   9.212   3.352  0.2313  0.2955  0.1923
20065SOL    HW160773   3.490   9.175   3.369  1.4855 -1.7338  3.0420
20065SOL    HW260774   3.591   9.275   3.423  1.0548  0.6779 -0.2941
20066SOL     OW60775   8.617   2.807   7.496 -0.3163 -0.3637 -0.8873
20066SOL    HW160776   8.681   2.871   7.465  1.3740 -2.1452 -1.2695
20066SOL    HW260777   8.564   2.787   7.419 -2.4061  2.1623 -0.2506
20067SOL     OW60778   7.015   5.672   9.869 -0.1792 -0.0545  0.4314
20067SOL    HW160779   7.084   5.622   9.912 -0.1935  0.6047  1.2324
20067SOL    HW260780   6.999   5.624   9.787  3.0329  1.2001 -1.0663
20068SOL     OW60781   4.144   7.718   1.816 -0.0492 -0.3772 -0.0188
20068SOL    HW160782   4.070   7.740   1.874 -0.0102  4.8964 -1.4136
20068SOL    HW260783   4.104   7.707   1.729  0.5555 -0.5399 -0.2810
20069SOL     OW60784   8.062   4.763   9.563  0.6687  0.7125  0.4399
20069SOL    HW160785   8.098   4.675   9.554 -1.3125 -0.1100 -0.0598
20069SOL    HW260786   7.977   4.759   9.518  0.3741  2.7844  0.7005
20070SOL     OW60787   5.276   3.605   5.075  0.3778 -0.4322 -0.2259
20070SOL    HW160788   5.235   3.677   5.124  0.6110 -0.4324 -0.0289
20070SOL    HW260789   5.211   3.535   5.078  0.7835 -0.7809  0.9377
20071SOL     OW60790   1.602   4.703   1.184 -0.2556 -0.1795 -0.0888
20071SOL    HW160791   1.576   4.756   1.109 -0.9124 -1.3033 -0.6902
20071SOL    HW260792   1.675   4.650   1.152  0.0896  0.0250  0.3581
20072SOL     OW60793   8.434   0.276   5.743 -0.2545  0.2744  0.3901
20072SOL    HW160794   8.515   0.305   5.784 -0.1393 -0.1463  0.4653
20072SOL    HW260795   8.422   0.186   5.775 -0.8371  0.3905  0.5192
20073SOL     OW60796   2.901   5.397   2.669 -0.2240 -0.3441 -0.1586
20073SOL    HW160797   2.893   5.302   2.663 -2.0577 -0.2270 -0.0348
20073SOL    HW260798   2.816   5.427   2.701  1.6133  1.0248  4.0919
20074SOL     OW60799   5.460   1.074   0.356 -0.4900  0.0037  0.2317
20074SOL    HW160800   5.367   1.092   0.350 -0.8578 -1.9738 -1.2138
20074SOL    HW260801   5.500   1.127   0.288 -0.6877  0.1769  0.2517
20075SOL     OW60802   1.279   9.334   9.422 -0.0972 -0.9638 -0.3797
20075SOL    HW160803   1.254   9.296   9.507  1.2978 -1.7875 -0.3128
20075SOL    HW260804   1.317   9.419   9.445  0.2738 -1.1827 -0.1608
20076SOL     OW60805   1.460   9.620   6.418 -0.4419  0.4995 -0.4704
20076SOL    HW160806   1.490   9.691   6.474  1.2433 -0.0558 -0.6037
20076SOL    HW260807   1.514   9.545   6.443 -2.6936 -0.9874  0.2087
20077SOL     OW60808   9.287   5.394   0.062  0.1492 -0.4869  0.5014
20077SOL    HW160809   9.358   5.396  -0.002 -1.3598 -3.9886 -1.6008
20077SOL    HW260810   9.314   5.327   0.125 -1.0065 -1.5979 -0.1194
20078SOL     OW60811   5.399   8.979   4.978  0.2715 -0.0001  0.2719
20078SOL    HW160812   5.408   8.887   5.003 -0.7687  0.1270  1.2196
20078SOL    HW260813   5.398   8.978   4.883 -0.0993 -1.0164  0.2741
20079SOL     OW60814   4.627   5.850   7.614  0.2422  0.1742  0.3487
20079SOL    HW160815   4.685   5.780   7.645  0.4032  0.9268  1.8709
20079SOL    HW260816   4.640   5.853   7.519  2.4248  0.0630  0.5960
20080SOL     OW60817   8.393   4.922   4.269 -0.3040  0.3897  0.7285
20080SOL    HW160818   8.314   4.972   4.291 -1.2029  0.0529 -1.5112
20080SOL    HW260819   8.389   4.844   4.325 -1.8397  0.1334  0.3018
20081SOL     OW60820   3.702   1.697   6.323  0.3292  0.1916  0.0085
20081SOL    HW160821   3.668   1.732   6.240  1.6543  0.8574 -0.2770
20081SOL    HW260822   3.658   1.612   6.333  0.3333 -0.0113 -1.4966
20082SOL     OW60823   6.209   6.379   9.515 -0.0381 -0.6588  0.2023
20082SOL    HW160824   6.201   6.470   9.485 -1.9259 -0.6536  0.5725
20082SOL    HW260825   6.259   6.385   9.597  1.6833 -0.2296 -0.8357
20083SOL     OW60826   8.005   9.035   1.852 -0.1796  0.0443  0.1991
20083SOL    HW160827   8.013   8.989   1.769 -0.1740 -0.2750  0.3739
20083SOL    HW260828   8.065   9.109   1.845 -0.3214  0.1316 -0.1531
20084SOL     OW60829   2.298   5.778   6.052  0.1140 -0.3962  0.1207
20084SOL    HW160830   2.292   5.798   6.145  0.6527  2.1180 -0.3237
20084SOL    HW260831   2.211   5.797   6.017  0.7277  1.7612 -0.3684
20085SOL     OW60832   5.517   4.746   8.795 -0.1128  0.3565 -0.2750
20085SOL    HW160833   5.491   4.838   8.802  1.5962  0.8505  0.1370
20085SOL    HW260834   5.613   4.749   8.791 -0.0432 -1.3981 -0.5272
20086SOL     OW60835   2.209   6.069   6.778  0.6241 -0.3833  0.3430
20086SOL    HW160836   2.272   6.137   6.803  2.0497 -1.5137 -0.0133
20086SOL    HW260837   2.199   6.015   6.857 -0.2278  0.0310  0.5209
20087SOL     OW60838   4.103   2.829   0.922  0.3872 -0.3168 -0.0432
20087SOL    HW160839   4.029   2.880   0.889  1.2595  1.1927  0.2219
20087SOL    HW260840   4.160   2.894   0.963  0.2991 -1.8410  2.7202
20088SOL     OW60841   2.824   2.359   5.469 -0.5877  0.2440 -0.0694
20088SOL    HW160842   2.782   2.273   5.482 -0.1213  0.1381  0.8074
20088SOL    HW260843   2.754   2.414   5.433 -2.1089  0.5967  3.0771
20089SOL     OW60844   8.538   0.665   8.515 -0.1587 -0.0809  0.8523
20089SOL    HW160845   8.478   0.726   8.558  1.4007  0.6774  2.0349
20089SOL    HW260846   8.599   0.721   8.467  0.9466 -0.7168  1.4813
20090SOL     OW60847   5.463   8.176   4.600 -0.5551  0.1308  0.5657
20090SOL    HW160848   5.535   8.139   4.549  0.1599  1.3450  0.6529
20090SOL    HW260849   5.387   8.169   4.542 -0.0041  0.4008 -0.2102
20091SOL     OW60850   5.727   4.274   1.757  0.1073 -0.7896  0.0478
20091SOL    HW160851   5.683   4.251   1.839 -2.0039  0.2616 -0.6979
20091SOL    HW260852   5.662   4.254   1.689  1.4834 -0.8520 -1.2878
20092SOL     OW60853   3.000   4.230   7.702 -0.3891 -0.0011  0.2060
20092SOL    HW160854   2.983   4.142   7.736 -0.4539 -0.4918 -1.0612
20092SOL    HW260855   3.087   4.252   7.736 -0.1163 -0.7938  0.0350
20093SOL     OW60856   3.579   9.393   3.771 -0.2364 -0.2583  0.5967
20093SOL    HW160857   3.545   9.395   3.681  2.1780 -2.2501 -0.4703
20093SOL    HW260858   3.526   9.326   3.815  0.4241 -1.3222 -0.2066
20094SOL     OW60859   1.814   5.785   4.351  0.2279 -0.4145 -0.7452
20094SOL    HW160860   1.870   5.828   4.415  0.9625 -1.0081 -0.9719
20094SOL    HW260861   1.757   5.855   4.317 -1.4420 -0.4052  1.8193
20095SOL     OW60862   0.045   5.853   9.988  0.2374 -0.4479  0.0759
20095SOL    HW160863  -0.024   5.848   9.922 -0.2167  0.5163  0.4585
20095SOL    HW260864   0.067   5.946   9.992  1.8050 -0.7764 -0.2815
20096SOL     OW60865   1.971   5.390   0.276  0.5766  0.2563 -0.0940
20096SOL    HW160866   1.932   5.326   0.336  0.2242  0.3120 -0.2619
20096SOL    HW260867   1.923   5.378   0.194  0.7367  0.5068 -0.2254
20097SOL     OW60868   2.949   8.823   9.070  0.1548 -0.3263 -0.2213
20097SOL    HW160869   2.865   8.864   9.092 -0.1240  0.1984 -2.0342
20097SOL    HW260870   2.986   8.879   9.002  0.8587 -1.8160 -1.1392
20098SOL     OW60871   4.728   3.746   2.957 -0.4529  0.0466  0.7258
20098SOL    HW160872   4.691   3.700   2.881 -0.1345 -2.7422  2.1299
20098SOL    HW260873   4.813   3.705   2.971  0.8057  2.5273  0.9332
20099SOL     OW60874   8.527   6.515   8.736 -0.4968  0.0808  0.6078
20099SOL    HW160875   8.583   6.526   8.813 -1.0011  0.4982  0.9151
20099SOL    HW260876   8.587   6.483   8.668  0.0269  0.0796  1.0615
20100SOL     OW60877   4.864   6.510   9.293  0.5553 -0.0768  0.0131
20100SOL    HW160878   4.931   6.443   9.299  0.9918  0.1714 -1.5822
20100SOL    HW260879   4.833   6.522   9.383  1.8938 -0.9486  0.6145
20101SOL     OW60880   3.410   7.803   5.756 -0.1505 -0.3172  0.0831
20101SOL    HW160881   3.389   7.787   5.665 -1.9152  1.4573  0.1161
20101SOL    HW260882   3.498   7.841   5.754  0.9823 -2.8171 -0.5692
20102SOL     OW60883   5.193   9.406   3.635 -0.1736  0.7961  0.1265
20102SOL    HW160884   5.162   9.492   3.662  0.3780  1.4722 -1.3085
20102SOL    HW260885   5.284   9.403   3.664  0.3206  1.3958 -1.2644
20103SOL     OW60886   4.510   4.516   3.184 -0.4471  0.1366  0.0345
20103SOL    HW160887   4.517   4.603   3.224 -1.9526  0.6537 -0.7558
20103SOL    HW260888   4.556   4.525   3.100  0.1089 -0.0828  0.3095
20104SOL     OW60889   9.146   0.579   9.912  0.4311 -0.0632  0.6693
20104SOL    HW160890   9.228   0.577   9.961  0.0165 -0.9832  1.3404
20104SOL    HW260891   9.078   0.558   9.977 -0.4254  1.3224  0.2786
20105SOL     OW60892   7.851   8.971   1.154  0.1706 -0.0970 -0.5950
20105SOL    HW160893   7.759   8.999   1.152  0.0459 -0.5186 -1.0819
20105SOL    HW260894   7.896   9.034   1.098 -0.1802 -1.0741 -2.0350
20106SOL     OW60895   9.694   3.459   0.948 -0.4356  0.3483  0.1127
20106SOL    HW160896   9.684   3.417   1.034  0.3815 -0.1016  0.0030
20106SOL    HW260897   9.776   3.423   0.914 -0.5325  0.8552 -0.6718
20107SOL     OW60898   3.251   2.550   6.298  0.1672 -0.5390 -0.3676
20107SOL    HW160899   3.159   2.541   6.320  0.7857 -1.1540  2.3881
20107SOL    HW260900   3.257   2.634   6.253 -1.6263 -0.1084  0.1164
20108SOL     OW60901   3.025   6.180   2.772 -0.2170  0.2982  0.0065
20108SOL    HW160902   2.967   6.186   2.848 -0.7164  1.1439 -0.4324
20108SOL    HW260903   3.063   6.092   2.778 -1.5781 -0.2913  0.2739
20109SOL     OW60904   8.193   3.396   4.047  0.0304 -0.1412 -0.3332
20109SOL    HW160905   8.217   3.476   4.094 -0.5482  0.3929 -0.9262
20109SOL    HW260906   8.124   3.357   4.101 -0.2938  0.2190 -0.4796
20110SOL     OW60907   0.747   7.637   3.967 -0.4686  0.3077 -0.1309
20110SOL    HW160908   0.786   7.685   4.041  0.2951  0.4243 -0.5967
20110SOL    HW260909   0.822   7.598   3.922 -0.7218  1.7027 -1.8786
20111SOL     OW60910   6.578   4.704   9.908 -0.1147 -0.2776 -0.1701
20111SOL    HW160911   6.616   4.702   9.995 -0.2597  2.4290  0.0370
20111SOL    HW260912   6.548   4.795   9.897  2.2154  0.2324 -3.9877
20112SOL     OW60913   5.117   2.618   1.790  0.4445  0.3855  0.2356
20112SOL    HW160914   5.190   2.569   1.752  1.1909  0.5112  1.4621
20112SOL    HW260915   5.158   2.687   1.841 -0.4924  0.0460  1.4987
20113SOL     OW60916   6.865   9.512   6.454  0.0731  0.3430  0.1257
20113SOL    HW160917   6.832   9.501   6.543 -1.9977  0.6581 -0.5469
20113SOL    HW260918   6.793   9.484   6.398  0.8548  1.3411 -1.4581
20114SOL     OW60919   0.121   1.018   0.680 -0.1612  0.1833  0.1257
20114SOL    HW160920   0.213   1.003   0.703 -0.6617 -0.8130  1.6450
20114SOL    HW260921   0.124   1.056   0.592  1.5664 -2.4579 -1.0711
20115SOL     OW60922   1.369   1.645   7.341 -0.4221  0.0687 -0.3253
20115SOL    HW160923   1.399   1.688   7.421 -0.8995  0.8096 -0.5290
20115SOL    HW260924   1.328   1.716   7.291  0.0461 -0.3398 -1.3084
20116SOL     OW60925   5.041   6.483   7.886 -0.1975 -0.2917  0.6553
20116SOL    HW160926   5.049   6.388   7.883 -1.6509 -0.4573  1.3196
20116SOL    HW260927   4.948   6.500   7.872  0.3159  1.1620 -1.4095
20117SOL     OW60928   5.347   1.895   9.457  0.0645 -0.1731 -0.0322
20117SOL    HW160929   5.414   1.921   9.395  0.4091  0.0788  0.4402
20117SOL    HW260930   5.379   1.813   9.494  1.2659  1.0855  1.8760
20118SOL     OW60931   8.989   2.151   8.787  0.2423 -0.2809 -0.2667
20118SOL    HW160932   8.979   2.176   8.879 -0.5270 -1.4451 -0.0040
20118SOL    HW260933   8.996   2.234   8.740  0.7247  0.3331  0.8435
20119SOL     OW60934   2.194   4.042   5.705 -0.5416  0.2615  0.0049
20119SOL    HW160935   2.244   4.092   5.770 -0.7360  0.0105  0.3525
20119SOL    HW260936   2.110   4.026   5.748 -1.4568  1.8685 -1.0777
20120SOL     OW60937   5.780   2.812   9.370  0.0822 -0.4078 -0.0125
20120SOL    HW160938   5.845   2.775   9.429 -0.8852 -0.8244  0.8147
20120SOL    HW260939   5.810   2.902   9.354  1.1787 -0.7944 -0.1461
20121SOL     OW60940   8.901   2.831   8.136 -0.6170 -0.3508  0.0980
20121SOL    HW160941   8.824   2.804   8.185 -1.6334 -0.6811 -1.5986
20121SOL    HW260942   8.895   2.782   8.054  0.7241  0.5862 -0.5850
20122SOL     OW60943   9.128   0.118   6.049  0.1766  0.3098  0.0503
20122SOL    HW160944   9.125   0.182   6.120  1.9078 -1.5002  1.8961
20122SOL    HW260945   9.219   0.089   6.046 -0.3708 -1.4989 -1.2164
20123SOL     OW60946   8.711   4.686   6.772 -0.5377 -0.1180 -0.5304
20123SOL    HW160947   8.626   4.729   6.765 -0.3085  0.3596 -0.4409
20123SOL    HW260948   8.751   4.697   6.686  0.5016  1.9726  0.1364
20124SOL     OW60949   6.428   1.566   6.605 -0.0368  0.0358  0.1551
20124SOL    HW160950   6.352   1.619   6.629 -0.6082 -1.1247  1.0169
20124SOL    HW260951   6.447   1.591   6.514 -2.4047 -0.7039 -0.6319
20125SOL     OW60952   9.147   7.916   9.563 -0.0184  0.3621  0.7545
20125SOL    HW160953   9.067   7.945   9.606 -0.7304  1.1114 -0.9709
20125SOL    HW260954   9.174   7.991   9.510  0.3989 -0.7253 -0.6361
20126SOL     OW60955   8.191   1.301   2.522  0.2081  0.3052  0.4985
20126SOL    HW160956   8.227   1.364   2.459 -0.2355  0.3671  0.3024
20126SOL    HW260957   8.268   1.256   2.557  0.6215  1.6956  1.4527
20127SOL     OW60958   6.894   4.327   8.363  0.0460  0.0392  0.2998
20127SOL    HW160959   6.923   4.340   8.272  0.1898 -1.7263  0.0693
20127SOL    HW260960   6.801   4.351   8.361 -0.0843 -0.4945 -0.4407
20128SOL     OW60961   5.716   5.399   4.116  0.3039 -0.2764  0.0323
20128SOL    HW160962   5.670   5.359   4.190  1.1418  1.9353  1.8914
20128SOL    HW260963   5.652   5.400   4.045 -1.7696  0.6513  1.8120
20129SOL     OW60964   9.879   5.171   9.161 -0.0287 -0.2227 -0.2283
20129SOL    HW160965   9.816   5.121   9.214 -0.5885  0.7699  0.0625
20129SOL    HW260966   9.846   5.165   9.072 -0.5916  0.3639 -0.0641
20130SOL     OW60967   6.730   3.443   7.610 -0.4358  0.9961 -0.3870
20130SOL    HW160968   6.686   3.526   7.590 -3.4842  0.0290  1.5459
20130SOL    HW260969   6.685   3.379   7.554  0.3981  0.3124 -0.2889
20131SOL     OW60970   4.905   4.221   8.701  0.1449  1.1415 -0.1076
20131SOL    HW160971   4.849   4.160   8.654 -0.7753 -0.1501  2.4527
20131SOL    HW260972   4.989   4.175   8.708  0.3548  1.4332 -0.6490
20132SOL     OW60973   2.248   1.779   3.687 -0.4722  0.5257 -0.4310
20132SOL    HW160974   2.192   1.733   3.749  0.4169 -1.1065 -0.7726
20132SOL    HW260975   2.325   1.805   3.739  0.3382 -0.9685 -0.8304
20133SOL     OW60976   1.510   8.684   7.389 -0.0263  0.3090 -0.6402
20133SOL    HW160977   1.522   8.634   7.308 -0.3385  0.1836 -0.6104
20133SOL    HW260978   1.442   8.637   7.437  0.8884 -0.2209  0.1840
20134SOL     OW60979   9.464   1.925   8.233  0.2286 -0.2221  0.3269
20134SOL    HW160980   9.489   1.952   8.144 -2.6854 -1.1416 -0.8900
20134SOL    HW260981   9.460   1.829   8.228  1.7254 -0.4174  2.0093
20135SOL     OW60982   9.179   9.804   3.160 -0.1670  0.0522 -0.2467
20135SOL    HW160983   9.174   9.789   3.254  0.7488  1.9208  0.1278
20135SOL    HW260984   9.092   9.780   3.128 -0.3138 -1.1696  0.9621
20136SOL     OW60985   1.998   1.497   8.744  0.1221  0.0233 -0.0926
20136SOL    HW160986   1.958   1.583   8.727 -0.2310  0.0069  0.6485
20136SOL    HW260987   1.929   1.434   8.724  0.9213 -0.2189 -2.4240
20137SOL     OW60988   6.911   9.831   9.684  0.4188  0.1226  0.1051
20137SOL    HW160989   6.963   9.787   9.751  0.8183  1.3321  0.6157
20137SOL    HW260990   6.839   9.871   9.732  0.2171  0.2537 -0.3021
20138SOL     OW60991   4.527   2.730   3.280 -0.3682  0.4899  0.3753
20138SOL    HW160992   4.603   2.783   3.303  0.4448 -0.5150  0.0288
20138SOL    HW260993   4.548   2.642   3.311 -0.7066 -0.1405 -1.1071
20139SOL     OW60994   9.804   9.086   9.431  0.0455  0.3566 -0.0571
20139SOL    HW160995   9.846   9.171   9.421 -0.9767  0.8468 -0.3419
20139SOL    HW260996   9.850   9.044   9.504  0.5745  1.1416  0.0657
20140SOL     OW60997   0.406   2.444   5.387  0.3903 -0.3679 -0.0464
20140SOL    HW160998   0.328   2.437   5.332  1.1676 -2.5826 -0.9704
20140SOL    HW260999   0.452   2.521   5.354 -0.3852 -0.2359 -0.8498
20141SOL     OW61000   3.414   0.113   0.695 -0.6926 -0.4297 -0.1795
20141SOL    HW161001   3.404   0.206   0.715 -0.3010 -0.2589 -0.7714
20141SOL    HW261002   3.399   0.107   0.601  0.7163 -0.7576 -0.3899
20142SOL     OW61003   3.681   7.061   7.734 -0.2689  0.2260 -0.2062
20142SOL    HW161004   3.712   7.134   7.789 -0.7462 -0.0661  0.4654
20142SOL    HW261005   3.586   7.071   7.733 -0.2963 -0.0728 -0.5715
20143SOL     OW61006   4.291   5.818   6.035 -0.3215  0.3069 -0.0336
20143SOL    HW161007   4.276   5.732   6.076 -0.0189  0.5910  0.6886
20143SOL    HW261008   4.344   5.866   6.098 -2.4640  1.8932  0.6684
20144SOL     OW61009   5.453   9.646   3.867 -0.2591  0.2165  0.1788
20144SOL    HW161010   5.416   9.734   3.878 -1.9835 -0.2601 -1.4860
20144SOL    HW261011   5.432   9.622   3.777  0.9502 -1.5839  0.3318
20145SOL     OW61012   6.540   8.687   1.821 -0.2149 -1.1036 -0.7602
20145SOL    HW161013   6.465   8.698   1.880 -0.2139  0.5424 -1.0138
20145SOL    HW261014   6.502   8.675   1.735 -0.2349  0.5428 -1.0191
20146SOL     OW61015   0.776   6.694   2.429 -0.5862 -0.5409 -0.5560
20146SOL    HW161016   0.765   6.702   2.524  0.4920  0.2665 -0.4866
20146SOL    HW261017   0.848   6.632   2.418  1.0448  1.3100 -0.7538
20147SOL     OW61018   8.886   1.535   7.833 -0.4205 -0.0363 -0.5973
20147SOL    HW161019   8.929   1.574   7.909 -0.6795 -2.5121  0.9103
20147SOL    HW261020   8.956   1.484   7.790 -1.3159 -2.7078  0.9091
20148SOL     OW61021   0.864   5.298   6.627  0.0612 -0.0825  0.4109
20148SOL    HW161022   0.844   5.204   6.622  2.6903 -0.6808  0.1596
20148SOL    HW261023   0.959   5.303   6.630  0.0509  2.6640 -0.8044
20149SOL     OW61024   9.204   8.261   5.137 -0.0192 -0.6594 -0.7195
20149SOL    HW161025   9.195   8.265   5.042  0.9524  1.4060 -0.7841
20149SOL    HW261026   9.122   8.299   5.170  0.0936 -0.3581 -0.7787
20150SOL     OW61027   2.174   6.187   3.733  0.0529  0.9201  0.3287
20150SOL    HW161028   2.173   6.233   3.649  1.4025  0.8990  0.2761
20150SOL    HW261029   2.241   6.119   3.723 -1.2766 -0.5146  0.7064
20151SOL     OW61030   5.437   5.207   4.970 -0.0782 -0.0707 -0.6654
20151SOL    HW161031   5.438   5.230   5.063  0.2551 -0.0177 -0.6815
20151SOL    HW261032   5.525   5.175   4.952 -1.0942 -3.5030 -0.1393
20152SOL     OW61033   5.365   0.440   2.543  0.0536 -0.2528  0.5962
20152SOL    HW161034   5.395   0.445   2.633 -0.2174  0.3126  0.6557
20152SOL    HW261035   5.444   0.422   2.492  0.2056 -0.5808  0.9407
20153SOL     OW61036   2.880   6.199   9.020  0.1874 -0.1865 -0.1204
20153SOL    HW161037   2.950   6.185   9.084 -0.7855 -0.3115  0.9448
20153SOL    HW261038   2.898   6.135   8.951  1.3747  0.0920 -0.0897
20154SOL     OW61039   5.067   7.445   6.459  0.1925  0.1909  0.3524
20154SOL    HW161040   5.092   7.401   6.378  0.0265  1.6701 -0.5471
20154SOL    HW261041   4.974   7.425   6.469 -0.2585  1.4731 -0.8622
20155SOL     OW61042   3.099   0.671   2.923 -0.0524  0.2252 -0.2716
20155SOL    HW161043   3.078   0.695   3.014 -2.5728  1.7723 -1.1522
20155SOL    HW261044   3.184   0.712   2.907 -0.4710  1.6265  0.8352
20156SOL     OW61045   3.545   7.618   6.274  0.6176 -0.2284  0.3160
20156SOL    HW161046   3.457   7.640   6.242  0.2635 -1.1125  0.6603
20156SOL    HW261047   3.534   7.606   6.368  1.5100  1.6113  0.6841
20157SOL     OW61048   0.167   6.087   0.726 -0.5117 -0.0591  0.3029
20157SOL    HW161049   0.185   6.132   0.643 -0.3110 -0.4263  0.1422
20157SOL    HW261050   0.159   6.157   0.790 -0.1347  0.2072  0.0679
20158SOL     OW61051   9.718   9.320   2.051 -0.5475  0.1874 -0.1875
20158SOL    HW161052   9.687   9.346   2.138 -0.2218  1.0235 -0.3117
20158SOL    HW261053   9.640   9.291   2.005 -0.7306 -0.2186  0.3675
20159SOL     OW61054   2.390   4.079   1.902  0.2167  0.4271  0.2904
20159SOL    HW161055   2.429   4.104   1.818 -1.1514 -0.4383 -0.6453
20159SOL    HW261056   2.443   4.124   1.967  2.5230 -0.3711 -0.9091
20160SOL     OW61057   5.102   9.128   9.716  0.6401 -0.0674 -0.1292
20160SOL    HW161058   5.020   9.150   9.670  0.8245 -0.0609 -0.4595
20160SOL    HW261059   5.170   9.167   9.662  1.1105 -2.7050 -1.5940
20161SOL     OW61060   6.245   9.716   7.741 -0.0765  0.0018  0.2963
20161SOL    HW161061   6.237   9.695   7.834  0.4910 -0.1536  0.3137
20161SOL    HW261062   6.340   9.716   7.725 -0.0643  1.8727  0.1421
20162SOL     OW61063   1.178   0.078   2.857  0.2338 -0.6396  0.5851
20162SOL    HW161064   1.087   0.051   2.868  0.2955 -0.0436  3.5104
20162SOL    HW261065   1.221   0.003   2.817 -1.4541 -1.0476 -0.5646
20163SOL     OW61066   6.247   7.620   9.264  0.4852  0.2644  0.0201
20163SOL    HW161067   6.198   7.620   9.346 -0.2682  3.0238 -0.3237
20163SOL    HW261068   6.337   7.640   9.289  0.7796 -1.2887  0.3275
20164SOL     OW61069   6.653   8.207   7.183  0.2274 -0.2414  1.0084
20164SOL    HW161070   6.584   8.193   7.248 -0.9834 -2.1873 -0.5998
20164SOL    HW261071   6.682   8.119   7.159  0.9949  0.4351 -0.7002
20165SOL     OW61072   9.807   5.666   9.408  0.4229  0.7264  0.8363
20165SOL    HW161073   9.881   5.656   9.349  0.3104  0.9264  0.6608
20165SOL    HW261074   9.749   5.592   9.386 -0.6131  1.9490 -0.7699
20166SOL     OW61075   3.883   8.821   8.227  0.1913  0.0138 -0.1455
20166SOL    HW161076   3.929   8.738   8.213  0.2437  0.4138 -3.1425
20166SOL    HW261077   3.857   8.848   8.139 -0.5101  2.8041  0.8259
20167SOL     OW61078   0.759   5.992   6.848  0.0418 -0.4679 -0.0280
20167SOL    HW161079   0.665   5.995   6.829 -0.2687 -1.4050  1.1982
20167SOL    HW261080   0.786   5.906   6.817  0.9141  0.4490 -1.9833
20168SOL     OW61081   3.783   8.330   3.331 -0.2154 -0.5686 -0.3823
20168SOL    HW161082   3.733   8.374   3.262  0.3851  0.5332 -0.1303
20168SOL    HW261083   3.871   8.321   3.296 -0.2884 -1.4520 -0.3666
20169SOL     OW61084   9.933   8.621   4.365  0.2148 -0.2252 -0.2724
20169SOL    HW161085   9.918   8.702   4.317 -0.3692 -0.3059 -0.2381
20169SOL    HW261086   9.976   8.648   4.446  2.3284 -0.2024 -1.3253
20170SOL     OW61087   6.160   2.592   1.161 -0.3174 -0.8209 -0.3525
20170SOL    HW161088   6.169   2.538   1.239 -3.3203 -1.1605 -0.1515
20170SOL    HW261089   6.174   2.682   1.192  1.5368 -1.1498 -0.0947
20171SOL     OW61090   6.989   4.805   3.766 -0.3288 -0.9579 -0.4490
20171SOL    HW161091   6.935   4.880   3.741 -0.3237 -0.7054  0.2676
20171SOL    HW261092   7.064   4.843   3.812  0.8708 -1.2425 -2.0559
20172SOL     OW61093   6.673   5.637   6.755  0.3908 -0.6711 -0.8341
20172SOL    HW161094   6.738   5.607   6.818  0.8810 -0.2162 -1.1121
20172SOL    HW261095   6.706   5.605   6.670  0.9270  0.6380 -1.1364
20173SOL     OW61096   6.184   9.328   4.236  0.4150 -0.5957 -0.1264
20173SOL    HW161097   6.207   9.408   4.284 -2.0356  0.1937 -0.1355
20173SOL    HW261098   6.234   9.333   4.155 -1.6179  2.4079 -1.3888
20174SOL     OW61099   4.956   7.946   1.818  0.3851 -0.7326  0.2935
20174SOL    HW161100   4.882   7.999   1.790 -0.9109 -2.0791  0.9710
20174SOL    HW261101   4.979   7.980   1.905  1.4748  0.5561 -0.4766
20175SOL     OW61102   4.080   7.768   8.465 -0.0510 -0.3862  0.0346
20175SOL    HW161103   4.007   7.801   8.413 -0.0426 -1.3709 -0.6152
20175SOL    HW261104   4.105   7.843   8.520 -0.4158  0.5099 -0.9738
20176SOL     OW61105   0.442   0.142   3.863 -0.2175  0.7123  0.3772
20176SOL    HW161106   0.471   0.086   3.792 -0.4127  1.7924 -0.5808
20176SOL    HW261107   0.347   0.150   3.850 -0.5481 -0.4665  1.7897
20177SOL     OW61108   2.846   9.957   8.160  0.4164 -0.5442 -0.3260
20177SOL    HW161109   2.779   9.895   8.188 -0.3940  0.6636  0.5332
20177SOL    HW261110   2.913   9.954   8.229 -0.5086  0.8226  0.6758
20178SOL     OW61111   0.984   0.705   8.585  0.4546 -0.6411 -1.2818
20178SOL    HW161112   0.913   0.696   8.522  0.6430 -0.5858 -1.5057
20178SOL    HW261113   0.999   0.800   8.591 -0.5217 -0.5265 -0.0642
20179SOL     OW61114   3.932   0.462   3.050  0.0931  0.0669  0.3799
20179SOL    HW161115   3.947   0.467   2.956 -0.3844 -0.9721  0.2393
20179SOL    HW261116   3.909   0.551   3.075  2.1519  0.8151 -0.1260
20180SOL     OW61117   6.071   4.819   6.734 -0.1945  0.8355 -0.0179
20180SOL    HW161118   6.127   4.773   6.797 -0.1344  1.4434  0.3843
20180SOL    HW261119   5.982   4.794   6.759 -0.1717  1.0857  0.3261
20181SOL     OW61120   2.359   5.987   0.073 -0.2251  0.2318  0.3173
20181SOL    HW161121   2.332   6.008  -0.017 -0.2389  0.6267  0.4137
20181SOL    HW261122   2.419   6.058   0.097 -2.4810  1.7820  1.6806
20182SOL     OW61123   7.593   5.470   7.752 -0.3380 -0.1208 -0.2037
20182SOL    HW161124   7.511   5.507   7.719  1.0408  1.5476 -2.0271
20182SOL    HW261125   7.659   5.536   7.731  1.2412 -0.5188  2.9587
20183SOL     OW61126   3.038   9.263   0.215 -0.0219  0.2138 -0.2791
20183SOL    HW161127   3.030   9.214   0.133  0.3760 -0.0892 -0.1408
20183SOL    HW261128   2.948   9.278   0.243 -0.1821  1.0105 -1.1779
20184SOL     OW61129   2.347   8.709   5.154  0.7027 -0.1925 -0.3849
20184SOL    HW161130   2.269   8.663   5.124  0.2694 -0.2438  0.7372
20184SOL    HW261131   2.390   8.741   5.075 -1.3664  1.3154 -0.9591
20185SOL     OW61132   8.737   0.681   3.438  0.1063  0.0277  0.6551
20185SOL    HW161133   8.690   0.606   3.402 -0.0489  0.1340  0.6371
20185SOL    HW261134   8.692   0.701   3.520  0.4792 -0.2344  0.9292
20186SOL     OW61135   9.902   6.751   1.600 -0.3821 -0.0601 -0.0767
20186SOL    HW161136   9.815   6.750   1.640  0.4056 -2.3452  1.7922
20186SOL    HW261137   9.963   6.750   1.674  1.3276  2.1630 -1.3216
20187SOL     OW61138   9.848   8.665   5.341 -0.0970  0.2916  0.3561
20187SOL    HW161139   9.913   8.732   5.318 -0.3487  0.3172 -0.2967
20187SOL    HW261140   9.900   8.586   5.358  0.2533  0.7732  1.6906
20188SOL     OW61141   3.264   4.549   6.447  0.4987 -0.0974 -0.5283
20188SOL    HW161142   3.247   4.579   6.358 -1.5832 -0.3132 -0.2408
20188SOL    HW261143   3.307   4.464   6.436 -1.4865 -1.0580 -1.3799
20189SOL     OW61144   3.027   2.179   7.312  0.2941  0.0658 -0.0228
20189SOL    HW161145   2.975   2.114   7.264 -3.3512  2.8689 -0.2489
20189SOL    HW261146   3.025   2.148   7.403 -0.7083 -0.5546 -0.2366
20190SOL     OW61147   5.729   4.827   7.872  0.1812 -0.1743  0.4815
20190SOL    HW161148   5.717   4.848   7.965 -1.3982  0.0609  0.2652
20190SOL    HW261149   5.665   4.757   7.856 -1.3887  1.5065 -0.9717
20191SOL     OW61150   8.344   3.598   8.292 -0.1196  0.2834  0.4022
20191SOL    HW161151   8.367   3.689   8.311  0.3557  0.8364 -2.3969
20191SOL    HW261152   8.369   3.550   8.371 -0.0443  2.4994  1.8257
20192SOL     OW61153   1.558   1.985   7.115 -0.0927 -0.2292 -0.1180
20192SOL    HW161154   1.607   2.048   7.062 -1.1417  0.3049 -0.4790
20192SOL    HW261155   1.582   1.900   7.079  1.2182 -0.0405  0.2685
20193SOL     OW61156   1.294   9.007   9.857  0.1142 -0.1515  0.2273
20193SOL    HW161157   1.308   9.056   9.937  0.6174 -2.1302  1.4174
20193SOL    HW261158   1.274   8.918   9.886 -0.7815 -0.6880 -1.8196
20194SOL     OW61159   8.105   1.260   2.089  0.1816  0.4577  0.1480
20194SOL    HW161160   8.149   1.344   2.075 -0.3308  0.5889 -0.7065
20194SOL    HW261161   8.177   1.196   2.091  0.4575  0.7088 -0.9429
20195SOL     OW61162   5.345   2.030   0.519 -0.1761  0.1025 -0.1954
20195SOL    HW161163   5.289   1.956   0.544 -0.2206 -0.1193 -0.9046
20195SOL    HW261164   5.287   2.086   0.467  0.2158 -0.0600 -0.8169
20196SOL     OW61165   8.781   2.415   1.360 -0.4553  0.4272  0.0206
20196SOL    HW161166   8.689   2.435   1.345 -0.5354  0.1953  0.1916
20196SOL    HW261167   8.828   2.491   1.327 -0.7847  1.2185  1.2708
20197SOL     OW61168   4.116   8.731   8.487 -0.4496 -0.0505  0.2594
20197SOL    HW161169   4.100   8.820   8.455  1.0178  0.6859  1.4492
20197SOL    HW261170   4.029   8.695   8.502 -1.1112  0.5294 -1.9123
20198SOL     OW61171   5.740   3.513   2.023  0.1362 -0.0253 -0.2399
20198SOL    HW161172   5.705   3.460   1.951 -2.1893  0.4441  0.4364
20198SOL    HW261173   5.671   3.577   2.041  1.0294  0.4598  1.8004
20199SOL     OW61174   3.204   5.121   5.424  0.1724 -0.2496  0.1090
20199SOL    HW161175   3.135   5.150   5.484  0.7077 -0.1584  0.6940
20199SOL    HW261176   3.245   5.202   5.393  1.5994 -0.3264  1.6647
20200SOL     OW61177   2.501   6.683   0.510  0.3913 -0.4618  0.1691
20200SOL    HW161178   2.464   6.767   0.480  0.7990 -0.3867 -0.1282
20200SOL    HW261179   2.463   6.618   0.451 -0.3013 -0.5547  0.6980
20201SOL     OW61180   6.849   1.757   3.864 -0.0633  0.2079  0.1840
20201SOL    HW161181   6.805   1.781   3.946 -0.1289 -1.6664  0.7510
20201SOL    HW261182   6.912   1.827   3.849 -0.8173  1.1554  1.2333
20202SOL     OW61183   7.351   2.855   2.435  0.4456 -0.0220 -0.0530
20202SOL    HW161184   7.396   2.785   2.389 -0.8874 -1.0893  0.1900
20202SOL    HW261185   7.400   2.868   2.516  0.0451 -1.5144  0.4509
20203SOL     OW61186   3.015   7.427   0.754  0.4335 -0.7074 -0.1470
20203SOL    HW161187   3.039   7.339   0.727  0.0920 -0.0670 -2.8987
20203SOL    HW261188   2.921   7.423   0.770  0.4016 -0.8450 -0.3617
20204SOL     OW61189   7.826   8.005   1.024  0.4927 -0.1342  0.0464
20204SOL    HW161190   7.757   8.071   1.028 -0.8071 -1.5102  2.3088
20204SOL    HW261191   7.893   8.038   1.085  0.5102 -0.2145  0.0704
20205SOL     OW61192   9.812   7.026   4.350  0.2656 -0.0705 -0.2489
20205SOL    HW161193   9.899   6.987   4.342  1.0977  1.5533  0.5577
20205SOL    HW261194   9.809   7.093   4.282 -0.3034 -0.0279 -0.1840
20206SOL     OW61195   9.832   3.777   3.083  0.4024 -0.7646 -0.0540
20206SOL    HW161196   9.751   3.727   3.092  0.0581 -0.4782 -1.3256
20206SOL    HW261197   9.826   3.844   3.151 -0.1151 -1.1595  0.2981
20207SOL     OW61198   3.059   2.872   8.316  0.0688  0.2571  0.1456
20207SOL    HW161199   3.154   2.866   8.319  0.0146 -0.8817  0.0103
20207SOL    HW261200   3.038   2.880   8.223 -0.0196 -1.1228  0.0140
20208SOL     OW61201   1.155   7.861   4.390  0.6223 -0.2484 -0.2642
20208SOL    HW161202   1.248   7.884   4.381  0.8217 -0.6655  0.6177
20208SOL    HW261203   1.116   7.934   4.437  0.7315 -0.5564  0.3119
20209SOL     OW61204   7.787   5.188   4.892  0.5892  0.3919  0.0359
20209SOL    HW161205   7.806   5.281   4.883 -0.0336  0.6274  1.0314
20209SOL    HW261206   7.870   5.149   4.922  0.5595  0.8029  0.6680
20210SOL     OW61207   1.660   0.530   3.087 -0.4325 -0.4864  0.0657
20210SOL    HW161208   1.622   0.462   3.033 -3.1335 -0.1858  1.4528
20210SOL    HW261209   1.633   0.509   3.176  1.3376  0.6901  0.9528
20211SOL     OW61210   9.396   1.563   5.641  0.1384  0.1766 -0.8295
20211SOL    HW161211   9.312   1.541   5.601  0.4263 -1.2933 -0.6837
20211SOL    HW261212   9.427   1.639   5.591 -2.5814  2.7269  0.9845
20212SOL     OW61213   5.641   0.655   8.712  0.5579 -0.0676  0.2912
20212SOL    HW161214   5.646   0.620   8.623  1.4336 -0.5275  0.5097
20212SOL    HW261215   5.556   0.625   8.745  1.0433 -1.5617  0.2776
20213SOL     OW61216   6.873   1.457   2.360  0.7843  0.3630 -0.3072
20213SOL    HW161217   6.786   1.425   2.336  0.3826 -0.1959  1.7141
20213SOL    HW261218   6.856   1.534   2.415  1.5076 -0.4029  1.0310
20214SOL     OW61219   9.871   7.169   4.668 -0.0721 -0.6762 -0.3039
20214SOL    HW161220   9.890   7.137   4.756 -1.2185 -0.2053  0.1377
20214SOL    HW261221   9.846   7.091   4.619 -1.8679 -0.6612  0.4919
20215SOL     OW61222   5.603   9.967   1.001  0.4096 -0.0796 -0.7162
20215SOL    HW161223   5.517   9.991   1.036  1.0552 -2.2775  2.9649
20215SOL    HW261224   5.600   9.872   0.991  2.0706 -0.0796 -1.5905
20216SOL     OW61225   7.859   4.350   5.223 -0.1114 -0.5348 -0.2498
20216SOL    HW161226   7.804   4.307   5.289  1.4935 -3.1214 -0.4350
20216SOL    HW261227   7.798   4.374   5.153 -1.3550 -0.9433  0.6507
20217SOL     OW61228   8.747   9.646   6.893  0.3173  0.3698 -0.2902
20217SOL    HW161229   8.840   9.626   6.905 -0.0631 -1.8873 -0.6431
20217SOL    HW261230   8.704   9.606   6.968 -0.3823  1.5758 -0.0199
20218SOL     OW61231   3.344   9.954   1.783 -0.2073  0.5036 -0.0443
20218SOL    HW161232   3.414   9.890   1.795 -1.4215 -1.0025 -0.5786
20218SOL    HW261233   3.363   9.996   1.699  0.4002  0.5866  0.1337
20219SOL     OW61234   8.075   0.472   5.577  0.4642  0.0785  0.2045
20219SOL    HW161235   8.131   0.427   5.641 -0.4015  2.3779  2.7706
20219SOL    HW261236   8.085   0.565   5.597 -1.3629  0.7842 -1.7770
20220SOL     OW61237   2.021   7.067   3.893 -0.3323 -0.0927 -0.5628
20220SOL    HW161238   2.048   7.133   3.956  0.3979 -0.8149 -0.0999
20220SOL    HW261239   2.041   6.983   3.935 -0.7645 -0.6041 -1.3432
20221SOL     OW61240   3.004   8.757   3.283  0.5806 -0.0012 -0.1021
20221SOL    HW161241   2.943   8.745   3.355  0.1513  1.2896 -0.2365
20221SOL    HW261242   3.022   8.668   3.252  1.2644 -0.6237  1.9675
20222SOL     OW61243   5.158   7.182   5.957  0.5226 -1.0925 -0.2959
20222SOL    HW161244   5.185   7.249   5.895 -0.0659 -0.6502 -0.0907
20222SOL    HW261245   5.166   7.099   5.910 -0.3134 -0.7279 -1.1098
20223SOL     OW61246   3.727   6.871   8.761  0.3460 -0.1069 -0.5826
20223SOL    HW161247   3.736   6.952   8.810 -3.5539 -0.9135  1.9162
20223SOL    HW261248   3.758   6.892   8.673  4.0313  2.5629  1.0814
20224SOL     OW61249   5.965   1.470   1.619  0.4089 -0.1795  0.3293
20224SOL    HW161250   5.876   1.469   1.656 -0.6277  0.4948 -1.9832
20224SOL    HW261251   5.995   1.560   1.631  0.0552  0.0505 -0.4561
20225SOL     OW61252   2.254   6.625   8.095  0.0174 -0.4332  0.7322
20225SOL    HW161253   2.278   6.536   8.122  1.4926 -0.6798 -1.2506
20225SOL    HW261254   2.295   6.682   8.161  1.9922 -1.0939  0.1299
20226SOL     OW61255   6.957   6.577   5.353  0.1416  0.4004 -0.0629
20226SOL    HW161256   7.012   6.655   5.357 -0.9242  1.2274 -0.7587
20226SOL    HW261257   6.880   6.599   5.405  0.6078 -0.8874  1.2410
20227SOL     OW61258   5.225   3.281   5.022 -0.1201 -0.5302 -0.2290
20227SOL    HW161259   5.151   3.323   5.066  0.4362  1.8646 -1.4365
20227SOL    HW261260   5.301   3.301   5.077  0.7065  3.1129 -2.3785
20228SOL     OW61261   8.731   1.630   0.552 -0.7484 -0.7130  0.3163
20228SOL    HW161262   8.669   1.702   0.541  1.1428  0.8465 -0.8935
20228SOL    HW261263   8.719   1.576   0.474 -2.1199 -1.7088  1.1898
20229SOL     OW61264   1.108   0.019   3.389 -0.1377  0.3654  0.3090
20229SOL    HW161265   1.146   0.048   3.305  0.4723  0.6878  0.6879
20229SOL    HW261266   1.063   0.096   3.423 -1.5570 -0.1385 -0.3496
20230SOL     OW61267   1.483   7.623   4.385  0.0279 -0.0549  0.1684
20230SOL    HW161268   1.565   7.607   4.431  0.3148 -0.5904 -0.5171
20230SOL    HW261269   1.475   7.719   4.383  0.7867  0.0096 -0.0216
20231SOL     OW61270   8.975   2.870   3.090  0.2347  0.0751  0.4864
20231SOL    HW161271   9.003   2.959   3.108 -0.7263  0.1825  1.5295
20231SOL    HW261272   8.945   2.872   2.999 -0.1491  0.9057  0.6280
20232SOL     OW61273   4.391   8.095   1.832  0.6279  0.4119 -0.1234
20232SOL    HW161274   4.441   8.171   1.863 -0.3263  0.7916  0.5329
20232SOL    HW261275   4.458   8.029   1.813  1.3645  0.6377  1.4447
20233SOL     OW61276   9.055   5.197   9.858  0.1971  0.1662 -0.2622
20233SOL    HW161277   9.038   5.114   9.901 -0.8775  0.5351  0.0611
20233SOL    HW261278   8.977   5.250   9.876  1.3155  1.6391  0.4679
20234SOL     OW61279   9.897   4.463   5.479  0.0401 -0.5331 -0.5068
20234SOL    HW161280   9.941   4.407   5.542  2.2344 -0.1741 -1.6384
20234SOL    HW261281   9.964   4.523   5.447 -1.7783  1.5050 -0.7720
20235SOL     OW61282   5.134   8.618   7.453 -0.0680 -0.1427  0.6400
20235SOL    HW161283   5.225   8.635   7.431 -0.2731 -0.1412 -0.2430
20235SOL    HW261284   5.099   8.703   7.479  0.3208 -0.2448  1.5264
20236SOL     OW61285   8.304   5.926   0.313  0.3847  0.2318 -0.5375
20236SOL    HW161286   8.217   5.932   0.275  0.5735 -2.5107 -1.6294
20236SOL    HW261287   8.354   5.996   0.270 -0.8800  0.8723 -1.0053
20237SOL     OW61288   7.520   1.902   0.861 -0.3839  0.3488  0.0995
20237SOL    HW161289   7.469   1.905   0.942 -1.2599  0.7461 -0.4471
20237SOL    HW261290   7.489   1.977   0.810 -0.4895 -0.4020 -0.9727
20238SOL     OW61291   5.070   6.137   0.085  0.2798 -0.2746  0.3178
20238SOL    HW161292   5.063   6.135   0.180  0.2538  1.7784  0.4047
20238SOL    HW261293   5.066   6.230   0.063 -1.2759 -0.7642 -1.8127
20239SOL     OW61294   9.044   9.437   7.493  0.4221 -0.1745 -0.4489
20239SOL    HW161295   8.963   9.386   7.493 -0.0013  0.4779  0.2128
20239SOL    HW261296   9.017   9.527   7.476  1.1110 -0.0844 -1.1412
20240SOL     OW61297   0.926   7.858   5.212 -0.5547  0.0968  0.4739
20240SOL    HW161298   1.010   7.858   5.167 -0.4226  2.1695  0.6503
20240SOL    HW261299   0.947   7.831   5.301  0.4649  3.3234  1.3194
20241SOL     OW61300   5.487   2.071   8.255  0.3368  0.3131 -0.2751
20241SOL    HW161301   5.424   2.035   8.317 -0.3933  0.6471 -0.8089
20241SOL    HW261302   5.523   1.994   8.210  0.2685  0.1234 -0.0069
20242SOL     OW61303   9.449   7.192   1.554  0.2781  0.1822 -0.2856
20242SOL    HW161304   9.529   7.234   1.585  0.1371  0.0305  0.2871
20242SOL    HW261305   9.452   7.104   1.591 -0.1286  0.1571 -0.3070
20243SOL     OW61306   1.465   6.796   6.715  0.3282 -0.3098 -0.2443
20243SOL    HW161307   1.393   6.841   6.759  0.3418  0.0268 -0.5655
20243SOL    HW261308   1.424   6.749   6.643  0.1656 -1.6486  0.6784
20244SOL     OW61309   3.128   0.494   6.646  0.2457  0.2911 -0.9189
20244SOL    HW161310   3.139   0.436   6.571  1.1647  0.5527 -0.9955
20244SOL    HW261311   3.216   0.522   6.668 -0.0379  0.4030  0.1246
20245SOL     OW61312   3.514   4.589   4.567 -0.2578  0.0567  0.0132
20245SOL    HW161313   3.604   4.576   4.537 -0.7232 -0.9407 -1.0529
20245SOL    HW261314   3.522   4.632   4.652  1.2065  0.4506 -0.3028
20246SOL     OW61315   7.655   4.363   7.725  0.3619 -0.2115  0.7851
20246SOL    HW161316   7.680   4.314   7.803 -0.4848 -2.1032 -0.0725
20246SOL    HW261317   7.561   4.379   7.737  0.0844 -1.0834 -0.1082
20247SOL     OW61318   2.764   0.660   8.478  0.6791  0.4544 -0.2018
20247SOL    HW161319   2.770   0.668   8.573  2.6562  0.1541 -0.2652
20247SOL    HW261320   2.854   0.659   8.448  0.0941  1.1893 -2.1638
20248SOL     OW61321   1.519   4.532   8.656 -0.1438 -0.6345  0.3730
20248SOL    HW161322   1.579   4.459   8.638  2.3766  0.9762  1.6142
20248SOL    HW261323   1.559   4.577   8.731 -2.6438  0.9237  0.8681
20249SOL     OW61324   7.269   5.345   1.827 -0.3849  0.1614 -0.4023
20249SOL    HW161325   7.232   5.261   1.798  1.3602  0.3672 -3.7651
20249SOL    HW261326   7.361   5.327   1.843 -0.1340  1.2993 -0.4831
20250SOL     OW61327   2.416   9.698   7.266 -0.3478 -0.1437 -0.7002
20250SOL    HW161328   2.502   9.660   7.283 -0.2594  0.0434 -0.7313
20250SOL    HW261329   2.354   9.627   7.284 -0.1375 -0.5619 -1.5521
20251SOL     OW61330   4.825   7.135   8.852  0.0953  0.0129 -0.4994
20251SOL    HW161331   4.860   7.209   8.901  1.3903 -1.2185  0.5366
20251SOL    HW261332   4.840   7.158   8.760  0.6825  0.9396 -0.1822
20252SOL     OW61333   1.611   6.955   4.519 -0.2308 -0.1100 -0.2893
20252SOL    HW161334   1.574   7.037   4.487 -0.9015  0.4468  1.7327
20252SOL    HW261335   1.567   6.940   4.602 -0.9201 -3.1341 -1.0979
20253SOL     OW61336   6.960   5.070   1.875 -0.1547  0.3140  0.0580
20253SOL    HW161337   6.920   5.096   1.958  1.8189 -2.7564  2.1678
20253SOL    HW261338   6.888   5.035   1.824 -1.2221  1.1311  0.9390
20254SOL     OW61339   3.048   4.715   4.769 -0.4881  0.4294  0.0909
20254SOL    HW161340   3.061   4.653   4.697  1.2117 -0.5699  1.1725
20254SOL    HW261341   2.978   4.676   4.822 -1.6521  1.1026 -0.8955
20255SOL     OW61342   7.934   3.030   5.193  0.4145  0.6208  0.2076
20255SOL    HW161343   7.842   3.003   5.199  0.3262  0.7880 -0.3456
20255SOL    HW261344   7.969   2.976   5.122  1.3684 -1.1659  1.9184
20256SOL     OW61345   8.372   9.143   2.232  0.6538  0.4056 -0.3330
20256SOL    HW161346   8.289   9.102   2.207  0.6292  0.2065  0.0738
20256SOL    HW261347   8.387   9.210   2.165  1.1010 -0.8020 -1.4755
20257SOL     OW61348   4.344   9.679   6.450  0.5271 -0.0301 -0.1390
20257SOL    HW161349   4.298   9.763   6.450 -0.0304 -0.2338 -2.9594
20257SOL    HW261350   4.390   9.677   6.534  0.1297  2.8437  0.2575
20258SOL     OW61351   3.069   2.123   0.628 -0.0346  0.1673 -0.6120
20258SOL    HW161352   3.065   2.034   0.591  1.4492  0.8538 -2.5538
20258SOL    HW261353   2.978   2.152   0.630 -0.4077 -0.9011 -1.2631
20259SOL     OW61354   6.507   7.781   3.286 -0.3620  0.0466 -0.7305
20259SOL    HW161355   6.572   7.713   3.268  1.3237  0.8388  1.8442
20259SOL    HW261356   6.554   7.847   3.337 -2.9261  1.1999  0.3427
20260SOL     OW61357   7.308   4.324   1.214  0.4960  0.0350  0.5745
20260SOL    HW161358   7.342   4.364   1.134 -2.4377  0.1192 -0.7605
20260SOL    HW261359   7.344   4.377   1.285  1.2384  1.4976 -0.8340
20261SOL     OW61360   0.436   7.304   1.891  0.1389  0.0224 -0.0243
20261SOL    HW161361   0.519   7.337   1.858 -0.1805  1.2120  0.2996
20261SOL    HW261362   0.389   7.382   1.920 -1.3242 -0.5529 -0.7265
20262SOL     OW61363   9.661   9.732   4.097  0.2363 -0.1111 -0.0625
20262SOL    HW161364   9.662   9.668   4.025 -0.8904  0.6806 -0.8041
20262SOL    HW261365   9.751   9.767   4.098  0.1592  0.2044 -1.4164
20263SOL     OW61366   1.352   4.173   4.519 -0.1340  0.4202  0.3429
20263SOL    HW161367   1.361   4.081   4.542  0.1028  0.8399  2.0761
20263SOL    HW261368   1.363   4.175   4.424 -0.4750 -1.3631  0.2362
20264SOL     OW61369   4.457   9.393   9.748  0.0729 -0.3892  0.2141
20264SOL    HW161370   4.489   9.470   9.701 -0.1521 -0.8521 -0.7200
20264SOL    HW261371   4.422   9.336   9.679 -0.2156 -1.1073  0.9433
20265SOL     OW61372   1.036   2.017   7.576 -0.2894  0.4382  0.2629
20265SOL    HW161373   1.013   2.004   7.484 -0.0935  1.7367 -0.0006
20265SOL    HW261374   1.065   1.932   7.606 -0.6282 -0.0735 -0.8048
20266SOL     OW61375   5.844   0.840   2.769 -0.1110  0.3940  0.4510
20266SOL    HW161376   5.766   0.829   2.823  0.2169 -1.1387  0.6533
20266SOL    HW261377   5.915   0.855   2.832  0.1175 -0.4498  0.3985
20267SOL     OW61378   1.356   2.796   4.828 -0.1100  0.3672  0.3584
20267SOL    HW161379   1.313   2.712   4.842  2.3826 -1.0408  0.2744
20267SOL    HW261380   1.378   2.796   4.735 -2.3154  2.3563 -0.2685
20268SOL     OW61381   8.207   1.241   3.688  0.1201 -0.6574 -0.1757
20268SOL    HW161382   8.178   1.332   3.683  0.1927 -0.5023  1.6212
20268SOL    HW261383   8.258   1.236   3.768  0.1932 -2.2778 -0.2815
20269SOL     OW61384   4.320   0.640   9.098 -0.2017 -0.0176  0.2467
20269SOL    HW161385   4.384   0.572   9.119  0.0993 -0.0346 -0.6811
20269SOL    HW261386   4.304   0.630   9.004  0.8074  1.9824 -0.1880
20270SOL     OW61387   3.947   5.623   9.068 -0.2164  0.3196 -0.0611
20270SOL    HW161388   4.032   5.632   9.109 -0.4209 -0.8722  0.6689
20270SOL    HW261389   3.935   5.529   9.056 -1.3078  0.4797 -0.4171
20271SOL     OW61390   0.373   4.921   6.456  0.2386  0.0566  0.3278
20271SOL    HW161391   0.330   4.952   6.536  0.6726  0.8022  0.2725
20271SOL    HW261392   0.341   4.980   6.388  0.9844  0.3170  0.2032
20272SOL     OW61393   0.387   5.323   0.579  0.1481  0.4941 -0.0184
20272SOL    HW161394   0.311   5.284   0.536 -0.5545  1.2887  0.4740
20272SOL    HW261395   0.438   5.249   0.610  0.1402 -0.0749 -1.3062
20273SOL     OW61396   3.375   3.314   2.508  0.0414  0.3882  0.0772
20273SOL    HW161397   3.285   3.345   2.512  0.0494  0.3367  1.2924
20273SOL    HW261398   3.368   3.218   2.503  0.0304  0.4518 -1.3375
20274SOL     OW61399   7.321   8.273   6.660 -0.4957  0.8239 -0.3499
20274SOL    HW161400   7.402   8.314   6.630  1.0481 -1.3224  0.6621
20274SOL    HW261401   7.301   8.316   6.743  0.3940  0.4220  0.0822
20275SOL     OW61402   3.298   3.927   7.897 -0.5437  0.4086  0.2349
20275SOL    HW161403   3.239   3.884   7.959  1.7326  0.5510  2.7294
20275SOL    HW261404   3.331   3.855   7.842 -2.0184  0.1506 -0.3619
20276SOL     OW61405   7.909   4.287   6.008  0.1984 -0.2208 -0.1025
20276SOL    HW161406   7.999   4.275   6.037 -0.0735 -0.7657  0.5490
20276SOL    HW261407   7.872   4.350   6.070 -0.3566 -1.3100  0.7031
20277SOL     OW61408   1.929   5.932   4.546  0.1699 -0.5444 -0.1127
20277SOL    HW161409   1.980   5.931   4.627  2.9055 -0.3954 -1.7341
20277SOL    HW261410   1.908   6.024   4.531 -0.5802 -0.5992  0.5197
20278SOL     OW61411   1.807   9.108   4.761  0.1663  0.1610  0.4114
20278SOL    HW161412   1.711   9.114   4.755  0.2032  0.5204  0.1700
20278SOL    HW261413   1.837   9.198   4.751  0.5877 -0.0754 -0.5093
20279SOL     OW61414   3.555   1.305   3.263  0.2005 -0.2974  0.1251
20279SOL    HW161415   3.579   1.383   3.312 -2.0011 -0.7485  2.0808
20279SOL    HW261416   3.512   1.338   3.184 -1.6296  0.5647  1.4109
20280SOL     OW61417   2.001   6.926   9.558 -0.2679 -0.4493 -0.3217
20280SOL    HW161418   1.939   6.955   9.491  0.0061 -0.1240 -0.4430
20280SOL    HW261419   2.085   6.922   9.511 -0.2484 -1.1720 -0.2352
20281SOL     OW61420   6.205   0.444   8.739  0.4930  0.4979  0.4451
20281SOL    HW161421   6.172   0.533   8.738  0.6765  0.5753  0.9623
20281SOL    HW261422   6.297   0.452   8.713  1.1112  0.7312  2.5325
20282SOL     OW61423   7.519   3.708   3.029 -0.1902  0.0106  0.3144
20282SOL    HW161424   7.571   3.776   3.072 -0.1098  1.1049 -1.4093
20282SOL    HW261425   7.584   3.645   2.997  0.0077  0.6729 -0.6425
20283SOL     OW61426   8.625   3.132   8.149  0.1206  1.0209 -0.3349
20283SOL    HW161427   8.588   3.076   8.217 -0.5095  1.8723  0.0422
20283SOL    HW261428   8.562   3.204   8.141  1.0729  1.8472 -0.5726
20284SOL     OW61429   4.514   6.775   0.008 -0.2664 -0.8003  0.0981
20284SOL    HW161430   4.424   6.807   0.020  0.1758  0.9070 -0.8099
20284SOL    HW261431   4.569   6.844   0.043  0.7900  0.3235 -3.3622
20285SOL     OW61432   5.179   5.039   4.786  0.4371 -0.1149 -0.2224
20285SOL    HW161433   5.183   5.120   4.837 -0.4405  0.6056 -1.2420
20285SOL    HW261434   5.266   5.000   4.794  0.2560 -0.1823  2.0301
20286SOL     OW61435   4.395   2.778   2.059 -0.3690  0.1155  0.1339
20286SOL    HW161436   4.305   2.747   2.051 -0.0196 -1.1121  0.6857
20286SOL    HW261437   4.440   2.743   1.981 -0.1640 -0.0956  0.3417
20287SOL     OW61438   0.711   2.116   9.417 -0.2249 -0.3888  0.5301
20287SOL    HW161439   0.726   2.204   9.453 -0.6281 -0.0964 -0.0096
20287SOL    HW261440   0.741   2.122   9.326 -2.1920 -0.2021 -0.1490
20288SOL     OW61441   7.817   6.241   0.095  0.8658  1.0153 -0.2510
20288SOL    HW161442   7.887   6.301   0.069 -2.2567  3.9620 -2.8302
20288SOL    HW261443   7.767   6.290   0.160 -0.2547  0.0591 -0.3699
20289SOL     OW61444   3.165   6.273   1.313  0.4872 -0.6318 -0.5627
20289SOL    HW161445   3.211   6.189   1.310 -1.1103 -1.5297 -0.6694
20289SOL    HW261446   3.138   6.282   1.405  2.6899  0.9518  0.0159
20290SOL     OW61447   5.338   4.397   6.233 -0.1258 -0.0646  0.0195
20290SOL    HW161448   5.411   4.457   6.219  0.9901 -1.1322  0.9674
20290SOL    HW261449   5.260   4.452   6.225  0.7857  1.1914 -0.6327
20291SOL     OW61450   4.655   6.124   9.255 -0.0073  0.0678 -0.6502
20291SOL    HW161451   4.684   6.064   9.324  0.6012  1.6784  0.5492
20291SOL    HW261452   4.730   6.132   9.197  0.2402  0.3495 -0.3007
20292SOL     OW61453   4.755   4.287   3.140  0.2915 -0.0676  0.2834
20292SOL    HW161454   4.706   4.213   3.103 -2.3192  1.1599  1.0295
20292SOL    HW261455   4.716   4.364   3.098  3.1058  0.9717 -0.6708
20293SOL     OW61456   4.645   0.964   9.751  0.4809 -0.2425  0.3426
20293SOL    HW161457   4.582   1.031   9.779  0.2196  0.6801 -2.2321
20293SOL    HW261458   4.719   1.013   9.718  2.2660 -1.3238  2.4698
20294SOL     OW61459   1.744   9.181   5.392  0.0710 -0.0279 -0.4705
20294SOL    HW161460   1.720   9.092   5.420 -3.0602  0.2714 -1.7011
20294SOL    HW261461   1.706   9.238   5.458  0.6822  0.4468 -0.5220
20295SOL     OW61462   0.635   4.026   2.388  0.2202  0.7180  0.2776
20295SOL    HW161463   0.710   4.083   2.369  0.6983 -0.1872 -0.6076
20295SOL    HW261464   0.635   3.961   2.318 -1.6622  0.9523 -0.0010
20296SOL     OW61465   6.670   2.418   2.011 -0.0598  0.5539 -0.5068
20296SOL    HW161466   6.727   2.346   2.035 -2.7708 -1.6697 -0.2424
20296SOL    HW261467   6.698   2.491   2.068  1.8716 -0.6766  0.2026
20297SOL     OW61468   6.494   0.044   9.417 -0.4643 -0.1563 -0.3812
20297SOL    HW161469   6.522   0.054   9.326 -2.2358 -0.9266 -1.0690
20297SOL    HW261470   6.507  -0.048   9.437  0.9253  0.2086  0.5489
20298SOL     OW61471   6.045   8.824   8.898 -0.3731 -0.5459 -0.4932
20298SOL    HW161472   6.113   8.878   8.938 -0.5451 -1.6193  1.3721
20298SOL    HW261473   6.045   8.849   8.806  0.6133  1.4810 -0.0004
20299SOL     OW61474   0.398   3.538   3.032 -0.1369  0.5295 -0.3470
20299SOL    HW161475   0.368   3.621   2.996  1.3448  1.1109 -0.3395
20299SOL    HW261476   0.356   3.532   3.118 -0.9323  0.8317 -0.7083
20300SOL     OW61477   4.101   4.924   3.677 -0.3676  0.1907 -0.4281
20300SOL    HW161478   4.193   4.899   3.683 -0.2649  0.4074 -0.9925
20300SOL    HW261479   4.103   5.014   3.643 -0.7508  0.6411  0.6936
20301SOL     OW61480   9.082   2.913   3.638  0.3804  0.2595  0.2302
20301SOL    HW161481   9.136   2.965   3.698 -0.8430  0.7519  0.9262
20301SOL    HW261482   8.994   2.947   3.648 -0.0029 -0.2072 -1.2676
20302SOL     OW61483   5.064   8.122   5.281  0.2763  0.0529  0.2612
20302SOL    HW161484   5.072   8.172   5.362  0.5105  0.6670 -0.1295
20302SOL    HW261485   5.076   8.187   5.211 -1.6976 -0.1466 -0.3064
20303SOL     OW61486   1.104   0.685   4.563  0.7404  0.0333  0.1258
20303SOL    HW161487   1.079   0.768   4.603  0.3963 -0.6512  1.3837
20303SOL    HW261488   1.121   0.706   4.471  1.1215  1.5737  0.5333
20304SOL     OW61489   7.402   6.454   0.891  0.7341 -0.6591 -0.3688
20304SOL    HW161490   7.369   6.366   0.873  2.1636 -1.1133 -0.9330
20304SOL    HW261491   7.457   6.444   0.969 -0.4960  0.1054  0.6329
20305SOL     OW61492   1.312   9.866   9.331 -0.2779  0.1834  0.1870
20305SOL    HW161493   1.289   9.953   9.296  0.6593  0.8585  1.1819
20305SOL    HW261494   1.406   9.858   9.315 -0.2058 -0.3136  0.8116
20306SOL     OW61495   4.437   0.411   7.446  0.3268  0.0707  0.2366
20306SOL    HW161496   4.484   0.446   7.522 -1.3778  1.0223  0.9198
20306SOL    HW261497   4.387   0.486   7.413 -1.8496 -1.1757  0.4874
20307SOL     OW61498   5.449   3.000   1.132  0.5873 -0.2294 -0.2262
20307SOL    HW161499   5.485   2.961   1.053  1.0019  0.0998 -0.2011
20307SOL    HW261500   5.445   3.093   1.113 -0.3386 -0.2620 -0.2601
20308SOL     OW61501   0.012   8.664   7.284  1.0756  0.2350  0.0957
20308SOL    HW161502   0.062   8.723   7.229 -0.7327  2.5776  0.7631
20308SOL    HW261503   0.052   8.672   7.371  1.9805 -1.0422 -0.1702
20309SOL     OW61504   2.564   9.829   2.353 -0.0368 -0.1510  0.1716
20309SOL    HW161505   2.525   9.916   2.365  0.3900 -0.0713  1.1178
20309SOL    HW261506   2.613   9.814   2.434  2.5923  0.1172 -1.2290
20310SOL     OW61507   1.389   6.950   9.746  0.8019  0.2253  0.1401
20310SOL    HW161508   1.326   7.021   9.743  0.9899  0.4331  0.8089
20310SOL    HW261509   1.341   6.876   9.783  1.2850  0.7873  2.0198
20311SOL     OW61510   3.585   0.250   2.366  1.2749  0.3019 -0.1081
20311SOL    HW161511   3.514   0.289   2.315 -0.3160 -2.6558 -0.3226
20311SOL    HW261512   3.640   0.325   2.390 -0.2692  2.3563 -2.4297
20312SOL     OW61513   4.296   3.348   7.096 -0.1229 -0.2412  1.0838
20312SOL    HW161514   4.320   3.425   7.147  0.5244 -1.0263  2.0202
20312SOL    HW261515   4.208   3.326   7.127 -0.8455  0.8559 -0.1258
20313SOL     OW61516   0.900   2.684   0.351  0.0106 -0.2892 -0.0483
20313SOL    HW161517   0.827   2.685   0.413 -0.6793 -2.2193 -0.7650
20313SOL    HW261518   0.957   2.756   0.380 -1.3580  0.2304  1.4966
20314SOL     OW61519   7.850   9.073   5.439  0.5820  1.3019  0.4459
20314SOL    HW161520   7.759   9.059   5.410  0.9248 -2.2485  0.6373
20314SOL    HW261521   7.898   9.095   5.359  0.2433 -1.2018 -0.5386
20315SOL     OW61522   7.174   7.412   3.910  0.2869  0.0079  0.2656
20315SOL    HW161523   7.170   7.316   3.912  3.7677 -0.2737 -0.5953
20315SOL    HW261524   7.196   7.433   3.819  1.9519  1.4406  0.9504
20316SOL     OW61525   6.222   8.097   3.342 -0.1972  0.3878 -0.0157
20316SOL    HW161526   6.236   8.003   3.328  0.5880  0.6793 -1.3154
20316SOL    HW261527   6.309   8.132   3.361 -0.3484  0.9932 -0.4185
20317SOL     OW61528   8.974   8.454   7.591 -0.5837 -0.4285 -0.2633
20317SOL    HW161529   8.898   8.458   7.649 -0.8727  0.9368 -0.7095
20317SOL    HW261530   9.049   8.470   7.648 -0.8143  0.2851 -0.1485
20318SOL     OW61531   8.104   9.301   9.447 -0.1215 -0.0950  0.3444
20318SOL    HW161532   8.137   9.211   9.455  0.2331  0.1346  1.7011
20318SOL    HW261533   8.026   9.302   9.503  1.0077  0.9532  1.9838
20319SOL     OW61534   1.562   9.132   2.215 -0.4188 -0.4453 -0.4057
20319SOL    HW161535   1.620   9.103   2.145 -0.6214 -1.7215 -0.0703
20319SOL    HW261536   1.578   9.070   2.287  0.4471  1.3563  1.0359
20320SOL     OW61537   5.658   9.178   3.344 -0.2954  0.3373 -0.1138
20320SOL    HW161538   5.702   9.236   3.406 -2.1902  1.0126  0.6693
20320SOL    HW261539   5.714   9.179   3.266  0.0596  2.7220  0.1033
20321SOL     OW61540   8.363   5.444   7.392 -0.0625 -0.5707  0.5922
20321SOL    HW161541   8.437   5.505   7.383 -1.4230  1.0379 -0.0867
20321SOL    HW261542   8.386   5.390   7.467  1.1333  0.8738  1.3148
20322SOL     OW61543   6.344   2.316   5.121  0.2787 -0.4180  0.4923
20322SOL    HW161544   6.315   2.229   5.095 -0.7853  1.2262 -4.9716
20322SOL    HW261545   6.264   2.363   5.142  0.6473 -0.0395  1.0985
20323SOL     OW61546   2.552   9.786   0.474 -0.3856 -0.2933  0.2121
20323SOL    HW161547   2.627   9.792   0.414 -0.7701  0.9172 -0.1552
20323SOL    HW261548   2.484   9.742   0.423  0.1278 -1.6357  0.6297
20324SOL     OW61549   3.418   6.332   2.559  0.4132  0.0865 -0.6579
20324SOL    HW161550   3.328   6.333   2.525 -0.2483  0.0502  0.9792
20324SOL    HW261551   3.425   6.247   2.603  0.6926  0.7319  0.5842
20325SOL     OW61552   4.422   8.829   0.679  0.5177  0.3073  0.3461
20325SOL    HW161553   4.354   8.762   0.684  0.9235 -0.1240  0.0544
20325SOL    HW261554   4.429   8.862   0.769  1.4101 -1.1283  0.8401
20326SOL     OW61555   5.793   4.935   3.087 -0.0859  0.0797  0.4213
20326SOL    HW161556   5.880   4.941   3.048 -0.2114 -0.5721  0.0307
20326SOL    HW261557   5.746   5.010   3.051 -0.1438 -0.4089 -0.5513
20327SOL     OW61558   5.541   3.147   9.748 -0.4357 -0.0916 -0.2000
20327SOL    HW161559   5.586   3.227   9.720 -1.0022  0.7471  1.1825
20327SOL    HW261560   5.459   3.148   9.699 -0.0700 -0.3072 -0.8373
20328SOL     OW61561   6.678   3.961   2.208 -0.6425 -1.0040 -0.1693
20328SOL    HW161562   6.648   4.051   2.218  1.9817 -0.2662  2.3180
20328SOL    HW261563   6.671   3.944   2.114 -0.7873  1.9441 -0.7909
20329SOL     OW61564   0.122   7.051   9.804  0.2016  0.4061  0.4420
20329SOL    HW161565   0.177   7.090   9.736  0.1129 -2.3656 -1.3771
20329SOL    HW261566   0.044   7.022   9.758  1.3847 -4.2948  0.8640
20330SOL     OW61567   1.777   2.510   1.312 -0.5676  0.3299  0.1854
20330SOL    HW161568   1.865   2.546   1.322 -1.4959  2.6860  0.5646
20330SOL    HW261569   1.752   2.532   1.222 -0.0751 -2.1383 -0.6272
20331SOL     OW61570   8.572   8.066   5.173  0.6660 -0.0809  0.0331
20331SOL    HW161571   8.536   8.144   5.215  2.6697 -0.0208  1.7510
20331SOL    HW261572   8.495   8.014   5.150 -0.6151  1.2395  1.1464
20332SOL     OW61573   1.701   1.678   2.364 -0.1635  0.0686 -0.3076
20332SOL    HW161574   1.662   1.710   2.283 -0.4199  1.0667  0.1890
20332SOL    HW261575   1.791   1.653   2.340  0.0526  1.1930 -0.7345
20333SOL     OW61576   0.284   0.863   7.432 -0.1249  0.1461 -0.4179
20333SOL    HW161577   0.330   0.781   7.446  0.4758  0.6196  0.5671
20333SOL    HW261578   0.303   0.887   7.342  0.7129 -0.1927 -0.3397
20334SOL     OW61579   1.411   7.921   0.599 -0.4793  0.5938  0.3658
20334SOL    HW161580   1.488   7.864   0.601 -1.0991 -0.2795  0.5205
20334SOL    HW261581   1.413   7.967   0.683  0.3725  1.2937 -0.0247
20335SOL     OW61582   9.679   8.408   2.678  0.1985 -0.1881  0.7008
20335SOL    HW161583   9.739   8.482   2.666 -1.7631  1.7382  2.0557
20335SOL    HW261584   9.735   8.331   2.673  2.7801  1.4757  1.7388
20336SOL     OW61585   9.826   0.048   5.488  0.0995 -0.1341 -0.2699
20336SOL    HW161586   9.871   0.132   5.494 -1.6288  0.8841 -0.6650
20336SOL    HW261587   9.735   0.071   5.468 -0.5439 -2.0845  0.1569
20337SOL     OW61588   1.560   3.210   7.594 -0.0057 -0.0964 -0.8938
20337SOL    HW161589   1.610   3.223   7.675 -1.8408 -1.9478  0.6522
20337SOL    HW261590   1.534   3.299   7.568  3.1820  0.8686 -1.3006
20338SOL     OW61591   6.422   1.396   6.987  0.5566  0.3542  0.1454
20338SOL    HW161592   6.457   1.462   6.927  2.4088  0.5309  1.3170
20338SOL    HW261593   6.456   1.421   7.072  0.3372 -1.4586  0.8159
20339SOL     OW61594   8.861   0.322   0.525  0.1904  0.1747  0.4375
20339SOL    HW161595   8.862   0.226   0.521  0.3662  0.2015 -0.3474
20339SOL    HW261596   8.859   0.349   0.433  1.7097  0.9472  0.6070
20340SOL     OW61597   6.765   2.532   1.753  0.4133  0.6500  0.0073
20340SOL    HW161598   6.701   2.603   1.755  0.0524  0.3128  1.0116
20340SOL    HW261599   6.804   2.533   1.840  0.1789 -0.5906  0.1336
20341SOL     OW61600   6.658   5.847   5.385 -0.4711  0.2766  0.4172
20341SOL    HW161601   6.665   5.930   5.433 -1.1485 -0.5003  1.9518
20341SOL    HW261602   6.748   5.816   5.376 -0.0820  1.7519 -1.3109
20342SOL     OW61603   9.875   5.079   4.366  0.4115 -0.6577 -0.3171
20342SOL    HW161604   9.878   4.994   4.410  0.1627 -0.7023 -0.3887
20342SOL    HW261605   9.785   5.110   4.378  1.0968  0.7202  1.8526
20343SOL     OW61606   4.737   6.941   1.679  0.0684 -0.2166 -0.0877
20343SOL    HW161607   4.701   7.012   1.732 -3.1004 -1.3541 -0.5056
20343SOL    HW261608   4.759   6.872   1.742  0.1790 -0.0446  0.0611
20344SOL     OW61609   6.742   6.869   3.012 -0.0138  0.1720 -0.3122
20344SOL    HW161610   6.798   6.919   2.953  0.1580  0.6041  0.2074
20344SOL    HW261611   6.800   6.806   3.055  0.2676  1.1845  0.8558
20345SOL     OW61612   5.652   3.537   4.136 -0.2319  0.1691 -0.2721
20345SOL    HW161613   5.744   3.527   4.115 -0.3993 -0.1668 -0.8568
20345SOL    HW261614   5.645   3.626   4.171  0.3125  0.1854 -0.1971
20346SOL     OW61615   2.642   7.875   5.672  0.3308  0.0159  0.4760
20346SOL    HW161616   2.615   7.907   5.758 -0.9160  1.2120 -0.3246
20346SOL    HW261617   2.677   7.788   5.689 -2.2523 -0.8381  1.8688
20347SOL     OW61618   6.161   3.927   4.996 -0.0280 -0.2456  0.2133
20347SOL    HW161619   6.174   4.021   5.005  0.3844 -0.2570 -0.2077
20347SOL    HW261620   6.075   3.910   5.035  0.2043  0.1940  0.9194
20348SOL     OW61621   1.478   8.029   6.160  0.3551  0.4935 -0.5107
20348SOL    HW161622   1.442   8.095   6.101  1.1600 -0.8590 -2.6077
20348SOL    HW261623   1.406   8.010   6.220 -0.7090  1.4942 -1.4212
20349SOL     OW61624   6.399   3.781   1.157 -0.1589 -0.4805 -0.0085
20349SOL    HW161625   6.372   3.706   1.105  1.5388 -2.0161  1.2033
20349SOL    HW261626   6.404   3.853   1.094 -1.4466 -1.4447 -1.2746
20350SOL     OW61627   8.506   4.885   1.972 -0.3797 -0.2007  0.6980
20350SOL    HW161628   8.567   4.855   2.039  0.7985  0.5769  0.0081
20350SOL    HW261629   8.533   4.838   1.892  0.1162  1.0574  0.1091
20351SOL     OW61630   3.161   8.133   0.508 -0.8108  0.5769 -0.0003
20351SOL    HW161631   3.067   8.140   0.490 -0.7958  1.8688  0.2882
20351SOL    HW261632   3.192   8.224   0.505  0.2305  0.2761  0.9476
20352SOL     OW61633   2.865   5.603   6.177 -0.3007 -0.0223  0.1676
20352SOL    HW161634   2.893   5.570   6.092 -0.7691  1.5707 -0.6582
20352SOL    HW261635   2.906   5.690   6.183 -2.5200  1.0913  0.2746
20353SOL     OW61636   5.299   2.945   0.472 -0.5520  0.2065  0.1165
20353SOL    HW161637   5.240   2.875   0.498 -1.6433  0.2186 -2.0545
20353SOL    HW261638   5.256   3.025   0.500 -0.2065  0.1043  0.9590
20354SOL     OW61639   3.423   5.803   4.718 -0.1907  0.1306 -0.2660
20354SOL    HW161640   3.428   5.748   4.640  0.4683  0.6354 -0.5967
20354SOL    HW261641   3.478   5.758   4.782  0.4926  0.4698 -0.5930
20355SOL     OW61642   5.352   3.815   5.450  0.2114 -0.2024  0.4002
20355SOL    HW161643   5.353   3.814   5.355 -0.4214  1.4389  0.3457
20355SOL    HW261644   5.443   3.833   5.475  0.4007 -0.7533  0.1201
20356SOL     OW61645   3.571   7.172   7.420 -0.3016  0.1052  0.3020
20356SOL    HW161646   3.647   7.126   7.455  1.3650  0.6217 -2.4074
20356SOL    HW261647   3.564   7.250   7.475  0.4759 -0.4498  1.2258
20357SOL     OW61648   2.379   2.876   5.260 -0.3893  0.1856 -0.6171
20357SOL    HW161649   2.364   2.845   5.170 -1.8615 -2.5026  0.4482
20357SOL    HW261650   2.291   2.889   5.295  0.1324 -0.1126  0.8549
20358SOL     OW61651   6.050   7.030   4.071  0.1927 -0.1411  0.2065
20358SOL    HW161652   6.100   6.996   4.145 -1.0917 -1.8750  0.3347
20358SOL    HW261653   6.085   6.983   3.995 -0.4211 -0.4849  0.1318
20359SOL     OW61654   0.209   5.394   6.857 -0.1352 -0.0654  0.0923
20359SOL    HW161655   0.294   5.406   6.899 -0.6842 -1.2956  1.6592
20359SOL    HW261656   0.226   5.409   6.764  1.8102 -0.3918  0.3456
20360SOL     OW61657   4.732   8.333   4.975 -0.1175 -0.4988 -0.6973
20360SOL    HW161658   4.756   8.302   4.888  0.6670 -3.4655  0.4760
20360SOL    HW261659   4.638   8.351   4.969  0.2416  1.0798 -2.5527
20361SOL     OW61660   7.611   4.413   2.911 -0.7153  0.0057  0.6700
20361SOL    HW161661   7.611   4.477   2.840 -2.0604  0.8388  1.3814
20361SOL    HW261662   7.557   4.341   2.878 -0.5754 -0.0222  0.4999
20362SOL     OW61663   3.876   5.003   9.177 -0.2343 -0.7336  0.1285
20362SOL    HW161664   3.863   5.010   9.082 -0.5174 -1.3715  0.1176
20362SOL    HW261665   3.943   4.935   9.186  2.0797  1.3823  0.2574
20363SOL     OW61666   7.079   7.169   9.252  0.0190 -0.0285  0.0903
20363SOL    HW161667   7.085   7.194   9.344 -1.1735 -1.0029  0.4628
20363SOL    HW261668   7.091   7.074   9.252  0.5682  0.0268 -0.8313
20364SOL     OW61669   1.565   9.093   8.004  0.1403  0.2546  0.3413
20364SOL    HW161670   1.614   9.154   8.060 -0.6954  1.2627  0.0008
20364SOL    HW261671   1.578   9.008   8.045  1.5094  0.6167  0.7127
20365SOL     OW61672   8.276   1.949   1.596 -0.0473 -0.0173  0.6244
20365SOL    HW161673   8.248   1.907   1.515  0.3992  0.9215 -0.0435
20365SOL    HW261674   8.210   1.924   1.660 -2.0510  1.4759 -0.7032
20366SOL     OW61675   3.187   3.090   7.095 -0.3195 -0.3132 -0.3124
20366SOL    HW161676   3.161   3.174   7.056 -2.5728 -0.9841 -0.4222
20366SOL    HW261677   3.254   3.113   7.160  1.0573  1.2248 -2.1622
20367SOL     OW61678   6.488   5.045   2.795 -0.1479  0.2132 -0.3948
20367SOL    HW161679   6.530   5.069   2.878 -2.3626  1.6095  0.4073
20367SOL    HW261680   6.408   4.998   2.821 -0.5326  0.0636 -1.7550
20368SOL     OW61681   3.537   8.213   8.717  0.2584  0.5357  0.5099
20368SOL    HW161682   3.534   8.298   8.761 -1.4082  0.8159 -0.0461
20368SOL    HW261683   3.628   8.184   8.724  0.8194  2.2939  0.8415
20369SOL     OW61684   0.300   9.948   6.644 -0.1731 -0.0529  0.0646
20369SOL    HW161685   0.361   9.883   6.677  0.8561  0.8110 -0.0811
20369SOL    HW261686   0.346   9.989   6.571 -1.3961 -0.1792 -0.8122
20370SOL     OW61687   0.378   0.161   8.797  0.2537 -0.3381  0.2972
20370SOL    HW161688   0.428   0.150   8.716  0.1596  1.0072  0.0293
20370SOL    HW261689   0.395   0.252   8.823 -3.2930  0.7388 -0.6520
20371SOL     OW61690   3.090   2.901   7.526 -0.3915 -0.0677  0.2123
20371SOL    HW161691   3.147   2.872   7.455 -0.0131  0.0398  0.4717
20371SOL    HW261692   3.033   2.967   7.486  0.3125  0.5286  0.1805
20372SOL     OW61693   1.221   9.477   8.931  0.4672  0.4392  0.2724
20372SOL    HW161694   1.241   9.457   8.840  0.7739 -1.4373  0.7055
20372SOL    HW261695   1.245   9.569   8.942  0.3264  0.7220 -1.5445
20373SOL     OW61696   7.412   0.154   6.604 -0.1343  0.0387  0.0261
20373SOL    HW161697   7.438   0.077   6.654 -0.7277 -0.6742 -0.7224
20373SOL    HW261698   7.427   0.130   6.513  1.6994  1.6057 -0.1435
20374SOL     OW61699   8.802   0.862   3.235 -0.2678  0.4829  0.1873
20374SOL    HW161700   8.769   0.806   3.304  0.7098 -0.4860 -0.1080
20374SOL    HW261701   8.732   0.862   3.169 -0.6732  0.3975  0.6098
20375SOL     OW61702   9.002   0.937   2.415 -0.4257  0.0657 -0.3555
20375SOL    HW161703   9.069   0.971   2.474  0.2708 -1.1209 -0.4246
20375SOL    HW261704   9.051   0.886   2.351 -1.3878 -0.7646 -0.4498
20376SOL     OW61705   4.431   8.941   2.842 -0.0881  0.0699 -0.2674
20376SOL    HW161706   4.360   9.002   2.823 -1.3776 -1.0464  0.6917
20376SOL    HW261707   4.441   8.890   2.762 -1.2190 -0.5486 -0.0337
20377SOL     OW61708   5.886   5.849   9.633 -0.2089  0.5154  0.0373
20377SOL    HW161709   5.934   5.853   9.716  1.2527  2.3997 -0.8161
20377SOL    HW261710   5.801   5.889   9.653  0.6061  2.1735  0.3700
20378SOL     OW61711   2.633   7.158   3.006 -0.3371  0.2919  0.2844
20378SOL    HW161712   2.725   7.130   3.012  0.0979  1.5372 -0.3877
20378SOL    HW261713   2.583   7.080   3.031  0.7971 -1.4433 -2.4120
20379SOL     OW61714   3.754   7.503   5.353  0.7999  0.6838  0.3824
20379SOL    HW161715   3.818   7.547   5.409  0.1183  3.0411 -0.5663
20379SOL    HW261716   3.755   7.553   5.272  1.5994 -2.4844 -1.7443
20380SOL     OW61717   4.077   6.132   5.030 -0.1826  0.2701 -0.0655
20380SOL    HW161718   4.029   6.135   4.948 -0.8025  0.9437  0.3146
20380SOL    HW261719   4.150   6.193   5.017 -1.0245  1.3867  0.3349
20381SOL     OW61720   4.450   9.210   3.565 -0.0929 -0.2557 -0.3437
20381SOL    HW161721   4.524   9.257   3.602  0.0172  0.4960 -1.4672
20381SOL    HW261722   4.486   9.161   3.491 -0.8989  1.2175 -1.7925
20382SOL     OW61723   4.817   1.928   6.790 -0.3916 -0.0035 -0.2943
20382SOL    HW161724   4.787   1.941   6.700 -2.5558  0.1929  0.3921
20382SOL    HW261725   4.912   1.923   6.783 -0.4217  1.1936 -2.4434
20383SOL     OW61726   9.867   8.298   9.013 -0.4447  0.1591  0.4981
20383SOL    HW161727   9.887   8.208   9.036  0.0072  0.1937  0.2360
20383SOL    HW261728   9.950   8.345   9.021 -0.3216  0.2236 -0.9413
20384SOL     OW61729   7.199   8.866   5.101  0.5051  0.0699 -0.3995
20384SOL    HW161730   7.277   8.921   5.092 -0.0331  0.6908 -1.4526
20384SOL    HW261731   7.225   8.782   5.063  1.2950 -0.3955  1.1124
20385SOL     OW61732   8.985   3.638   7.092  0.2760  0.6043 -0.3527
20385SOL    HW161733   9.011   3.591   7.171 -1.7891  0.3030  0.2171
20385SOL    HW261734   9.065   3.642   7.039  1.3937 -0.3205  1.1745
20386SOL     OW61735   7.385   0.875   3.079  0.1466 -0.3215 -0.5964
20386SOL    HW161736   7.309   0.917   3.121 -0.2796 -1.4557 -0.1844
20386SOL    HW261737   7.397   0.923   2.998 -1.3148 -0.3966 -0.8854
20387SOL     OW61738   9.594   7.086   3.402  0.4553 -0.0948  0.4499
20387SOL    HW161739   9.640   7.030   3.340  1.7061  1.2363  0.1118
20387SOL    HW261740   9.662   7.144   3.436 -0.9758  2.0626 -0.1680
20388SOL     OW61741   1.130   5.992   8.030 -0.0561  0.2158 -0.1711
20388SOL    HW161742   1.150   5.958   8.117  0.7937 -0.4378 -0.6111
20388SOL    HW261743   1.138   6.087   8.039  1.6311  0.0745  0.0872
20389SOL     OW61744   6.776   6.555   5.840  0.3083  0.2123  0.1381
20389SOL    HW161745   6.772   6.467   5.804 -2.3469  0.3019  0.0607
20389SOL    HW261746   6.736   6.611   5.774 -1.3288  0.9150  1.6308
20390SOL     OW61747   3.570   8.765   3.901 -0.2125 -0.3643  0.0815
20390SOL    HW161748   3.551   8.718   3.820  0.7976 -0.3343 -0.1905
20390SOL    HW261749   3.632   8.833   3.876  0.2814 -0.4840  0.9015
20391SOL     OW61750   2.787   8.581   3.960 -0.3786 -0.0907 -0.1642
20391SOL    HW161751   2.790   8.497   3.915  0.5209 -0.2993  0.2667
20391SOL    HW261752   2.837   8.567   4.040 -0.7882  0.6695  0.2352
20392SOL     OW61753   5.882   1.660   2.017 -0.1626  0.0489  0.5401
20392SOL    HW161754   5.852   1.656   1.926 -0.8366 -0.8590  0.7854
20392SOL    HW261755   5.913   1.572   2.036  2.6209  0.8864  0.3552
20393SOL     OW61756   5.370   1.539   4.051  0.1002 -0.3435 -0.7238
20393SOL    HW161757   5.316   1.460   4.060  0.1081 -0.0939  2.9661
20393SOL    HW261758   5.337   1.581   3.971 -2.5637 -2.1322 -0.7107
20394SOL     OW61759   2.032   3.863   8.886  0.1105 -0.6775 -0.2858
20394SOL    HW161760   2.019   3.788   8.945  1.4217 -0.5101  0.2567
20394SOL    HW261761   1.945   3.880   8.849 -0.6819 -1.0235  1.3166
20395SOL     OW61762   9.765   5.641   2.503 -0.1159 -0.4134 -0.7118
20395SOL    HW161763   9.767   5.548   2.478 -2.1499 -0.9999  1.0797
20395SOL    HW261764   9.674   5.667   2.492 -0.3669  0.3213  2.2726
20396SOL     OW61765   5.218   6.692   1.156 -0.4428 -0.6693  0.4100
20396SOL    HW161766   5.264   6.776   1.147 -0.7573 -0.4645  0.6907
20396SOL    HW261767   5.218   6.655   1.068  1.4318 -1.2984  0.6357
20397SOL     OW61768   3.831   8.731   6.093  0.6391 -0.0512  0.7082
20397SOL    HW161769   3.901   8.766   6.148  0.1786 -0.4457  1.5694
20397SOL    HW261770   3.827   8.638   6.115 -0.0658 -0.0620  0.5767
20398SOL     OW61771   7.535   6.596   7.832  0.4927 -0.9718 -0.1072
20398SOL    HW161772   7.483   6.569   7.757 -0.2141  2.0061 -0.8064
20398SOL    HW261773   7.619   6.623   7.795  0.8431 -1.3227  0.4214
20399SOL     OW61774   0.952   6.854   1.918  0.0121  0.8489  0.4498
20399SOL    HW161775   0.947   6.759   1.913 -0.6522  0.8700  0.5910
20399SOL    HW261776   0.887   6.885   1.855  2.0217  1.2506 -1.5647
20400SOL     OW61777   6.027   8.997   5.648 -0.1145 -0.6465  0.2089
20400SOL    HW161778   6.027   8.932   5.578 -3.4015 -0.6751  0.0626
20400SOL    HW261779   6.037   9.081   5.603 -1.4628 -0.7190 -0.2675
20401SOL     OW61780   3.776   1.943   6.197  0.3051 -0.1223 -0.0358
20401SOL    HW161781   3.736   1.913   6.116  1.9957  0.8690 -1.3045
20401SOL    HW261782   3.847   1.882   6.213  1.0437  0.6623 -0.2543
20402SOL     OW61783   7.526   7.503   1.578  0.0746 -0.3596  0.6090
20402SOL    HW161784   7.553   7.413   1.561  0.6800 -0.4506  1.9280
20402SOL    HW261785   7.566   7.554   1.507  1.2510 -0.8910  0.8673
20403SOL     OW61786   5.400   4.580   8.975 -0.0553 -0.5357 -0.4141
20403SOL    HW161787   5.323   4.626   9.009  0.5920 -0.1307  0.5513
20403SOL    HW261788   5.437   4.640   8.911  1.5432  0.9792  1.7850
20404SOL     OW61789   6.919   3.003   4.306 -0.1154  0.0842 -0.4866
20404SOL    HW161790   6.929   3.098   4.305  2.7969 -0.1329  0.6848
20404SOL    HW261791   6.850   2.987   4.371  1.5950  1.3115  1.7389
20405SOL     OW61792   7.001   9.959   3.695  0.2312 -0.3461  0.0820
20405SOL    HW161793   7.087   9.929   3.667  0.3375 -0.2019  0.2552
20405SOL    HW261794   6.981   9.906   3.772  0.6177  0.3321  0.6630
20406SOL     OW61795   2.087   8.530   4.622  0.2062  0.8368 -0.0224
20406SOL    HW161796   2.067   8.466   4.691  1.0142 -0.0437 -0.5891
20406SOL    HW261797   2.126   8.604   4.669 -0.1295  0.6472  0.5711
20407SOL     OW61798   8.320   5.344   2.707  0.1540  0.2770  0.0650
20407SOL    HW161799   8.344   5.253   2.720  0.5484  0.6406  2.2007
20407SOL    HW261800   8.335   5.386   2.792 -0.8888  2.1387 -0.6019
20408SOL     OW61801   8.479   5.445   9.123 -0.0368 -0.0574 -0.1318
20408SOL    HW161802   8.513   5.414   9.206  0.7494 -0.1971 -0.5007
20408SOL    HW261803   8.516   5.385   9.058 -1.1025 -0.3110 -0.5362
20409SOL     OW61804   5.443   4.640   0.111  0.0498  0.0959 -0.4387
20409SOL    HW161805   5.450   4.679   0.023  0.4844  0.5132 -0.2236
20409SOL    HW261806   5.530   4.650   0.149  0.1211 -0.9370 -0.3017
20410SOL     OW61807   6.172   3.323   3.342  0.1002  0.4806  0.5060
20410SOL    HW161808   6.123   3.396   3.381 -0.5575  0.0657  0.4710
20410SOL    HW261809   6.161   3.334   3.248 -0.4169  0.0645  0.5118
20411SOL     OW61810   4.903   0.791   4.688 -0.5926  0.8075 -0.2262
20411SOL    HW161811   4.926   0.874   4.730  3.3339 -0.1090 -0.1582
20411SOL    HW261812   4.940   0.798   4.600  0.0218 -0.8941 -0.1524
20412SOL     OW61813   7.850   5.511   1.298  0.5258 -0.2319  0.3565
20412SOL    HW161814   7.758   5.502   1.323 -0.1073  0.8417 -1.3973
20412SOL    HW261815   7.895   5.530   1.380 -1.0613  0.7028  1.0548
20413SOL     OW61816   4.814   5.469   5.584 -0.1417  0.5065 -0.2151
20413SOL    HW161817   4.877   5.456   5.513 -0.3558  0.6766 -0.4392
20413SOL    HW261818   4.815   5.564   5.599  1.6030  0.2717  1.5794
20414SOL     OW61819   8.981   3.653   4.455 -0.1810  0.0942 -0.0515
20414SOL    HW161820   8.901   3.705   4.453  1.0980  2.2229  1.0063
20414SOL    HW261821   8.995   3.632   4.547 -0.5585 -2.0418 -0.4284
20415SOL     OW61822   1.490   0.784   3.021  0.3268  0.2048 -0.3872
20415SOL    HW161823   1.549   0.709   3.023  0.7559  0.5346 -0.6359
20415SOL    HW261824   1.408   0.749   2.987  0.2139 -0.3634  0.4227
20416SOL     OW61825   2.372   8.208   5.553  0.2511  0.6085 -0.1749
20416SOL    HW161826   2.412   8.130   5.513  1.8678  2.1625 -1.7972
20416SOL    HW261827   2.446   8.267   5.568 -0.9038  1.7455  1.2784
20417SOL     OW61828   8.734   6.437   4.195 -0.4327 -0.1462  0.5264
20417SOL    HW161829   8.810   6.482   4.158 -0.2746  0.8885  2.0326
20417SOL    HW261830   8.673   6.428   4.122  0.7942 -0.2616 -0.5101
20418SOL     OW61831   2.958   2.019   1.803  0.3221  0.1553 -0.2903
20418SOL    HW161832   2.928   1.947   1.748  3.4155  0.7837 -3.1523
20418SOL    HW261833   2.992   2.084   1.741  2.4909  1.7133  2.2996
20419SOL     OW61834   8.199   6.666   1.812  0.5881  0.1672  0.3233
20419SOL    HW161835   8.208   6.603   1.740  1.8443  2.2242 -1.4206
20419SOL    HW261836   8.288   6.695   1.831  0.2386  0.0248  2.4531
20420SOL     OW61837   9.671   3.123   4.612  0.3735 -0.0123  0.8015
20420SOL    HW161838   9.739   3.139   4.677  0.0840  0.9967  0.8655
20420SOL    HW261839   9.686   3.033   4.583  2.1032  0.3846  0.3843
20421SOL     OW61840   8.672   1.289   4.741 -0.3410 -0.0194 -0.3952
20421SOL    HW161841   8.686   1.364   4.683  0.4118  1.5076  1.6355
20421SOL    HW261842   8.753   1.282   4.791 -1.2499 -0.7225  1.0475
20422SOL     OW61843   9.472   8.865   2.530 -0.0197  0.3336  0.4394
20422SOL    HW161844   9.543   8.928   2.542  0.0950  0.3998 -0.5506
20422SOL    HW261845   9.433   8.887   2.446 -1.1119  0.1840  0.8854
20423SOL     OW61846   3.544   9.289   1.567  0.2604 -0.3330 -0.3901
20423SOL    HW161847   3.542   9.199   1.601  2.3226 -1.1204 -2.0925
20423SOL    HW261848   3.532   9.279   1.472 -0.7692  1.3447 -0.4793
20424SOL     OW61849   0.132   9.013   9.467 -0.1781  0.2870 -0.4321
20424SOL    HW161850   0.143   9.108   9.463  0.9291  0.1304 -1.9874
20424SOL    HW261851   0.159   8.982   9.381  1.9836 -1.6670  0.8296
20425SOL     OW61852   5.568   1.341   2.242  0.4652 -0.0917 -0.6047
20425SOL    HW161853   5.563   1.265   2.301 -1.3157  1.1551  0.9824
20425SOL    HW261854   5.652   1.381   2.262 -0.5271  0.9290  2.0523
20426SOL     OW61855   6.132   1.846   5.120 -0.6269  0.6603  0.6958
20426SOL    HW161856   6.155   1.927   5.073 -2.5305 -0.1147 -1.8048
20426SOL    HW261857   6.041   1.830   5.096 -0.1546 -2.5118  0.7016
20427SOL     OW61858   4.940   7.135   4.044 -0.1212 -0.3487  0.2734
20427SOL    HW161859   4.934   7.064   4.108  0.0605  0.2924  1.0122
20427SOL    HW261860   4.856   7.131   3.997  0.3261 -1.7705 -0.4950
20428SOL     OW61861   8.084   7.587   6.632  0.1738  0.4818 -0.0180
20428SOL    HW161862   8.086   7.598   6.727  0.5451  1.8864 -0.1594
20428SOL    HW261863   8.148   7.651   6.599 -1.1139  1.1844 -1.2835
20429SOL     OW61864   7.848   1.098   8.270  0.2188  0.5776 -0.7272
20429SOL    HW161865   7.934   1.139   8.275  0.1169  0.6693  1.1121
20429SOL    HW261866   7.860   1.013   8.311  0.0597 -0.6749 -3.0966
20430SOL     OW61867   3.468   1.428   7.047  0.8720 -0.0321  0.3969
20430SOL    HW161868   3.471   1.508   7.098 -0.6094  0.7178 -0.6223
20430SOL    HW261869   3.380   1.425   7.011  1.5321 -1.0497 -1.2875
20431SOL     OW61870   6.733   9.195   6.598 -0.2473 -0.2350  0.6924
20431SOL    HW161871   6.649   9.217   6.556  0.9720  2.9719 -0.3902
20431SOL    HW261872   6.737   9.254   6.674  0.1835 -1.8327  1.9651
20432SOL     OW61873   9.566   5.157   7.245  0.0895  0.0982 -0.0818
20432SOL    HW161874   9.481   5.160   7.201 -0.0648 -0.2189  0.1884
20432SOL    HW261875   9.567   5.235   7.301  1.4145  2.0878 -2.6581
20433SOL     OW61876   1.297   9.293   1.091  0.6697 -0.7468 -0.3451
20433SOL    HW161877   1.340   9.344   1.023 -1.0500  0.8766 -0.2843
20433SOL    HW261878   1.357   9.296   1.165  1.5730 -0.6738 -1.0705
20434SOL     OW61879   4.324   2.560   9.498 -0.4037  0.2313  0.1287
20434SOL    HW161880   4.369   2.622   9.555 -0.1898  0.0981  0.1042
20434SOL    HW261881   4.372   2.563   9.415 -0.7272  0.4419 -0.0556
20435SOL     OW61882   8.250   8.583   9.435  0.1881 -0.4418  0.6285
20435SOL    HW161883   8.189   8.615   9.501  1.5077  2.5439  0.5565
20435SOL    HW261884   8.195   8.566   9.358 -0.7661  0.8354  0.9921
20436SOL     OW61885   4.365   8.161   5.426  0.0244 -0.0649 -0.2783
20436SOL    HW161886   4.355   8.256   5.437  0.3090 -0.3246  3.7677
20436SOL    HW261887   4.459   8.147   5.423 -0.0133 -0.2527 -0.6601
20437SOL     OW61888   0.137   0.350   7.026  0.5954  0.3075 -0.8384
20437SOL    HW161889   0.161   0.275   7.081 -0.7507 -0.0369 -0.6758
20437SOL    HW261890   0.200   0.418   7.049  1.1321 -0.4031 -0.1471
20438SOL     OW61891   7.793   7.657   9.819 -0.0355 -0.2462 -0.2899
20438SOL    HW161892   7.821   7.690   9.734  0.3286 -0.9938 -0.4725
20438SOL    HW261893   7.781   7.563   9.806 -2.2316 -0.0500 -0.0924
20439SOL     OW61894   0.228   2.251   2.376  0.4015  0.3867  0.2244
20439SOL    HW161895   0.299   2.192   2.349 -0.1546  0.2626 -1.0518
20439SOL    HW261896   0.172   2.258   2.298 -0.3160  1.4684  0.8146
20440SOL     OW61897   4.927   7.149   8.270 -0.3082  0.0854  0.2647
20440SOL    HW161898   4.981   7.123   8.345  0.8859 -1.4787 -1.0716
20440SOL    HW261899   4.878   7.070   8.247 -0.6053  0.5295 -0.6464
20441SOL     OW61900   5.292   4.872   0.577 -0.3668 -0.2600 -0.0681
20441SOL    HW161901   5.370   4.881   0.523  0.1943  2.2759  1.0422
20441SOL    HW261902   5.324   4.842   0.662 -0.9492 -1.6847 -0.3115
20442SOL     OW61903   9.555   4.506   8.607  0.2832  0.3189 -0.1900
20442SOL    HW161904   9.518   4.581   8.561  2.4716  1.5499 -0.0947
20442SOL    HW261905   9.563   4.438   8.540  0.9092  1.1620 -0.9989
20443SOL     OW61906   9.104   2.546   1.928 -0.5668 -0.5762 -0.6334
20443SOL    HW161907   9.054   2.475   1.888 -0.5713 -1.5174  0.9875
20443SOL    HW261908   9.052   2.573   2.003  0.6615 -0.6208  0.2632
20444SOL     OW61909   5.578   2.539   5.780 -0.3893 -0.5392 -0.2632
20444SOL    HW161910   5.656   2.585   5.751 -1.1865  0.1097 -1.4465
20444SOL    HW261911   5.595   2.447   5.761  0.5743 -0.5656  0.6552
20445SOL     OW61912   1.847   5.445   9.373  0.0410  0.1569 -0.6929
20445SOL    HW161913   1.938   5.419   9.383  0.0430 -0.2576 -1.6517
20445SOL    HW261914   1.851   5.532   9.332  0.0208  1.3965  1.7523
20446SOL     OW61915   5.707   6.586   5.857 -0.3652 -0.3215 -0.2375
20446SOL    HW161916   5.791   6.613   5.893  0.0825  0.7720 -1.9914
20446SOL    HW261917   5.649   6.662   5.872 -0.2685  0.0104 -1.4038
20447SOL     OW61918   5.180   2.832   4.787 -0.1436  0.4472 -0.4637
20447SOL    HW161919   5.135   2.875   4.715 -0.1676  1.9824  0.4166
20447SOL    HW261920   5.110   2.797   4.842 -0.1978  0.8364 -0.2795
20448SOL     OW61921   6.375   3.927   9.991 -0.1813  0.6165  0.5288
20448SOL    HW161922   6.306   3.876   9.947 -0.1513 -0.2500  1.4594
20448SOL    HW261923   6.453   3.872   9.985  0.2717  1.2931  0.0916
20449SOL     OW61924   9.042   3.266   8.093 -0.8931  0.0906 -0.2873
20449SOL    HW161925   8.984   3.246   8.020 -1.2700 -0.7460  0.2258
20449SOL    HW261926   9.104   3.193   8.095  0.6063  1.2958 -1.2312
20450SOL     OW61927   2.229   1.480   9.446  0.0003 -0.3039 -0.4472
20450SOL    HW161928   2.206   1.427   9.522  0.7988 -1.9672 -1.3255
20450SOL    HW261929   2.302   1.535   9.477  1.2556 -1.9462 -0.3450
20451SOL     OW61930   7.303   1.897   9.412  0.1510  0.2036  0.5689
20451SOL    HW161931   7.250   1.823   9.382 -1.1863  1.4792 -0.3182
20451SOL    HW261932   7.359   1.917   9.337 -1.2439  1.6275 -0.1488
20452SOL     OW61933   1.103   1.250   6.750  0.5835 -0.1657 -0.9104
20452SOL    HW161934   1.150   1.178   6.707 -1.4046 -2.0536 -0.0416
20452SOL    HW261935   1.014   1.219   6.760 -0.1674  2.1313  0.2668
20453SOL     OW61936   2.771   2.831   0.081  0.0314  0.1015 -0.7173
20453SOL    HW161937   2.718   2.909   0.068  0.0315  0.2054 -0.1182
20453SOL    HW261938   2.732   2.765   0.024 -0.2058  0.4285 -0.9307
20454SOL     OW61939   1.741   4.800   9.146  0.3238  0.1541 -0.1949
20454SOL    HW161940   1.788   4.778   9.066  1.5615  0.5520  0.3897
20454SOL    HW261941   1.680   4.728   9.160  0.5877 -0.2540 -1.1094
20455SOL     OW61942   5.382   3.237   4.044 -0.1280 -0.5851 -0.1212
20455SOL    HW161943   5.289   3.249   4.030 -0.2114 -0.6570  0.3292
20455SOL    HW261944   5.424   3.301   3.987 -0.5426  1.9209  2.1382
20456SOL     OW61945   0.390   4.450   9.172  0.1391  0.2036  0.1200
20456SOL    HW161946   0.368   4.489   9.257  0.5458  0.1958  0.2351
20456SOL    HW261947   0.309   4.410   9.142 -0.4834  1.7440 -0.3422
20457SOL     OW61948   3.727   3.099   5.412 -0.0751 -0.4136  0.4867
20457SOL    HW161949   3.642   3.131   5.442 -0.5099 -0.6263 -0.4664
20457SOL    HW261950   3.725   3.112   5.317  1.0587 -0.1902  0.4870
20458SOL     OW61951   8.354   3.524   3.488 -0.0075  0.9767 -0.0413
20458SOL    HW161952   8.423   3.583   3.458  0.6328 -0.7615 -2.2530
20458SOL    HW261953   8.316   3.488   3.408 -1.2972 -0.5475  1.1916
20459SOL     OW61954   6.307   1.771   8.220 -0.3763 -0.1205  0.1869
20459SOL    HW161955   6.380   1.812   8.173  0.5241  0.3733  1.9292
20459SOL    HW261956   6.341   1.686   8.248 -1.0012 -0.5310 -0.2727
20460SOL     OW61957   0.290   3.756   7.366  0.0463  0.1058 -0.1334
20460SOL    HW161958   0.200   3.747   7.395 -0.0357  2.2905  0.4816
20460SOL    HW261959   0.342   3.742   7.446  0.1338  0.4569 -0.1242
20461SOL     OW61960   2.111   4.468   4.251 -0.1574  0.0221  0.4134
20461SOL    HW161961   2.115   4.487   4.157  1.4236  4.4532  1.1481
20461SOL    HW261962   2.184   4.409   4.267 -0.6341 -1.0538 -1.0975
20462SOL     OW61963   1.515   6.234   9.595  0.0918 -0.6138 -0.6199
20462SOL    HW161964   1.509   6.139   9.600  1.4627 -0.6622  1.1687
20462SOL    HW261965   1.608   6.253   9.599 -0.0701  0.7962 -2.3376
20463SOL     OW61966   8.978   7.605   7.646  0.1631  0.3308 -0.0718
20463SOL    HW161967   8.983   7.604   7.551 -1.9485 -0.6549 -0.2244
20463SOL    HW261968   9.052   7.551   7.674  1.8934  2.0693 -0.9997
20464SOL     OW61969   2.946   5.984   8.814  0.1402  0.0386  0.2858
20464SOL    HW161970   2.992   5.900   8.816 -0.1186 -0.2247 -2.1449
20464SOL    HW261971   2.985   6.031   8.741 -0.6821  1.4843  0.7315
20465SOL     OW61972   0.111   4.934   4.136  0.2571 -0.2858 -0.4482
20465SOL    HW161973   0.181   4.901   4.080  0.0559  0.6711 -1.2980
20465SOL    HW261974   0.037   4.947   4.077  0.1262  1.0201 -0.0283
20466SOL     OW61975   7.755   9.722   5.642 -0.0128  0.4706  0.4503
20466SOL    HW161976   7.662   9.707   5.627  0.5749 -1.3967 -2.0210
20466SOL    HW261977   7.759   9.800   5.697 -2.9982  0.8876  0.1975
20467SOL     OW61978   1.450   1.512   6.329 -0.3116  0.1848 -0.2522
20467SOL    HW161979   1.543   1.536   6.328 -0.3134  0.1867 -0.3290
20467SOL    HW261980   1.418   1.545   6.413  0.0417 -0.8763  0.3212
20468SOL     OW61981   3.411   7.547   2.822 -0.0789 -0.0340 -0.3210
20468SOL    HW161982   3.411   7.640   2.801  2.4501  0.4082  1.2007
20468SOL    HW261983   3.445   7.504   2.743  0.6068  0.5607 -0.3525
20469SOL     OW61984   4.933   6.313   7.581 -0.5162 -0.8497 -0.3790
20469SOL    HW161985   4.861   6.255   7.607 -0.0558 -1.4960 -0.5181
20469SOL    HW261986   4.998   6.304   7.650 -0.9506  0.4582  0.2255
20470SOL     OW61987   4.672   6.353   5.757 -0.7159  0.4221 -0.3329
20470SOL    HW161988   4.607   6.423   5.762 -0.9803  0.0908  1.2678
20470SOL    HW261989   4.620   6.273   5.756 -0.3902  0.1929 -1.5713
20471SOL     OW61990   4.092   5.989   4.497  0.2378 -0.1262  0.3245
20471SOL    HW161991   4.009   5.946   4.479 -0.5831  2.4161 -2.9862
20471SOL    HW261992   4.159   5.925   4.472 -0.7927 -1.1649  0.1804
20472SOL     OW61993   2.020   5.762   1.267  0.0811  0.1864  0.3710
20472SOL    HW161994   2.044   5.671   1.287 -0.5727  0.1293  0.9308
20472SOL    HW261995   2.055   5.812   1.340 -0.9823  0.1730  0.9036
20473SOL     OW61996   5.410   9.894   4.147  0.1215  0.3678  0.0026
20473SOL    HW161997   5.411   9.873   4.241 -0.0335  2.8785  0.6485
20473SOL    HW261998   5.318   9.883   4.121  0.1752 -0.3902  0.1262
20474SOL     OW61999   1.499   8.331   9.318 -0.3350 -0.1384 -0.3243
20474SOL    HW162000   1.475   8.362   9.405 -0.4762  0.5612 -0.6019
20474SOL    HW262001   1.561   8.260   9.333  0.3212  0.5627  0.3363
20475SOL     OW62002   4.969   7.614   8.955  0.1220  0.3035  0.2578
20475SOL    HW162003   4.935   7.701   8.977  0.6045  0.5826 -0.0791
20475SOL    HW262004   5.064   7.624   8.957  0.2336  0.4362 -2.2237
20476SOL     OW62005   2.112   0.752   7.143  0.1673 -0.3535  0.3700
20476SOL    HW162006   2.097   0.673   7.091  0.1672 -0.2362  0.1929
20476SOL    HW262007   2.109   0.722   7.234  3.6961 -1.2529  0.3293
20477SOL     OW62008   5.337   9.741   8.217 -0.4429 -0.1590  0.0453
20477SOL    HW162009   5.335   9.728   8.122  0.0611  3.4507 -0.5969
20477SOL    HW262010   5.405   9.681   8.248 -0.9221 -1.7365 -1.7588
20478SOL     OW62011   7.434   3.889   1.791 -0.4251  0.2475  0.0817
20478SOL    HW162012   7.404   3.977   1.766 -1.4991 -0.2119 -0.3206
20478SOL    HW262013   7.399   3.832   1.722  1.3191 -0.3575 -0.3442
20479SOL     OW62014   5.578   3.852   0.814 -0.0684  0.1162  0.0563
20479SOL    HW162015   5.674   3.849   0.822  0.0846  2.4645 -0.1660
20479SOL    HW262016   5.557   3.945   0.817 -2.3383 -0.3301 -0.3492
20480SOL     OW62017   1.514   4.104   9.059 -0.0117  0.4900 -0.0198
20480SOL    HW162018   1.534   4.170   8.992 -0.9262  0.1480 -0.6440
20480SOL    HW262019   1.424   4.122   9.084 -0.9395 -1.6541 -1.5555
20481SOL     OW62020   5.792   0.750   3.184 -0.3395 -0.9009 -0.1435
20481SOL    HW162021   5.795   0.799   3.102 -1.8514 -2.0043 -0.8902
20481SOL    HW262022   5.716   0.785   3.230 -0.6157 -1.5939 -0.0673
20482SOL     OW62023   0.980   3.947   4.092 -0.8793  0.4548 -0.0549
20482SOL    HW162024   1.030   3.907   4.021 -0.7952  1.4320 -0.5657
20482SOL    HW262025   1.024   4.031   4.108 -1.5137  0.6993  0.4471
20483SOL     OW62026   9.715   9.477   9.515 -0.2010 -0.2214 -0.0116
20483SOL    HW162027   9.795   9.526   9.497  0.0420 -0.5235  0.2396
20483SOL    HW262028   9.744   9.386   9.526 -0.2900 -0.0167  2.2301
20484SOL     OW62029   4.048   4.799   9.182 -0.2430  0.1572 -0.3985
20484SOL    HW162030   4.110   4.739   9.141  0.5543  1.2359 -0.8154
20484SOL    HW262031   4.089   4.824   9.265 -0.2697  0.5891 -0.5090
20485SOL     OW62032   8.124   1.854   1.856 -0.1546 -0.8839  0.3697
20485SOL    HW162033   8.213   1.859   1.891  0.1667  1.1033 -0.5888
20485SOL    HW262034   8.067   1.871   1.931  0.4041  0.5063  0.4957
20486SOL     OW62035   1.649   6.684   3.052 -0.0986  0.0558  0.1728
20486SOL    HW162036   1.681   6.623   2.985 -1.1050 -2.1919  1.6280
20486SOL    HW262037   1.584   6.738   3.006 -0.1738 -0.8888 -0.8621
20487SOL     OW62038   8.513   8.670   7.985  0.2883  0.2371 -0.5523
20487SOL    HW162039   8.433   8.718   7.964 -0.1875 -0.2656  0.0683
20487SOL    HW262040   8.514   8.597   7.924  0.7775  0.7608 -1.1916
20488SOL     OW62041   1.367   8.728   3.217 -0.3026  0.4435  0.4838
20488SOL    HW162042   1.393   8.800   3.274 -1.6544  0.5790  0.9805
20488SOL    HW262043   1.309   8.769   3.152 -0.1002  0.0122  0.0240
20489SOL     OW62044   8.507   9.322   4.174  0.3280 -0.3170 -0.1021
20489SOL    HW162045   8.425   9.297   4.217  2.0282 -1.0878  2.9242
20489SOL    HW262046   8.534   9.242   4.127  1.0266 -1.2557  1.7969
20490SOL     OW62047   4.949   6.206   4.361 -0.7036  0.6467 -1.4557
20490SOL    HW162048   4.860   6.172   4.372 -0.0682 -0.6037  0.2001
20490SOL    HW262049   4.994   6.183   4.442  1.1339  1.2856 -2.2368
20491SOL     OW62050   7.309   5.523   9.392 -0.6327 -0.2100 -0.0992
20491SOL    HW162051   7.311   5.428   9.406  0.4413 -0.1443  0.2511
20491SOL    HW262052   7.304   5.560   9.480  0.8152  0.0946 -0.1337
20492SOL     OW62053   8.134   5.395   0.001 -0.4333  0.3899 -0.2276
20492SOL    HW162054   8.218   5.377   0.044  0.1908  2.8947 -0.2156
20492SOL    HW262055   8.112   5.313  -0.044 -0.0255 -1.6565  2.9858
20493SOL     OW62056   8.910   9.888   0.258  0.3176  0.2208  0.6422
20493SOL    HW162057   8.832   9.939   0.281  0.7621  1.2962 -0.1113
20493SOL    HW262058   8.876   9.807   0.220 -0.4796  1.2018 -0.8159
20494SOL     OW62059   5.966   0.406   8.996  0.0851 -0.3566  0.1913
20494SOL    HW162060   5.902   0.469   9.029  1.3813  0.1317  1.9535
20494SOL    HW262061   5.942   0.392   8.905  0.0897  3.1229 -0.4616
20495SOL     OW62062   3.245   7.813   5.290 -0.0528 -0.5781  0.0461
20495SOL    HW162063   3.216   7.852   5.207 -3.7492 -0.4451  1.2316
20495SOL    HW262064   3.270   7.723   5.266  0.4922 -0.0680 -1.4174
20496SOL     OW62065   1.030   4.486   3.793 -0.6309  0.4011  0.2815
20496SOL    HW162066   0.960   4.497   3.858  0.7798  1.7881  1.6635
20496SOL    HW262067   1.105   4.456   3.844  1.2135  3.7462 -0.1645
20497SOL     OW62068   7.526   8.466   6.122 -0.4283  0.4436 -0.3330
20497SOL    HW162069   7.521   8.385   6.172  0.2585  1.1890  0.9742
20497SOL    HW262070   7.456   8.458   6.057 -1.3776 -0.5309  0.7653
20498SOL     OW62071   6.312   5.717   8.539  0.2383 -0.2448 -0.2994
20498SOL    HW162072   6.373   5.644   8.529 -0.4519 -0.9769  0.7102
20498SOL    HW262073   6.260   5.716   8.459  0.3973 -0.7015 -0.3968
20499SOL     OW62074   1.010   3.338   5.653 -0.1698 -0.4074 -0.4622
20499SOL    HW162075   1.021   3.382   5.569 -0.0602 -0.5784 -0.5379
20499SOL    HW262076   0.925   3.295   5.647 -1.1776  1.3565  0.3213
20500SOL     OW62077   8.098   3.362   6.096  0.7418  0.0201  0.0405
20500SOL    HW162078   8.124   3.280   6.137 -0.5121  0.5123  1.9546
20500SOL    HW262079   8.028   3.338   6.036  0.5337 -0.3495  0.4257
20501SOL     OW62080   5.966   5.368   3.828  0.1540  0.1977 -0.2836
20501SOL    HW162081   6.006   5.397   3.746  1.0793 -1.2432 -0.3725
20501SOL    HW262082   5.976   5.442   3.888  2.6248  0.0538 -0.4276
20502SOL     OW62083   8.885   2.947   5.542 -0.3596  0.1076  0.0971
20502SOL    HW162084   8.893   2.957   5.448  0.8247 -2.2790 -0.1398
20502SOL    HW262085   8.957   3.000   5.578 -1.2596  1.6128 -0.2475
20503SOL     OW62086   3.568   7.303   3.436 -0.0895  0.3768  0.0823
20503SOL    HW162087   3.635   7.256   3.386 -0.3668  0.3282 -0.2495
20503SOL    HW262088   3.487   7.258   3.414 -0.5913  1.9145 -1.4171
20504SOL     OW62089   6.746   5.230   4.493  0.0430 -0.0550  0.0512
20504SOL    HW162090   6.669   5.175   4.475 -0.0228  0.3154 -0.8705
20504SOL    HW262091   6.782   5.250   4.407  0.8020  0.3133  0.4420
20505SOL     OW62092   6.070   6.568   5.471 -0.3710 -0.2079  0.1611
20505SOL    HW162093   6.027   6.555   5.387  3.0964 -1.2461 -1.6603
20505SOL    HW262094   6.108   6.656   5.465 -1.0824  0.1994  1.2064
20506SOL     OW62095   5.298   1.619   8.359  0.2013  0.1864  0.0195
20506SOL    HW162096   5.386   1.631   8.395  0.8599 -1.0530 -1.1073
20506SOL    HW262097   5.301   1.535   8.313 -1.6459  0.0070  0.1319
20507SOL     OW62098   9.430   9.222   2.448  0.0986 -0.0465 -0.0347
20507SOL    HW162099   9.512   9.184   2.480  0.1277  0.3620  0.3735
20507SOL    HW262100   9.395   9.155   2.388 -0.5283 -1.3413  1.6925
20508SOL     OW62101   2.728   5.345   3.606  0.0508  0.0226 -0.5895
20508SOL    HW162102   2.634   5.355   3.620  0.1480  0.9569 -0.5017
20508SOL    HW262103   2.759   5.294   3.681  0.0237  2.0522  0.8827
20509SOL     OW62104   6.527   0.573   1.593  0.0341  0.0946 -0.3601
20509SOL    HW162105   6.517   0.560   1.498 -1.7782 -0.1858 -0.1515
20509SOL    HW262106   6.441   0.553   1.630  1.2110 -1.8908  1.6056
20510SOL     OW62107   8.168   4.876   5.210 -0.6461 -0.1984  0.0510
20510SOL    HW162108   8.215   4.959   5.216  1.2215 -1.0773 -1.4050
20510SOL    HW262109   8.176   4.838   5.298  0.4135  0.1784  0.1309
20511SOL     OW62110   3.083   4.231   5.774  0.3738  0.0244 -0.3920
20511SOL    HW162111   3.117   4.313   5.739 -0.1643  0.4858  0.1443
20511SOL    HW262112   3.039   4.189   5.700 -0.6595  0.9329 -0.3144
20512SOL     OW62113   8.505   7.292   2.716  0.4453 -0.2232  0.3223
20512SOL    HW162114   8.466   7.277   2.630  0.0896 -1.1686  0.6412
20512SOL    HW262115   8.462   7.229   2.773  1.9150 -0.8073  0.8312
20513SOL     OW62116   7.949   0.900   9.351 -0.0060 -0.4872 -0.1793
20513SOL    HW162117   7.949   0.963   9.278 -0.6052 -2.4727 -2.0002
20513SOL    HW262118   8.041   0.876   9.362  0.0299 -0.5726 -0.6524
20514SOL     OW62119   0.142   0.505   5.059 -0.3311  0.6110  0.0347
20514SOL    HW162120   0.224   0.480   5.102 -1.1592 -1.1762  0.7033
20514SOL    HW262121   0.162   0.588   5.017  2.1343 -0.2443 -0.6943
20515SOL     OW62122   2.690   8.815   8.861  0.2227 -0.3411  0.8735
20515SOL    HW162123   2.734   8.819   8.776 -1.3810 -0.6000 -0.0203
20515SOL    HW262124   2.746   8.866   8.920  0.8656  0.6958 -0.5758
20516SOL     OW62125   1.040   8.385   2.464  0.2716 -0.4717  0.1045
20516SOL    HW162126   1.124   8.373   2.507 -0.0505 -0.1451  0.8548
20516SOL    HW262127   1.036   8.478   2.443  1.0701 -0.8742 -2.0592
20517SOL     OW62128   4.753   9.613   1.430 -0.1745  0.1572 -0.1967
20517SOL    HW162129   4.807   9.647   1.358  0.8763 -0.6878  0.1718
20517SOL    HW262130   4.807   9.626   1.508 -1.4988  1.5373  0.5581
20518SOL     OW62131   2.534   7.863   3.573  1.2648 -0.1606  0.5064
20518SOL    HW162132   2.593   7.811   3.628 -0.1066  1.1414  3.4067
20518SOL    HW262133   2.456   7.808   3.562  0.9930  0.1041  1.0674
20519SOL     OW62134   9.061   3.904   8.185 -0.6040  0.0907 -0.4292
20519SOL    HW162135   9.110   3.822   8.181 -1.0304 -0.1845 -0.0376
20519SOL    HW262136   8.969   3.877   8.188 -0.8030  0.6014 -1.3033
20520SOL     OW62137   5.783   3.229   2.102  0.4025  0.6458 -0.4025
20520SOL    HW162138   5.797   3.323   2.102 -1.0172  0.8951 -1.0498
20520SOL    HW262139   5.702   3.217   2.052 -0.9778 -0.6794  1.9812
20521SOL     OW62140   4.569   3.167   1.749  0.0056  0.4261 -0.3321
20521SOL    HW162141   4.585   3.211   1.666  2.5218  2.2503  0.9821
20521SOL    HW262142   4.516   3.228   1.799 -0.0403  0.1045  0.0164
20522SOL     OW62143   3.865   7.354   0.479  0.0308 -0.1224 -0.3639
20522SOL    HW162144   3.820   7.306   0.548 -1.8343  1.4475 -0.3798
20522SOL    HW262145   3.865   7.295   0.404 -0.0114 -0.9848  0.3009
20523SOL     OW62146   4.075   6.009   4.104 -0.5276  0.7992  0.7449
20523SOL    HW162147   4.132   5.947   4.058 -1.2276  0.5242  0.2247
20523SOL    HW262148   4.132   6.049   4.170  0.0802  0.0041  0.7315
20524SOL     OW62149   2.720   5.721   8.862  0.5022 -0.7454  0.2636
20524SOL    HW162150   2.681   5.747   8.945 -0.2398 -0.5390 -0.1376
20524SOL    HW262151   2.807   5.688   8.885 -0.3558 -2.4063  1.3527
20525SOL     OW62152   4.503   1.351   7.782 -0.0206 -0.0828  0.4069
20525SOL    HW162153   4.561   1.278   7.758 -0.9481 -0.6496 -0.1595
20525SOL    HW262154   4.530   1.422   7.725  0.0840 -0.3591  0.1061
20526SOL     OW62155   9.606   7.491   8.683  0.4168 -0.0131  0.2897
20526SOL    HW162156   9.685   7.517   8.730  0.0465 -0.5834  1.2545
20526SOL    HW262157   9.608   7.542   8.602  1.2814  0.6806  0.7359
20527SOL     OW62158   6.812   5.926   5.142  0.2679  0.2885 -0.4581
20527SOL    HW162159   6.849   5.876   5.215  0.7033  0.9740 -0.2067
20527SOL    HW262160   6.836   6.017   5.160 -0.1240  0.5358 -1.1527
20528SOL     OW62161   4.053   6.802   2.171  0.4865 -0.2721 -0.1376
20528SOL    HW162162   4.088   6.713   2.171  0.8036 -0.1916 -1.8989
20528SOL    HW262163   3.959   6.791   2.155  0.8458 -0.2926 -2.8080
20529SOL     OW62164   5.721   2.124   9.999 -0.5132  0.0339 -0.0697
20529SOL    HW162165   5.760   2.084   9.921  0.5256  1.8396 -0.5475
20529SOL    HW262166   5.659   2.188   9.964 -0.3045  0.6057  0.5954
20530SOL     OW62167   6.414   4.809   4.521  0.3425 -0.0068 -0.1511
20530SOL    HW162168   6.320   4.802   4.503  0.3194  1.5012 -0.7426
20530SOL    HW262169   6.454   4.741   4.467 -0.3460 -0.1749 -0.4630
20531SOL     OW62170   2.584   6.582   9.930  0.6578  0.5165 -0.4152
20531SOL    HW162171   2.632   6.610   9.852  2.0753  0.2032  0.3089
20531SOL    HW262172   2.542   6.662   9.962  0.3833  0.7223 -1.2602
20532SOL     OW62173   4.233   7.869   5.688  0.1559  0.0972 -0.0706
20532SOL    HW162174   4.218   7.959   5.660  0.3090  0.7277  1.7384
20532SOL    HW262175   4.327   7.856   5.677  0.5544  1.0148  1.9012
20533SOL     OW62176   9.843   2.790   7.814 -0.4939  0.1867 -0.6754
20533SOL    HW162177   9.785   2.770   7.887 -1.3624  0.9418 -1.1447
20533SOL    HW262178   9.889   2.707   7.798 -1.8520 -0.6148 -0.6512
20534SOL     OW62179   2.858   9.871   1.197  0.3511  0.4777 -0.2199
20534SOL    HW162180   2.911   9.890   1.274  1.4766 -0.7543 -0.6363
20534SOL    HW262181   2.774   9.913   1.213  0.4910  0.0666  1.7830
20535SOL     OW62182   2.196   8.728   7.574 -0.2842  0.3806  0.2792
20535SOL    HW162183   2.240   8.705   7.492  0.6924 -2.2423  1.4103
20535SOL    HW262184   2.122   8.667   7.580 -0.7326  0.9750  1.0443
20536SOL     OW62185   5.861   2.527   8.511  0.5018  0.0735 -0.3264
20536SOL    HW162186   5.831   2.528   8.602 -0.2115 -0.2410 -0.5581
20536SOL    HW262187   5.850   2.618   8.481  1.3028  0.3139  0.0753
20537SOL     OW62188   0.940   7.457   4.890  0.1674  0.3563  0.2558
20537SOL    HW162189   0.970   7.420   4.807  0.4633 -1.2614  1.0426
20537SOL    HW262190   0.995   7.535   4.903  1.9475 -0.8269  0.1706
20538SOL     OW62191   3.265   5.794   0.347 -0.5150 -0.2738  0.7252
20538SOL    HW162192   3.341   5.851   0.353  2.4214 -3.5157 -1.5136
20538SOL    HW262193   3.266   5.762   0.257 -3.5597 -1.8073  1.1067
20539SOL     OW62194   7.335   2.331   6.189  0.2479  0.5637  0.1675
20539SOL    HW162195   7.355   2.412   6.142 -2.3568  1.0115 -0.3041
20539SOL    HW262196   7.391   2.334   6.266  1.1976  2.1358 -0.5393
20540SOL     OW62197   3.783   7.686   1.300  0.0821 -0.0003  0.0587
20540SOL    HW162198   3.725   7.705   1.226 -1.5676 -2.2797  0.6521
20540SOL    HW262199   3.747   7.739   1.372  1.0542  1.4095 -0.4403
20541SOL     OW62200   1.771   5.830   4.933  0.4530 -0.2231  0.7010
20541SOL    HW162201   1.794   5.800   5.021  1.1139  0.0254  0.6210
20541SOL    HW262202   1.680   5.804   4.921  0.5772 -0.8997  1.1869
20542SOL     OW62203   2.758   2.127   9.284 -0.0017 -0.1315 -0.0077
20542SOL    HW162204   2.708   2.205   9.307 -2.2899 -0.9576 -1.7082
20542SOL    HW262205   2.848   2.157   9.275 -0.3183  1.6741  2.1666
20543SOL     OW62206   0.138   4.725   7.874 -0.0516 -0.1809  0.1005
20543SOL    HW162207   0.080   4.769   7.936 -1.8368 -0.9755 -0.9415
20543SOL    HW262208   0.156   4.640   7.914  1.9711  0.7389  1.2872
20544SOL     OW62209   2.753   6.247   4.235  0.4398  0.3944 -0.2247
20544SOL    HW162210   2.725   6.268   4.145 -0.5824 -0.2997 -0.0806
20544SOL    HW262211   2.769   6.153   4.234 -0.9316  0.1190  0.6458
20545SOL     OW62212   0.935   8.305   6.826  0.2039 -0.4559 -0.3723
20545SOL    HW162213   0.987   8.314   6.746  0.1899  0.6266 -0.2748
20545SOL    HW262214   0.864   8.245   6.802 -0.1783  0.3607 -1.3726
20546SOL     OW62215   5.350   1.991   5.735  0.3213  0.0577 -0.1402
20546SOL    HW162216   5.422   1.964   5.792  0.6479  2.4381  0.6946
20546SOL    HW262217   5.328   2.079   5.765  0.0778  1.1893 -3.2835
20547SOL     OW62218   9.121   0.590   7.680  0.5706 -0.7416  0.0769
20547SOL    HW162219   9.055   0.656   7.659  2.1450  0.9529  0.2147
20547SOL    HW262220   9.202   0.640   7.694  1.5722 -2.5995  1.3770
20548SOL     OW62221   9.048   0.661   0.923 -0.4464 -0.0556 -0.0712
20548SOL    HW162222   9.048   0.610   0.842  0.4492 -0.6010  0.2547
20548SOL    HW262223   8.989   0.735   0.905 -0.0740 -0.0263 -1.3060
20549SOL     OW62224   8.668   8.509   7.446  0.4349 -0.3215  0.2539
20549SOL    HW162225   8.715   8.518   7.528 -0.1719  1.2195  0.4564
20549SOL    HW262226   8.576   8.520   7.469  0.2518  0.1010 -0.6138
20550SOL     OW62227   2.123   6.610   9.132 -0.4439 -0.1815  0.0228
20550SOL    HW162228   2.105   6.555   9.055 -0.3752  0.5347 -0.5177
20550SOL    HW262229   2.200   6.661   9.107 -1.0409  0.8158  0.1627
20551SOL     OW62230   4.776   0.615   2.597  0.2346 -0.1712 -0.2397
20551SOL    HW162231   4.863   0.590   2.567  0.7215  0.9407  0.2285
20551SOL    HW262232   4.775   0.710   2.594 -1.5779 -0.1537 -1.9920
20552SOL     OW62233   7.754   2.298   7.853 -0.0355  0.3039 -0.5828
20552SOL    HW162234   7.703   2.371   7.817  1.1505  1.5981  0.3018
20552SOL    HW262235   7.725   2.291   7.944  1.9135  1.6094  0.1803
20553SOL     OW62236   7.161   5.093   5.933 -0.2748  0.5858 -1.0872
20553SOL    HW162237   7.204   5.171   5.968  0.4334  0.0002 -0.6287
20553SOL    HW262238   7.129   5.047   6.011  2.4013 -1.3746 -1.0325
20554SOL     OW62239   2.380   2.117   6.342  0.3118 -0.0869 -0.3009
20554SOL    HW162240   2.347   2.173   6.412  1.8148  1.4143 -0.7177
20554SOL    HW262241   2.374   2.171   6.264  0.1417 -1.1755 -1.0581
20555SOL     OW62242   1.539   0.965   4.472  0.6589 -0.1817  0.5178
20555SOL    HW162243   1.596   0.892   4.497  0.1092  0.1376  2.9804
20555SOL    HW262244   1.581   1.042   4.511  0.2754  0.5531 -0.4882
20556SOL     OW62245   8.667   0.311   5.044  0.1003 -0.0879 -0.2014
20556SOL    HW162246   8.652   0.253   4.969 -0.6957 -0.1203 -0.0219
20556SOL    HW262247   8.717   0.384   5.009 -0.0436 -0.2327 -0.7088
20557SOL     OW62248   1.186   8.534   9.824 -0.0274  0.1274  0.3057
20557SOL    HW162249   1.092   8.548   9.821 -0.0368  0.2400  0.9806
20557SOL    HW262250   1.196   8.441   9.847  0.0210  0.3680  1.2736
20558SOL     OW62251   1.763   8.954   6.031 -0.9404  0.1742 -0.1662
20558SOL    HW162252   1.851   8.920   6.013 -0.8581 -0.4138  1.1950
20558SOL    HW262253   1.769   9.047   6.010 -0.4783 -0.1690 -1.6563
20559SOL     OW62254   3.317   6.007   4.976  0.7486  0.0113 -0.0203
20559SOL    HW162255   3.301   6.052   4.894  0.6999  0.4079  0.2032
20559SOL    HW262256   3.324   6.077   5.041  0.1837 -0.3302  0.4141
20560SOL     OW62257   4.877   4.714   2.731 -0.2184 -0.2656 -0.6329
20560SOL    HW162258   4.892   4.639   2.790 -1.1135 -2.4067 -2.9756
20560SOL    HW262259   4.965   4.741   2.705  0.1355 -2.8894 -2.5028
20561SOL     OW62260   3.242   6.359   5.979  0.2758  0.1262  0.2623
20561SOL    HW162261   3.287   6.398   5.904  1.0677  0.8138  1.0685
20561SOL    HW262262   3.311   6.314   6.028  0.7748  3.3331  2.9216
20562SOL     OW62263   7.341   3.662   7.227  0.4659 -0.1300  0.0977
20562SOL    HW162264   7.427   3.672   7.268  0.5956 -0.9819  0.0422
20562SOL    HW262265   7.332   3.568   7.213 -0.3030 -0.0042 -0.2744
20563SOL     OW62266   9.807   3.472   4.219  0.1606  0.2713 -0.0802
20563SOL    HW162267   9.820   3.378   4.206  1.1762  0.1377  1.6430
20563SOL    HW262268   9.891   3.504   4.252 -0.7838  1.3831  1.3559
20564SOL     OW62269   5.509   4.820   1.101 -0.1735  0.3301 -0.5479
20564SOL    HW162270   5.597   4.857   1.100 -0.0447  0.0229 -0.6122
20564SOL    HW262271   5.505   4.770   1.182  0.4173 -1.3319 -1.4900
20565SOL     OW62272   6.115   2.080   8.278  0.0262 -0.2625 -0.0296
20565SOL    HW162273   6.167   2.120   8.208 -1.1493  1.0637 -0.1700
20565SOL    HW262274   6.081   2.153   8.328 -1.3068 -1.1142  0.3541
20566SOL     OW62275   8.746   8.796   5.322 -0.3351  0.3787  0.1651
20566SOL    HW162276   8.676   8.861   5.316  1.1422  1.9362 -1.0410
20566SOL    HW262277   8.824   8.846   5.348  0.8624 -0.8970 -0.7944
20567SOL     OW62278   1.902   6.313   5.205 -0.9096  0.2776 -0.3651
20567SOL    HW162279   1.938   6.292   5.119 -3.7823 -0.9275 -1.3833
20567SOL    HW262280   1.903   6.230   5.253  0.6185  0.9267  0.8043
20568SOL     OW62281   8.060   5.981   0.220  0.4452 -0.2295 -0.4151
20568SOL    HW162282   8.080   6.070   0.249  2.9738 -0.8477  0.0378
20568SOL    HW262283   7.965   5.975   0.224  0.1938  2.4597 -0.5410
20569SOL     OW62284   6.772   1.946   8.025 -0.1232  0.0719  0.2963
20569SOL    HW162285   6.857   1.966   7.983 -0.4843 -2.6451 -2.0934
20569SOL    HW262286   6.791   1.947   8.118  1.9621  1.7783 -0.0444
20570SOL     OW62287   4.952   4.384   3.783 -0.2477  0.7744 -0.3861
20570SOL    HW162288   4.950   4.293   3.754  0.8246  0.4512  0.4937
20570SOL    HW262289   4.935   4.435   3.704 -0.7958 -0.1757 -0.9006
20571SOL     OW62290   6.584   0.472   2.945  0.3412 -0.3859 -0.0493
20571SOL    HW162291   6.638   0.456   3.023 -0.3342 -0.2603  0.4486
20571SOL    HW262292   6.513   0.528   2.976  0.0496 -0.3590 -0.7533
20572SOL     OW62293   8.006   5.017   0.473  0.4757  0.1133  0.2984
20572SOL    HW162294   8.060   4.938   0.483 -0.6728 -1.0308 -1.6998
20572SOL    HW262295   7.926   4.998   0.522 -0.1958 -0.4257 -0.9508
20573SOL     OW62296   1.008   9.115   7.962  0.0157 -0.4029 -0.5194
20573SOL    HW162297   1.081   9.066   7.925  0.0053 -0.1664 -0.8610
20573SOL    HW262298   0.999   9.082   8.052  0.2271 -0.7751 -0.6358
20574SOL     OW62299   6.854   4.517   0.219  0.1742 -0.2627 -0.3375
20574SOL    HW162300   6.839   4.449   0.153 -0.7622  0.0798 -0.4969
20574SOL    HW262301   6.778   4.575   0.211 -0.2332 -0.5053  1.4071
20575SOL     OW62302   7.195   9.510   7.712  0.0589 -0.0258 -0.7105
20575SOL    HW162303   7.172   9.492   7.803  1.5705 -1.5043 -0.5796
20575SOL    HW262304   7.246   9.591   7.715 -2.3767  1.6208 -0.6632
20576SOL     OW62305   1.047   3.205   4.904 -0.3139 -0.2721  0.0283
20576SOL    HW162306   1.002   3.249   4.977 -0.5081 -2.8887  1.6323
20576SOL    HW262307   1.140   3.222   4.920 -0.4090 -0.0176  0.3279
20577SOL     OW62308   1.208   2.509   7.791  0.6502  0.8926 -0.7495
20577SOL    HW162309   1.204   2.518   7.696 -0.5377  0.6564 -0.7317
20577SOL    HW262310   1.126   2.467   7.815 -0.0864  2.9890  0.6159
20578SOL     OW62311   6.448   4.120   4.780 -0.5833  0.9612 -0.5321
20578SOL    HW162312   6.375   4.077   4.736  0.3071 -2.9051  1.2942
20578SOL    HW262313   6.416   4.139   4.868 -0.0011  1.0343 -0.3287
20579SOL     OW62314   8.504   0.305   0.325  0.0110  0.4186 -0.0695
20579SOL    HW162315   8.574   0.355   0.283 -0.9461  1.8957 -0.0080
20579SOL    HW262316   8.457   0.370   0.378  0.4474 -1.1461  2.3782
20580SOL     OW62317   8.366   0.779   9.726  0.3291  0.2435  0.0853
20580SOL    HW162318   8.394   0.762   9.637  1.0294  0.2589  0.2953
20580SOL    HW262319   8.385   0.698   9.774  0.7232  0.5068  0.3910
20581SOL     OW62320   0.845   9.390   3.567  0.4767  0.5314 -0.3894
20581SOL    HW162321   0.761   9.349   3.589  0.5860 -0.7327 -2.1113
20581SOL    HW262322   0.881   9.417   3.652 -0.9010 -0.4327  0.5557
20582SOL     OW62323   4.119   5.010   8.045  0.1294  0.3820 -0.1887
20582SOL    HW162324   4.192   5.061   8.080  0.5612  0.6203 -1.4033
20582SOL    HW262325   4.044   5.035   8.100  0.6986  1.0616  0.2872
20583SOL     OW62326   2.318   0.839   4.736 -0.8573 -0.7974 -0.1384
20583SOL    HW162327   2.318   0.772   4.804 -0.0710 -0.6118  0.0568
20583SOL    HW262328   2.342   0.793   4.656 -0.7479 -0.8310 -0.0863
20584SOL     OW62329   4.766   9.724   5.457 -0.1998 -0.3693  0.0681
20584SOL    HW162330   4.732   9.791   5.398  0.0167 -1.2328 -1.0875
20584SOL    HW262331   4.689   9.677   5.488 -0.3100  0.0446  0.4236
20585SOL     OW62332   1.352   2.162   5.401 -0.1533  0.5034 -1.0100
20585SOL    HW162333   1.301   2.118   5.334 -1.7071  2.1860 -1.0112
20585SOL    HW262334   1.427   2.198   5.353 -1.4438  2.0293 -2.0002
20586SOL     OW62335   3.937   8.117   1.661 -0.4634 -0.0194  0.3592
20586SOL    HW162336   3.878   8.178   1.706 -0.8124 -1.2552  1.6196
20586SOL    HW262337   4.013   8.110   1.718  1.1022  1.7264 -1.3545
20587SOL     OW62338   5.088   5.738   5.526  0.6211 -0.0431  0.1198
20587SOL    HW162339   5.173   5.777   5.505  1.3356  0.1806  2.9570
20587SOL    HW262340   5.088   5.653   5.482  1.7118  0.5153 -1.0142
20588SOL     OW62341   0.109   7.364   1.479 -0.2047  0.0814  0.0106
20588SOL    HW162342   0.136   7.396   1.393  0.5648  1.3034  0.6761
20588SOL    HW262343   0.181   7.388   1.538 -0.6004 -0.9569  0.9630
20589SOL     OW62344   2.270   2.021   5.852  0.1627 -0.1713  0.0250
20589SOL    HW162345   2.202   2.067   5.901 -1.0218 -0.4294 -1.3257
20589SOL    HW262346   2.259   1.929   5.876  1.2695 -0.0202  1.2246
20590SOL     OW62347   3.674   4.465   7.124  0.1133 -0.4689  0.4494
20590SOL    HW162348   3.682   4.445   7.031  0.4561  0.9744  0.1426
20590SOL    HW262349   3.735   4.405   7.167  0.6543 -0.5116 -0.3538
20591SOL     OW62350   9.688   6.610   5.403 -0.1973  0.1371  0.3679
20591SOL    HW162351   9.734   6.534   5.439 -0.3146 -0.3319 -0.4496
20591SOL    HW262352   9.690   6.675   5.474  1.5313  0.0619  0.4302
20592SOL     OW62353   6.708   0.358   1.242  0.6162 -0.1020 -0.4260
20592SOL    HW162354   6.718   0.293   1.312  1.9539  1.7440  1.2353
20592SOL    HW262355   6.643   0.420   1.276  0.4232  0.1911 -1.3206
20593SOL     OW62356   2.123   7.908   9.489  1.2492 -0.1009  0.0649
20593SOL    HW162357   2.179   7.915   9.566  1.5162 -0.4485 -0.0961
20593SOL    HW262358   2.063   7.836   9.509  1.5953 -0.4737 -0.2221
20594SOL     OW62359   8.960   9.543   6.258  0.0740 -0.2756  0.4353
20594SOL    HW162360   9.049   9.540   6.222 -0.1966 -0.3477 -0.2457
20594SOL    HW262361   8.907   9.496   6.193 -0.1256 -2.1014  1.8407
20595SOL     OW62362   7.657   0.088   3.679 -0.1869 -0.1975  0.3731
20595SOL    HW162363   7.673   0.180   3.657 -0.3343 -0.1700  0.3793
20595SOL    HW262364   7.709   0.072   3.757 -0.6928  0.0665  0.7682
20596SOL     OW62365   3.028   7.907   2.492 -0.5035 -0.3095  0.1934
20596SOL    HW162366   3.006   7.822   2.528  0.9583 -0.8477 -0.1078
20596SOL    HW262367   3.090   7.945   2.554  1.3212 -0.8557 -1.1974
20597SOL     OW62368   1.214   5.548   2.658  0.4338  0.3799 -0.1264
20597SOL    HW162369   1.166   5.609   2.713  2.5538  1.2420  0.9146
20597SOL    HW262370   1.281   5.511   2.716  1.0242 -0.7502 -1.4661
20598SOL     OW62371   8.055   9.102   4.236 -0.0654 -0.9778  0.0793
20598SOL    HW162372   8.086   9.012   4.236 -1.7154 -1.5908  0.9735
20598SOL    HW262373   7.983   9.103   4.173  0.1758 -0.1812 -0.2006
20599SOL     OW62374   5.877   2.227   1.183  0.0570  0.4040 -0.4891
20599SOL    HW162375   5.870   2.271   1.098 -2.9668 -0.1452 -0.6285
20599SOL    HW262376   5.859   2.135   1.163 -1.1929  0.3385  0.7518
20600SOL     OW62377   3.638   4.264   3.311 -0.3529 -0.5513 -0.1072
20600SOL    HW162378   3.546   4.247   3.334 -0.3175 -0.0257  0.4559
20600SOL    HW262379   3.660   4.344   3.358  1.0621 -1.8498  1.6174
20601SOL     OW62380   8.553   0.052   3.610 -0.3044 -0.2937 -0.4358
20601SOL    HW162381   8.502   0.125   3.577 -0.8847 -0.6505 -0.3381
20601SOL    HW262382   8.488  -0.013   3.638  0.1357  0.0379  1.5340
20602SOL     OW62383   5.301   3.263   7.193  0.0591  0.2442 -0.3948
20602SOL    HW162384   5.280   3.186   7.140  2.0175 -0.6841  0.0817
20602SOL    HW262385   5.239   3.260   7.266  0.8082 -1.5478  0.2213
20603SOL     OW62386   6.485   3.290   9.538 -0.0491 -0.3772  0.0876
20603SOL    HW162387   6.545   3.256   9.472 -0.1019 -1.5368  0.6070
20603SOL    HW262388   6.405   3.238   9.527  0.3121 -1.3596  1.7414
20604SOL     OW62389   8.787   9.580   1.457  0.0127  0.3747 -0.0348
20604SOL    HW162390   8.860   9.598   1.399 -1.0882  2.4215 -0.8770
20604SOL    HW262391   8.709   9.602   1.406 -1.3187 -2.4558  0.5441
20605SOL     OW62392   9.669   5.652   4.880  0.0015 -0.0155  0.1464
20605SOL    HW162393   9.675   5.615   4.792 -1.1226  0.9167 -0.3506
20605SOL    HW262394   9.590   5.614   4.917  0.5477 -0.5177  0.8296
20606SOL     OW62395   1.619   1.827   7.955 -0.1714  1.1747 -0.1494
20606SOL    HW162396   1.675   1.898   7.924  0.9107  0.9872  1.2322
20606SOL    HW262397   1.670   1.748   7.939 -1.5534  0.6053 -2.0841
20607SOL     OW62398   4.688   2.053   2.106 -0.5078  0.1248 -0.0600
20607SOL    HW162399   4.612   2.109   2.089 -0.4371  0.3366  0.3141
20607SOL    HW262400   4.763   2.111   2.094 -0.4320  0.0973  0.2914
20608SOL     OW62401   2.389   7.499   4.886 -0.1395  0.0413 -0.7510
20608SOL    HW162402   2.330   7.572   4.905 -0.5854  0.0378 -2.0528
20608SOL    HW262403   2.356   7.462   4.804  2.3602  0.7900 -2.2008
20609SOL     OW62404   4.553   6.518   7.700 -0.3173  0.3197  0.2436
20609SOL    HW162405   4.609   6.527   7.623 -0.4791  1.9261  0.2850
20609SOL    HW262406   4.500   6.440   7.682  0.1225  0.2741 -0.9510
20610SOL     OW62407   8.384   5.166   7.515 -0.1398  0.1298  0.4210
20610SOL    HW162408   8.427   5.126   7.439 -1.8553  1.8387 -1.5641
20610SOL    HW262409   8.304   5.115   7.528  0.7980 -1.0511  2.1027
20611SOL     OW62410   0.315   9.700   8.737  0.0396 -0.4316 -0.2237
20611SOL    HW162411   0.406   9.720   8.759  0.3574 -1.3733 -0.6100
20611SOL    HW262412   0.293   9.762   8.668 -0.8437  2.2973  2.2901
20612SOL     OW62413   5.792   6.079   0.962  0.4351 -0.2776 -0.0474
20612SOL    HW162414   5.758   6.131   0.888  0.9947 -2.1591 -1.7243
20612SOL    HW262415   5.875   6.044   0.930  0.3273 -1.7603  1.2037
20613SOL     OW62416   3.471   3.851   4.063  0.0373 -0.0962 -0.1145
20613SOL    HW162417   3.444   3.762   4.042  0.0913 -0.2133  0.3159
20613SOL    HW262418   3.562   3.844   4.090  0.5473  0.3110 -1.6364
20614SOL     OW62419   6.859   3.243   9.933  0.2992 -0.4213  0.3760
20614SOL    HW162420   6.884   3.203  10.017  1.1222 -1.7849 -0.4776
20614SOL    HW262421   6.788   3.188   9.901 -0.2595  0.3161  0.3275
20615SOL     OW62422   8.871   0.035   2.387 -0.3171 -0.2908 -0.2140
20615SOL    HW162423   8.932   0.049   2.459 -1.6148  0.0165  0.8558
20615SOL    HW262424   8.895  -0.051   2.352  1.2321  0.1717 -0.3628
20616SOL     OW62425   9.027   3.309   6.879  0.4751 -0.2278  0.6374
20616SOL    HW162426   9.101   3.274   6.930  2.2614 -0.9442 -2.2263
20616SOL    HW262427   9.032   3.262   6.796 -1.4277  1.8581 -0.7398
20617SOL     OW62428   9.835   9.298   3.744  0.6018  0.1250 -0.5874
20617SOL    HW162429   9.779   9.232   3.785 -0.6406  1.1244 -0.6128
20617SOL    HW262430   9.896   9.324   3.812  0.0393  0.1130 -0.0710
20618SOL     OW62431   2.028   0.342   5.634  0.2823  0.2216 -0.5616
20618SOL    HW162432   1.997   0.340   5.724 -1.1327 -0.8685 -1.0410
20618SOL    HW262433   2.117   0.306   5.638  0.4449  0.7101  0.4589
20619SOL     OW62434   1.500   7.966   0.163 -0.1760  0.1997 -0.3917
20619SOL    HW162435   1.477   7.984   0.072 -2.5815  0.8318  0.2764
20619SOL    HW262436   1.566   8.031   0.185  2.9582 -1.9753 -2.5561
20620SOL     OW62437   4.136   7.954   8.635 -0.3077  0.3836 -0.2623
20620SOL    HW162438   4.123   8.048   8.645  0.0354  0.6033 -1.6452
20620SOL    HW262439   4.232   7.943   8.636 -0.3487 -0.1538  1.3281
20621SOL     OW62440   5.021   8.253   6.188 -0.1370  0.3901 -0.5079
20621SOL    HW162441   5.036   8.193   6.115 -1.7859 -2.3626  1.2432
20621SOL    HW262442   4.940   8.299   6.165 -0.0236  0.4018 -0.8993
20622SOL     OW62443   9.682   4.726   2.621 -0.0034  0.0704  0.3863
20622SOL    HW162444   9.678   4.820   2.635  1.9795 -0.0389  2.2564
20622SOL    HW262445   9.597   4.703   2.582 -0.8567  2.4657  0.7064
20623SOL     OW62446   2.775   7.209   4.866 -0.2698  0.3788  0.3258
20623SOL    HW162447   2.717   7.211   4.942 -1.1658 -0.3010 -0.3220
20623SOL    HW262448   2.822   7.126   4.875 -1.3508 -0.3522 -0.5488
20624SOL     OW62449   0.507   2.371   3.506 -0.1544  0.4539 -0.1138
20624SOL    HW162450   0.521   2.432   3.578  1.2630 -0.1868  0.1987
20624SOL    HW262451   0.467   2.294   3.547 -0.4199  0.5326 -0.2219
20625SOL     OW62452   4.796   0.866   6.627 -0.4893 -0.6419  0.0504
20625SOL    HW162453   4.790   0.870   6.723 -1.6210 -0.8081 -0.0014
20625SOL    HW262454   4.729   0.927   6.597 -0.0835 -0.5361 -0.6406
20626SOL     OW62455   1.337   3.393   1.560 -0.0517  0.4039 -0.5516
20626SOL    HW162456   1.285   3.472   1.543  2.4539  1.8517 -2.0672
20626SOL    HW262457   1.423   3.413   1.525  2.2186 -1.0720  3.4939
20627SOL     OW62458   7.788   8.423   5.169 -0.4259 -0.3990  0.3819
20627SOL    HW162459   7.870   8.471   5.164  1.5033 -3.3116  1.4848
20627SOL    HW262460   7.737   8.469   5.236  0.8296  0.7349  0.5907
20628SOL     OW62461   1.819   7.720   7.487 -0.0169  0.6576  0.3712
20628SOL    HW162462   1.876   7.665   7.540  0.8175  0.6191 -0.5346
20628SOL    HW262463   1.741   7.667   7.472  0.7875 -0.3170 -0.5113
20629SOL     OW62464   1.850   1.168   7.717 -0.3523  0.2671 -0.1009
20629SOL    HW162465   1.777   1.157   7.656  0.0212  0.4352 -0.5874
20629SOL    HW262466   1.925   1.130   7.671 -0.2222 -0.3458  0.5884
20630SOL     OW62467   5.797   1.750   0.111 -0.0672 -0.2344 -0.3966
20630SOL    HW162468   5.765   1.682   0.171  1.7250  0.3071  1.2783
20630SOL    HW262469   5.840   1.813   0.168  0.1220  1.2731 -2.1226
20631SOL     OW62470   4.499   9.261   2.143 -0.1096  0.4447 -0.0296
20631SOL    HW162471   4.438   9.302   2.205 -1.3353  0.6819 -1.3486
20631SOL    HW262472   4.582   9.307   2.157 -0.6239  1.1596  0.7451
20632SOL     OW62473   1.907   8.680   4.871 -0.5280  0.6628  0.4057
20632SOL    HW162474   1.891   8.753   4.930 -1.0055  2.0291 -1.3266
20632SOL    HW262475   1.923   8.721   4.786  0.0799 -1.2249 -0.4495
20633SOL     OW62476   1.984   0.552   2.715 -0.0063  0.1642  0.5082
20633SOL    HW162477   1.993   0.647   2.714  1.4392  0.0458  0.0301
20633SOL    HW262478   2.000   0.525   2.625  1.8591 -0.6887  1.0421
20634SOL     OW62479   8.939   2.870   8.835  0.2559 -0.1629  0.6732
20634SOL    HW162480   8.992   2.949   8.849 -2.1727  1.5488  0.7021
20634SOL    HW262481   8.944   2.854   8.741  0.2760  0.3700  0.5847
20635SOL     OW62482   3.123   7.599   3.699  0.0529  0.2942  1.0230
20635SOL    HW162483   3.077   7.670   3.654  1.1929  0.7265  0.5184
20635SOL    HW262484   3.210   7.598   3.660  0.3161 -0.8528  1.6028
20636SOL     OW62485   9.210   3.445   7.942 -0.2646 -0.4160 -0.3632
20636SOL    HW162486   9.146   3.374   7.949 -0.2181 -0.3214  1.8015
20636SOL    HW262487   9.294   3.404   7.959 -0.3171  0.2281  1.6989
20637SOL     OW62488   0.036   5.372   7.067  0.3525 -0.0563 -0.0055
20637SOL    HW162489   0.092   5.364   6.989  0.0693 -1.2674 -0.1132
20637SOL    HW262490   0.059   5.296   7.121  0.2771  0.5699  0.9238
20638SOL     OW62491   0.628   0.865   9.283 -0.3999 -0.3783 -0.2086
20638SOL    HW162492   0.678   0.787   9.260 -0.1579 -0.1149 -0.5771
20638SOL    HW262493   0.554   0.864   9.222 -0.6205 -0.5411  0.0593
20639SOL     OW62494   7.597   5.385   2.712  0.1311  0.4942  0.7271
20639SOL    HW162495   7.669   5.323   2.701 -1.8475 -1.5552 -1.7740
20639SOL    HW262496   7.549   5.352   2.788 -0.7831 -1.0115 -0.4561
20640SOL     OW62497   1.017   6.253   5.135 -0.6592 -0.1229 -0.5258
20640SOL    HW162498   0.986   6.274   5.223 -0.4095  0.3627 -0.5497
20640SOL    HW262499   1.060   6.168   5.145 -1.0873 -0.3153 -0.2863
20641SOL     OW62500   2.881   4.723   3.815  0.3654  0.1201  0.1996
20641SOL    HW162501   2.965   4.683   3.791  0.5779 -0.7505  2.1623
20641SOL    HW262502   2.902   4.815   3.830  0.4859  0.3924 -1.4718
20642SOL     OW62503   9.445   3.691   0.711 -0.3946 -0.2181  0.2069
20642SOL    HW162504   9.403   3.750   0.649 -1.7455 -1.0084  0.3418
20642SOL    HW262505   9.460   3.744   0.789  0.4768  0.5322 -0.4497
20643SOL     OW62506   7.227   1.222   9.303 -0.1132  0.0970  0.2360
20643SOL    HW162507   7.301   1.248   9.358  0.2832 -1.6339  0.5578
20643SOL    HW262508   7.222   1.290   9.236  2.2907 -0.1802 -0.3020
20644SOL     OW62509   7.311   5.915   5.408 -0.1468 -0.3435 -0.3137
20644SOL    HW162510   7.397   5.882   5.432 -0.1288  0.3933  0.6779
20644SOL    HW262511   7.327   5.969   5.330  0.5222  0.9057  0.6587
20645SOL     OW62512   0.611   0.731   4.103  0.2734  0.0361 -0.6970
20645SOL    HW162513   0.691   0.761   4.145 -0.4837 -1.5975  2.1574
20645SOL    HW262514   0.632   0.729   4.010  3.6264 -0.5687 -0.0397
20646SOL     OW62515   9.786   4.304   9.739 -0.1689  0.5975  0.3758
20646SOL    HW162516   9.834   4.267   9.666 -2.7482  0.4280 -1.3822
20646SOL    HW262517   9.851   4.354   9.789  2.0783 -0.9950 -0.8240
20647SOL     OW62518   2.658   3.688   6.536  0.3095 -0.0264 -0.1214
20647SOL    HW162519   2.652   3.781   6.557  2.5888  0.0368  0.5788
20647SOL    HW262520   2.637   3.643   6.617 -3.9427 -0.3719 -1.1852
20648SOL     OW62521   0.151   7.867   2.441 -0.3277 -0.4883  0.3626
20648SOL    HW162522   0.064   7.897   2.467  0.6006  1.5160  1.3225
20648SOL    HW262523   0.161   7.783   2.486 -2.3755 -1.6415 -1.1373
20649SOL     OW62524   5.797   7.030   2.115  0.2627  0.4374  0.0459
20649SOL    HW162525   5.800   6.939   2.145  0.1065  0.2553 -0.4847
20649SOL    HW262526   5.888   7.053   2.101  0.4695  0.9610  1.9198
20650SOL     OW62527   3.102   3.485   1.379 -0.2870  0.0156  0.2569
20650SOL    HW162528   3.035   3.544   1.343  0.5280  0.3297 -0.8015
20650SOL    HW262529   3.083   3.400   1.339  1.9052  0.7957 -2.8653
20651SOL     OW62530   4.803   8.877   7.346  0.5254 -0.0379  0.1493
20651SOL    HW162531   4.751   8.946   7.304  0.1394  0.4319  1.3495
20651SOL    HW262532   4.887   8.879   7.299  0.5136  1.2281  0.1239
20652SOL     OW62533   4.296   9.443   9.434  0.1209  0.6361 -0.2443
20652SOL    HW162534   4.388   9.468   9.428  0.3492  0.0783  0.7591
20652SOL    HW262535   4.262   9.496   9.507  0.0778 -0.3724  0.4929
20653SOL     OW62536   8.519   4.267   4.904  0.2989  0.7091  0.0053
20653SOL    HW162537   8.432   4.229   4.916  0.2238  0.8610 -0.0507
20653SOL    HW262538   8.507   4.360   4.921  0.2451  0.8945 -0.9604
20654SOL     OW62539   2.476   3.365   8.757 -0.6507  0.3007 -0.0396
20654SOL    HW162540   2.488   3.431   8.688 -1.3462  1.2696  0.7356
20654SOL    HW262541   2.394   3.321   8.734 -1.1133  0.9238  0.3944
20655SOL     OW62542   5.273   8.522   4.768 -0.4779  0.3785 -0.6220
20655SOL    HW162543   5.201   8.584   4.756 -0.6545 -0.1201 -2.4028
20655SOL    HW262544   5.245   8.466   4.839 -0.4180  2.1565  0.8847
20656SOL     OW62545   5.983   2.578   6.954 -0.4033  0.4009  0.0743
20656SOL    HW162546   6.046   2.603   6.886 -0.0901 -0.6939 -0.0665
20656SOL    HW262547   5.921   2.651   6.958 -0.1440  0.7001 -1.0487
20657SOL     OW62548   9.806   4.571   1.961  0.2848 -0.4965  0.3465
20657SOL    HW162549   9.847   4.545   1.879 -0.6464 -0.4007 -0.1657
20657SOL    HW262550   9.745   4.501   1.980 -0.9996  0.4475 -0.1428
20658SOL     OW62551   6.131   9.074   7.881 -0.0605  0.1392  0.4979
20658SOL    HW162552   6.082   9.016   7.939 -2.5462  1.6597  0.0804
20658SOL    HW262553   6.198   9.113   7.937 -0.0838 -1.0712  1.4232
20659SOL     OW62554   0.258   6.729   2.660  0.0939 -0.1644  0.1509
20659SOL    HW162555   0.291   6.760   2.576  0.4424 -2.0621 -0.4756
20659SOL    HW262556   0.164   6.717   2.647 -0.0791  0.8041  0.4639
20660SOL     OW62557   8.650   9.954   1.579 -0.5964  0.2920  0.2494
20660SOL    HW162558   8.648   9.891   1.507 -0.3687 -1.1154  1.4272
20660SOL    HW262559   8.648   9.900   1.658  2.7846  1.5635  1.3873
20661SOL     OW62560   3.593   5.659   4.902  0.1731 -0.0823 -0.1958
20661SOL    HW162561   3.618   5.589   4.963  1.3454  0.6667  0.2302
20661SOL    HW262562   3.666   5.721   4.906 -1.3481  1.7873  0.3764
20662SOL     OW62563   3.041   5.774   4.177 -0.7563  0.0831  0.3630
20662SOL    HW162564   3.039   5.694   4.228 -1.1632  0.3086  0.7092
20662SOL    HW262565   3.073   5.748   4.091 -2.2427 -0.7094  0.0204
20663SOL     OW62566   9.602   4.691   9.827 -0.3645  0.2210 -0.2020
20663SOL    HW162567   9.530   4.743   9.790  0.1170  1.9069  1.0791
20663SOL    HW262568   9.681   4.733   9.794  0.0720  1.6304  2.4095
20664SOL     OW62569   6.719   4.814   5.088  0.4991 -0.2592  0.5346
20664SOL    HW162570   6.664   4.891   5.072  1.8056  0.4236 -0.8608
20664SOL    HW262571   6.739   4.818   5.182 -1.4690 -0.3266  1.0108
20665SOL     OW62572   9.763   2.147   6.481  0.1278 -0.5520  0.5064
20665SOL    HW162573   9.798   2.060   6.502 -2.1297 -1.9797 -1.1638
20665SOL    HW262574   9.673   2.145   6.513 -0.1632  0.9192 -0.1412
20666SOL     OW62575   6.998   8.209   3.674  0.2738 -0.2316  0.6910
20666SOL    HW162576   7.038   8.220   3.588 -1.6269 -0.0478 -0.2240
20666SOL    HW262577   6.988   8.115   3.683  2.4423 -0.4257  1.7204
20667SOL     OW62578   3.923   0.380   4.268  0.3272  0.0436  0.4270
20667SOL    HW162579   3.897   0.472   4.279  1.1180  0.1532  1.5871
20667SOL    HW262580   3.840   0.332   4.261 -0.1376  0.6886  1.3146
20668SOL     OW62581   2.620   7.218   5.619 -0.2404 -0.3146  0.2509
20668SOL    HW162582   2.536   7.172   5.614 -0.5626  0.2327  0.5507
20668SOL    HW262583   2.638   7.225   5.713 -0.5755  0.8403  0.2407
20669SOL     OW62584   0.239   6.837   7.158 -0.4636  0.4065 -0.5864
20669SOL    HW162585   0.273   6.747   7.162  0.2701  0.5729 -2.2150
20669SOL    HW262586   0.205   6.854   7.246  0.5426 -1.0136  0.1147
20670SOL     OW62587   0.824   5.467   8.610  0.4097  0.0827  0.0340
20670SOL    HW162588   0.886   5.453   8.681 -0.6627  2.0298  1.4310
20670SOL    HW262589   0.853   5.548   8.568  0.9520 -0.9660 -1.7324
20671SOL     OW62590   2.610   5.196   3.385  0.1334 -0.2678  0.2860
20671SOL    HW162591   2.637   5.217   3.295 -1.1434  1.5086  0.2721
20671SOL    HW262592   2.572   5.277   3.418 -1.5237 -1.5381  1.6535
20672SOL     OW62593   0.724   8.279   6.034  0.0551 -0.2620 -0.5801
20672SOL    HW162594   0.718   8.190   5.999 -0.6642 -0.1015 -0.8886
20672SOL    HW262595   0.680   8.275   6.119 -0.9898  0.0329 -1.0848
20673SOL     OW62596   8.249   8.936   8.564 -0.4994  0.1957  0.1858
20673SOL    HW162597   8.301   8.962   8.640 -0.3007  0.9929 -0.2108
20673SOL    HW262598   8.185   8.874   8.599 -0.2656  0.3754  0.9596
20674SOL     OW62599   6.690   8.749   6.360  0.0038  0.0048  0.8029
20674SOL    HW162600   6.627   8.699   6.411 -1.5864 -0.0728 -1.1397
20674SOL    HW262601   6.696   8.833   6.405 -2.1566  0.3276  0.5714
20675SOL     OW62602   6.072   7.070   7.856 -0.2881 -0.3053 -0.1589
20675SOL    HW162603   6.066   7.078   7.951  0.6317  1.0167 -0.1787
20675SOL    HW262604   6.132   6.997   7.842 -0.3431 -0.4396  0.2771
20676SOL     OW62605   4.238   8.917   6.558 -0.0907  0.5114 -0.1039
20676SOL    HW162606   4.168   8.856   6.582 -0.1572  1.5908  2.9405
20676SOL    HW262607   4.256   8.966   6.639  1.2943  3.1894 -1.8799
20677SOL     OW62608   5.567   2.304   9.897  0.2430  0.2084  0.3382
20677SOL    HW162609   5.512   2.349   9.832  0.6345  0.9874  0.5318
20677SOL    HW262610   5.516   2.309   9.978  0.9911  1.8097  0.7526
20678SOL     OW62611   1.778   4.606   5.429 -0.0852 -0.4218 -0.3967
20678SOL    HW162612   1.805   4.524   5.388  1.0330  0.2179 -1.0001
20678SOL    HW262613   1.701   4.634   5.380 -0.8327 -1.3833  0.1857
20679SOL     OW62614   6.006   8.449   3.663  0.0162  0.4502  0.3991
20679SOL    HW162615   6.024   8.505   3.587 -0.4643  0.4602  0.2934
20679SOL    HW262616   6.074   8.382   3.658  0.0139  0.4739 -0.0164
20680SOL     OW62617   2.970   4.662   8.876  0.6439  0.7573  0.8893
20680SOL    HW162618   3.063   4.646   8.894  0.5108 -1.3963 -0.0406
20680SOL    HW262619   2.928   4.659   8.962  1.2974  0.7229  1.2107
20681SOL     OW62620   8.767   3.688   2.375 -0.2822 -0.3337 -0.1550
20681SOL    HW162621   8.724   3.603   2.384 -1.9189  0.4550 -0.0817
20681SOL    HW262622   8.706   3.741   2.323  0.7414  0.7697 -0.2919
20682SOL     OW62623   4.624   2.162   3.893 -0.1141 -0.3321  0.8791
20682SOL    HW162624   4.677   2.238   3.868 -2.5376  1.3890  0.6241
20682SOL    HW262625   4.653   2.140   3.981  0.1891  1.3796  1.2488
20683SOL     OW62626   2.536   3.443   1.624 -0.6898  0.0617  0.8024
20683SOL    HW162627   2.501   3.474   1.540  0.9046  0.5793  0.2867
20683SOL    HW262628   2.494   3.499   1.689 -0.0058  1.4475  0.1088
20684SOL     OW62629   4.455   7.286   0.669  0.1874  0.3388  0.0807
20684SOL    HW162630   4.493   7.237   0.742  1.6169 -1.0704 -1.5487
20684SOL    HW262631   4.523   7.348   0.644  0.6600 -0.7729 -1.5114
20685SOL     OW62632   3.420   8.405  -0.003  0.4106  0.5654  0.5584
20685SOL    HW162633   3.457   8.447   0.074 -0.4425 -0.3754  1.5051
20685SOL    HW262634   3.455   8.316  -0.002  0.9021  0.7289 -0.5112
20686SOL     OW62635   0.765   4.630   3.733  0.2993  0.1597 -0.3520
20686SOL    HW162636   0.814   4.705   3.767  1.0759 -0.5422  0.0980
20686SOL    HW262637   0.763   4.568   3.805 -3.6468  1.1976  0.6719
20687SOL     OW62638   6.669   0.976   6.124 -0.1583 -0.7867 -0.0210
20687SOL    HW162639   6.693   0.991   6.215 -0.1958  1.1035 -0.2665
20687SOL    HW262640   6.625   1.058   6.098 -0.4975 -1.4453 -1.6136
20688SOL     OW62641   8.922   3.599   1.789 -0.5264 -0.0241  0.1997
20688SOL    HW162642   8.936   3.616   1.696 -0.6501  0.0694  0.1983
20688SOL    HW262643   8.897   3.507   1.794 -0.4213 -0.0552  0.1499
20689SOL     OW62644   6.725   5.040   5.388  0.2859  0.2949 -0.1884
20689SOL    HW162645   6.730   5.079   5.301 -1.8579  0.1731 -0.4235
20689SOL    HW262646   6.700   4.949   5.372  1.7283 -0.2363  0.4955
20690SOL     OW62647   3.550   4.121   5.276  0.0155 -0.4648 -0.2569
20690SOL    HW162648   3.517   4.036   5.304 -0.7183 -0.8617 -2.1126
20690SOL    HW262649   3.638   4.126   5.312 -0.1747 -1.7274  0.4466
20691SOL     OW62650   8.679   9.502   5.381 -0.6687  0.8997  0.8435
20691SOL    HW162651   8.666   9.590   5.417 -2.8925  0.1593  2.0742
20691SOL    HW262652   8.657   9.443   5.454 -0.4907 -0.6691 -0.3217
20692SOL     OW62653   8.330   8.910   6.499 -0.0242  0.0072  0.1624
20692SOL    HW162654   8.340   8.820   6.532 -1.7690 -0.1052  0.4654
20692SOL    HW262655   8.340   8.902   6.404  0.3107 -0.4356  0.2336
20693SOL     OW62656   5.471   7.410   3.132  0.0232 -0.6124  0.3949
20693SOL    HW162657   5.524   7.413   3.052 -0.3204  1.4877  0.1842
20693SOL    HW262658   5.536   7.410   3.203  0.3148 -0.8382  0.1348
20694SOL     OW62659   6.194   6.168   5.555  0.3076 -0.4181 -0.6378
20694SOL    HW162660   6.118   6.198   5.506  0.8732  0.8766 -0.7470
20694SOL    HW262661   6.232   6.247   5.593  0.8645 -1.1970  0.4917
20695SOL     OW62662   0.658   7.908   6.959  0.7461 -0.2056 -0.2776
20695SOL    HW162663   0.569   7.874   6.960  1.4099 -2.0990 -0.9771
20695SOL    HW262664   0.683   7.912   7.052  0.1473 -0.2198 -0.1125
20696SOL     OW62665   7.332   9.626   4.792 -0.3786 -0.2746 -0.8927
20696SOL    HW162666   7.396   9.557   4.772 -0.6003 -1.1127  1.0391
20696SOL    HW262667   7.247   9.583   4.781 -0.5129 -0.5476  0.8667
20697SOL     OW62668   5.295   2.483   4.894 -0.1053 -0.2681  0.1053
20697SOL    HW162669   5.206   2.517   4.898 -0.9042 -1.9037 -1.9194
20697SOL    HW262670   5.342   2.544   4.837 -0.2951 -0.1255  0.1021
20698SOL     OW62671   3.279   3.718   2.184 -0.0075 -0.0953 -0.2799
20698SOL    HW162672   3.231   3.730   2.102 -1.2874 -0.1536  0.4296
20698SOL    HW262673   3.350   3.658   2.162  0.9574  1.5024 -1.8066
20699SOL     OW62674   6.040   5.214   5.175 -0.3231 -0.5519 -0.2004
20699SOL    HW162675   5.991   5.296   5.165 -0.0764 -0.5624 -1.6513
20699SOL    HW262676   6.023   5.188   5.266 -1.8257  0.1999 -0.2255
20700SOL     OW62677   1.360   1.141   2.934 -0.4890 -0.6818 -0.1314
20700SOL    HW162678   1.441   1.104   2.970  0.5402 -0.9942 -2.5791
20700SOL    HW262679   1.295   1.127   3.003  0.9932 -2.6009  0.9937
20701SOL     OW62680   5.512   1.362   5.433 -0.0981 -0.6320 -0.3885
20701SOL    HW162681   5.464   1.319   5.504  1.0734 -0.8898  0.2671
20701SOL    HW262682   5.465   1.444   5.418 -1.2504 -1.2659 -0.3673
20702SOL     OW62683   9.345   1.256   1.436  0.4504  0.1717  0.0128
20702SOL    HW162684   9.332   1.285   1.346  1.5437  1.6350  0.2895
20702SOL    HW262685   9.439   1.258   1.449  0.2928  0.2677  1.2902
20703SOL     OW62686   8.731   1.784   6.045  0.0280 -0.1163  0.4977
20703SOL    HW162687   8.677   1.764   6.121  0.3661 -0.9694  0.5168
20703SOL    HW262688   8.759   1.875   6.059 -1.1061  0.2216  0.6505
20704SOL     OW62689   2.703   7.694   3.716  0.3803  0.0056  0.1780
20704SOL    HW162690   2.774   7.647   3.673  0.2153  0.4711 -0.6063
20704SOL    HW262691   2.643   7.625   3.745  0.7076 -0.3317  0.0640
20705SOL     OW62692   8.892   7.359   4.315  0.2340  0.0979 -0.1959
20705SOL    HW162693   8.907   7.453   4.308 -0.0693  0.1203 -0.6482
20705SOL    HW262694   8.837   7.339   4.239 -1.4940 -0.0722  1.0391
20706SOL     OW62695   5.856   3.691   6.543  0.6180  0.2606 -0.4954
20706SOL    HW162696   5.762   3.675   6.540  0.6227 -0.0220  0.4565
20706SOL    HW262697   5.894   3.621   6.491  0.2983  0.4273 -0.9573
20707SOL     OW62698   7.147   5.685   6.357 -0.9811  0.2679  0.0938
20707SOL    HW162699   7.131   5.721   6.444  0.1564 -0.7889  0.7636
20707SOL    HW262700   7.137   5.759   6.298  0.9564  1.6514  1.3958
20708SOL     OW62701   6.461   7.271   3.681  0.4056 -0.1598 -0.1839
20708SOL    HW162702   6.478   7.189   3.727  2.0389  0.7663  0.9453
20708SOL    HW262703   6.371   7.294   3.705 -0.1993 -1.7431 -0.7837
20709SOL     OW62704   5.359   6.877   2.821 -0.4342 -1.1617  0.5846
20709SOL    HW162705   5.376   6.784   2.841 -1.3292 -1.4802 -0.0956
20709SOL    HW262706   5.268   6.879   2.792 -0.2373 -0.1661 -0.0031
20710SOL     OW62707   1.071   0.138   7.424 -0.5943  0.3062  0.3070
20710SOL    HW162708   1.000   0.081   7.454 -0.2572  0.3408  1.2273
20710SOL    HW262709   1.086   0.113   7.333  0.6674 -2.2831  1.1203
20711SOL     OW62710   2.300   4.833   0.341 -0.1753 -0.0827 -0.3213
20711SOL    HW162711   2.316   4.804   0.431 -1.0420 -1.7238 -0.6593
20711SOL    HW262712   2.353   4.912   0.332 -0.2456  0.2529  1.6988
20712SOL     OW62713   0.199   0.781   9.527  0.1035  0.1060 -0.5553
20712SOL    HW162714   0.196   0.698   9.479  0.6819  0.5194 -1.3371
20712SOL    HW262715   0.219   0.847   9.460 -0.6036  0.9188  0.0036
20713SOL     OW62716   4.195   2.371   6.055  0.2399  0.3442  0.0996
20713SOL    HW162717   4.178   2.294   6.001  0.6668 -1.4541  2.3974
20713SOL    HW262718   4.155   2.351   6.139  0.4948  2.5980  0.8208
20714SOL     OW62719   8.380   1.303   0.742 -0.0448  0.4717  0.2264
20714SOL    HW162720   8.394   1.376   0.682 -2.7071  1.1495  0.3080
20714SOL    HW262721   8.309   1.252   0.703 -1.2985  0.4726  2.3545
20715SOL     OW62722   6.506   2.202   6.961  0.2762 -0.5716 -0.1022
20715SOL    HW162723   6.526   2.167   6.874 -1.6995  0.6859 -1.1460
20715SOL    HW262724   6.414   2.180   6.975 -0.0396  1.1058  0.7214
20716SOL     OW62725   4.306   1.273   3.795 -0.0705 -0.0714 -0.8387
20716SOL    HW162726   4.393   1.293   3.829  0.5022 -2.0849 -1.0117
20716SOL    HW262727   4.288   1.184   3.826 -2.1820  0.3785 -0.6025
20717SOL     OW62728   8.517   9.868   4.009  0.2046  0.2770 -0.1593
20717SOL    HW162729   8.445   9.896   3.952 -0.5506 -0.2562  0.5089
20717SOL    HW262730   8.513   9.772   4.007  0.7135  0.2457  0.1179
20718SOL     OW62731   5.182   8.011   8.149 -0.1007 -0.6704  0.2941
20718SOL    HW162732   5.131   7.931   8.158 -0.3614 -0.3130  2.9554
20718SOL    HW262733   5.194   8.042   8.239  0.2118  2.1439 -0.6141
20719SOL     OW62734   0.999   5.846   1.200  0.0613 -0.2891  0.0357
20719SOL    HW162735   0.904   5.844   1.196 -0.0606  1.1870  1.4841
20719SOL    HW262736   1.026   5.757   1.176 -1.6457 -0.6407 -0.6966
20720SOL     OW62737   8.443   7.506   9.937  0.1065 -0.4611 -0.2032
20720SOL    HW162738   8.536   7.529   9.930  0.7022 -2.8781 -1.0364
20720SOL    HW262739   8.407   7.530   9.851  0.1133 -0.1638 -0.1242
20721SOL     OW62740   5.332   0.186   9.662 -0.3831 -0.2991 -0.5818
20721SOL    HW162741   5.260   0.240   9.631 -1.4763 -1.8812 -0.9279
20721SOL    HW262742   5.299   0.096   9.656  1.7744 -1.1175 -1.1693
20722SOL     OW62743   0.571   0.712   3.564 -0.2583 -0.2613 -0.3063
20722SOL    HW162744   0.488   0.711   3.611  0.2928 -0.3125  0.6863
20722SOL    HW262745   0.546   0.710   3.471 -1.3624 -0.0406 -0.0264
20723SOL     OW62746   2.084   0.942   4.040 -0.1444 -0.2866 -0.0268
20723SOL    HW162747   2.076   0.979   4.128  1.0496  1.4132 -0.5741
20723SOL    HW262748   2.167   0.977   4.007 -0.1828 -1.5343 -1.5419
20724SOL     OW62749   1.470   9.021   2.737  0.6572  0.3205  0.1454
20724SOL    HW162750   1.550   8.973   2.756  0.4116 -0.0338  0.3212
20724SOL    HW262751   1.496   9.092   2.680  0.9045 -0.5025 -0.7938
20725SOL     OW62752   3.371   0.897   1.440 -0.0374 -0.2988  0.0164
20725SOL    HW162753   3.337   0.940   1.361 -0.8402  1.4698  1.2362
20725SOL    HW262754   3.453   0.944   1.459 -0.3663 -0.0106  0.7698
20726SOL     OW62755   3.385   1.404   2.719  0.1119  0.3934 -0.2578
20726SOL    HW162756   3.378   1.499   2.703  1.2582  0.4813 -0.2872
20726SOL    HW262757   3.320   1.366   2.659 -2.3887  1.2773  1.6842
20727SOL     OW62758   5.758   0.545   1.278  0.0958 -0.3725  0.2832
20727SOL    HW162759   5.851   0.529   1.262  0.3934  1.8637 -0.5840
20727SOL    HW262760   5.729   0.595   1.202 -1.7307 -0.6556  0.7501
20728SOL     OW62761   7.492   2.343   7.595  0.1917  0.1575  0.1528
20728SOL    HW162762   7.527   2.262   7.558 -0.4405  0.1986 -0.5354
20728SOL    HW262763   7.509   2.409   7.528 -2.5997 -0.1063 -0.9188
20729SOL     OW62764   2.334   3.033   8.590  0.1748  0.0298  0.0687
20729SOL    HW162765   2.291   3.108   8.630  2.4933  1.4935  0.0228
20729SOL    HW262766   2.374   2.986   8.663  0.2382 -0.1263 -0.0653
20730SOL     OW62767   8.774   9.623   6.475  0.7518  0.1456  0.0137
20730SOL    HW162768   8.840   9.591   6.414  1.1400 -0.0485  0.5265
20730SOL    HW262769   8.748   9.546   6.525 -0.3033  0.1024 -0.5827
20731SOL     OW62770   9.601   6.201   1.392  0.5136 -0.3611  0.0071
20731SOL    HW162771   9.521   6.221   1.344  0.1443 -1.7685 -0.0050
20731SOL    HW262772   9.643   6.286   1.406 -1.3643  0.4998  0.7121
20732SOL     OW62773   3.187   1.235   2.587 -0.2347  0.4229 -0.0978
20732SOL    HW162774   3.242   1.245   2.509  0.2248 -1.4324 -0.0680
20732SOL    HW262775   3.193   1.142   2.609 -2.3153  0.4227  0.7350
20733SOL     OW62776   8.731   0.520   0.937 -0.0933 -0.3423  0.4377
20733SOL    HW162777   8.807   0.563   0.899  1.3469 -1.1388  2.2221
20733SOL    HW262778   8.674   0.500   0.863  0.7842  1.5065 -0.7873
20734SOL     OW62779   5.364   9.851   8.638  0.1226 -0.0547 -0.0360
20734SOL    HW162780   5.298   9.816   8.579 -0.2855  1.2109 -0.3418
20734SOL    HW262781   5.417   9.774   8.662 -0.5834 -0.8325 -0.8878
20735SOL     OW62782   4.877   3.156   2.808 -0.0596 -0.0216 -0.2152
20735SOL    HW162783   4.878   3.224   2.740  0.2855 -0.4073 -0.6028
20735SOL    HW262784   4.831   3.196   2.881  1.0852  1.0318 -0.0288
20736SOL     OW62785   9.372   6.042   5.146  0.4646 -0.5541 -0.3512
20736SOL    HW162786   9.325   5.991   5.213 -0.8906  2.0668  0.8437
20736SOL    HW262787   9.443   6.084   5.194 -0.3202  1.0858 -0.5386
20737SOL     OW62788   8.890   2.733   4.704 -1.0556  0.3419 -0.1261
20737SOL    HW162789   8.972   2.752   4.660 -1.8014  1.3992 -1.1379
20737SOL    HW262790   8.910   2.739   4.797  0.4441 -1.4119 -0.2780
20738SOL     OW62791   1.505   9.713   4.610 -0.2059  0.1445  0.0002
20738SOL    HW162792   1.431   9.665   4.648  0.8542 -0.8117  0.9414
20738SOL    HW262793   1.523   9.784   4.672 -0.2292  0.2702 -0.1369
20739SOL     OW62794   7.260   5.340   7.433 -0.6596 -0.1202  0.2367
20739SOL    HW162795   7.212   5.393   7.370  1.3611 -0.4902 -1.7459
20739SOL    HW262796   7.336   5.393   7.457  1.0855 -1.7703 -1.3351
20740SOL     OW62797   3.248   5.495   6.437 -0.1885 -0.6823 -0.2110
20740SOL    HW162798   3.326   5.441   6.451  0.4671  0.5943  1.4513
20740SOL    HW262799   3.239   5.544   6.519 -0.3714  2.1678 -1.8245
20741SOL     OW62800   6.507   7.142   2.860  0.1758 -0.4223  0.3831
20741SOL    HW162801   6.428   7.196   2.861  0.1563 -0.3807 -0.9083
20741SOL    HW262802   6.490   7.076   2.792  1.3004 -0.3014 -0.0416
20742SOL     OW62803   9.480   3.068   1.553  0.3162 -0.6153  0.0150
20742SOL    HW162804   9.556   3.123   1.573  0.0557 -1.2374  3.4303
20742SOL    HW262805   9.516   2.992   1.508  1.7007 -0.7329  1.2495
20743SOL     OW62806   8.107   2.387   0.839  0.2123 -0.1756 -0.4564
20743SOL    HW162807   8.186   2.371   0.890  0.7557  0.0703 -1.2032
20743SOL    HW262808   8.120   2.474   0.800 -0.7532  0.1959 -0.0027
20744SOL     OW62809   1.623   2.260   8.918  0.2932 -0.5018  0.1365
20744SOL    HW162810   1.557   2.221   8.861  0.2874 -0.5065  0.1470
20744SOL    HW262811   1.611   2.354   8.908 -2.0783 -0.4124  2.8348
20745SOL     OW62812   3.354   5.013   5.964  0.2026 -0.1067  0.3600
20745SOL    HW162813   3.261   4.993   5.958  0.7061 -2.6368 -0.3237
20745SOL    HW262814   3.390   4.945   6.022  1.7361  0.3241 -0.0342
20746SOL     OW62815   7.149   5.255   9.683  0.3657  0.1495 -0.5734
20746SOL    HW162816   7.093   5.325   9.716  0.1154 -0.2748 -0.0685
20746SOL    HW262817   7.172   5.282   9.595 -0.7163  0.2986 -0.8295
20747SOL     OW62818   1.327   8.376   5.669 -0.3225  0.6460 -0.2603
20747SOL    HW162819   1.261   8.311   5.694  0.4289  0.1403  0.5014
20747SOL    HW262820   1.290   8.420   5.593 -0.9254 -0.5611 -0.6932
20748SOL     OW62821   8.787   2.100   0.120  0.2079  0.3305 -0.2342
20748SOL    HW162822   8.712   2.066   0.168  1.3049 -0.7636  0.7886
20748SOL    HW262823   8.765   2.087   0.027  0.6690 -3.6981  0.0365
20749SOL     OW62824   3.435   2.657   9.791  0.8281  0.2492  0.0130
20749SOL    HW162825   3.386   2.679   9.712  1.0066  0.3952 -0.0581
20749SOL    HW262826   3.525   2.646   9.762  0.7537 -0.5460  0.0582
20750SOL     OW62827   7.212   3.248   9.802 -0.2787  0.1440 -0.2841
20750SOL    HW162828   7.300   3.270   9.770 -0.9096  2.3526 -0.6782
20750SOL    HW262829   7.219   3.157   9.830  2.3284  0.4517  0.3449
20751SOL     OW62830   8.994   3.646   6.025  0.3832 -0.4788  0.1443
20751SOL    HW162831   8.940   3.687   6.092  1.2882 -0.4520  0.8844
20751SOL    HW262832   9.078   3.692   6.030  0.8331 -1.2298 -0.2372
20752SOL     OW62833   6.565   9.212   0.852  0.6900  0.0493 -0.5517
20752SOL    HW162834   6.483   9.194   0.805 -0.7207 -1.2065  2.1720
20752SOL    HW262835   6.609   9.126   0.857 -1.5098 -1.1207  4.3007
20753SOL     OW62836   9.675   5.985   4.188 -0.0010 -0.0134  0.2776
20753SOL    HW162837   9.588   6.025   4.186 -0.6444 -1.3645 -2.0787
20753SOL    HW262838   9.718   6.016   4.108  1.9408  1.0268  1.6308
20754SOL     OW62839   9.877   5.192   1.427 -0.0805  0.4228  0.6227
20754SOL    HW162840   9.925   5.209   1.508 -0.4603  0.5559  0.8179
20754SOL    HW262841   9.840   5.276   1.402 -0.0742  0.3556  0.3795
20755SOL     OW62842   4.882   5.667   0.781  0.1426  0.2152 -0.9287
20755SOL    HW162843   4.844   5.714   0.856  0.2272 -2.5032  0.9855
20755SOL    HW262844   4.806   5.637   0.731 -0.2613 -2.2048  0.9482
20756SOL     OW62845   6.896   5.839   4.017 -0.1833  0.0370 -0.4422
20756SOL    HW162846   6.900   5.842   4.113  3.6997 -0.2855 -0.4296
20756SOL    HW262847   6.925   5.751   3.994 -0.0197  0.4388 -1.9194
20757SOL     OW62848   4.150   6.087   3.342  0.1173 -0.0044 -0.5430
20757SOL    HW162849   4.076   6.072   3.401 -0.7298  0.9259 -1.3458
20757SOL    HW262850   4.226   6.055   3.391 -0.7108 -0.3319  0.5735
20758SOL     OW62851   9.278   0.338   4.624  0.7270  0.2027 -0.1486
20758SOL    HW162852   9.263   0.428   4.596  1.7062  1.0010  1.7261
20758SOL    HW262853   9.329   0.299   4.552 -1.6671  0.3621 -2.0577
20759SOL     OW62854   5.022   8.438   1.263  0.1277 -0.8298  0.0740
20759SOL    HW162855   5.003   8.504   1.330 -0.2962 -1.6519  0.7901
20759SOL    HW262856   4.944   8.383   1.261 -0.3871 -0.1173 -1.9965
20760SOL     OW62857   9.852   8.055   5.242  0.5504 -0.0946 -0.2661
20760SOL    HW162858   9.948   8.065   5.245  0.5700 -0.3232  2.6289
20760SOL    HW262859   9.829   8.074   5.151  3.3465 -0.1095 -1.0754
20761SOL     OW62860   0.923   3.825   6.332  0.6767 -0.5321  0.5433
20761SOL    HW162861   0.978   3.874   6.272  0.5605 -0.8210  0.1998
20761SOL    HW262862   0.973   3.747   6.353  0.0752 -1.2047 -0.4178
20762SOL     OW62863   9.989   3.842   5.105  0.2995  0.1232 -0.5294
20762SOL    HW162864   9.986   3.779   5.176  4.2563 -1.5879 -1.6294
20762SOL    HW262865   9.939   3.801   5.034  0.4406 -0.4682 -0.2894
20763SOL     OW62866   9.482   4.050   2.069  0.4790 -0.6050  0.9328
20763SOL    HW162867   9.532   4.115   2.021 -0.4578  1.3360  2.4194
20763SOL    HW262868   9.398   4.044   2.023 -0.2669  0.9579  1.9863
20764SOL     OW62869   7.222   1.714   2.979 -0.1649  0.2438 -0.0937
20764SOL    HW162870   7.212   1.633   3.028 -0.2891 -0.4434 -1.2281
20764SOL    HW262871   7.306   1.705   2.934 -0.2324  0.7053 -0.3165
20765SOL     OW62872   7.391   5.643   8.590  0.3022 -0.2681 -0.2352
20765SOL    HW162873   7.400   5.722   8.642 -1.7289  0.6813 -1.2383
20765SOL    HW262874   7.418   5.669   8.501  0.4117 -0.9235 -0.4018
20766SOL     OW62875   8.968   1.234   5.716 -0.3319 -0.1299 -0.2360
20766SOL    HW162876   8.922   1.208   5.637 -0.1295  0.8518 -0.6862
20766SOL    HW262877   9.061   1.230   5.693 -0.1477 -2.0746  0.6576
20767SOL     OW62878   9.514   8.532   6.451  0.5041  0.1553  0.1167
20767SOL    HW162879   9.503   8.557   6.360  1.0326  0.9886  0.2715
20767SOL    HW262880   9.440   8.473   6.469 -0.5614  1.3046 -0.3761
20768SOL     OW62881   0.509   7.093   4.962 -0.2808 -0.0568 -0.0278
20768SOL    HW162882   0.499   7.108   4.868  0.5408 -0.3645 -0.1741
20768SOL    HW262883   0.602   7.107   4.978 -0.5908  0.9981  0.9268
20769SOL     OW62884   7.540   2.007   5.667 -0.0320 -0.4200 -1.1780
20769SOL    HW162885   7.483   1.935   5.695  0.1901  0.4952  1.9794
20769SOL    HW262886   7.485   2.058   5.607 -1.5700 -1.1275 -0.4462
20770SOL     OW62887   0.547   4.608   5.579 -0.4324  0.0078  0.2822
20770SOL    HW162888   0.550   4.513   5.566  0.9575  0.0190  0.3584
20770SOL    HW262889   0.604   4.624   5.654 -2.6497  0.6727  1.8967
20771SOL     OW62890   9.372   1.814   9.425 -0.3248 -0.0328  0.0864
20771SOL    HW162891   9.419   1.895   9.409 -0.0685 -0.2236 -0.1316
20771SOL    HW262892   9.325   1.830   9.507 -1.5293  0.8888 -0.7481
20772SOL     OW62893   1.667   2.284   1.421 -0.2409 -0.6933  0.4793
20772SOL    HW162894   1.646   2.300   1.513 -1.4761 -1.6909  0.3916
20772SOL    HW262895   1.716   2.362   1.395 -2.6193  1.1767  1.1334
20773SOL     OW62896   4.269   0.185   1.510  0.2966 -0.2464  0.2420
20773SOL    HW162897   4.193   0.173   1.453  2.0239  0.5999 -2.4334
20773SOL    HW262898   4.320   0.105   1.498  0.9232  0.1549  0.1965
20774SOL     OW62899   8.807   1.918   9.398  0.5878  0.0848 -0.6876
20774SOL    HW162900   8.830   1.984   9.464 -1.9616 -0.5183  0.9465
20774SOL    HW262901   8.797   1.837   9.448 -1.2072 -0.4525 -1.8327
20775SOL     OW62902   6.456   0.683   9.956  0.4806 -0.4820 -0.7860
20775SOL    HW162903   6.525   0.617   9.959 -1.8636 -3.1302 -0.7043
20775SOL    HW262904   6.378   0.635   9.926 -1.2941  2.3778 -1.1571
20776SOL     OW62905   9.404   2.232   5.343 -0.1763  0.2006 -0.0680
20776SOL    HW162906   9.393   2.192   5.256 -0.1531  0.9003 -0.4004
20776SOL    HW262907   9.418   2.158   5.402  1.3286 -0.2229 -0.8942
20777SOL     OW62908   2.667   3.132   5.374 -0.4168  0.6824  0.8898
20777SOL    HW162909   2.587   3.167   5.337  0.5349  1.4600 -0.5071
20777SOL    HW262910   2.726   3.121   5.300  0.7738  0.0882  1.8692
20778SOL     OW62911   6.512   6.169   4.635  0.0497 -0.2494 -0.4437
20778SOL    HW162912   6.561   6.106   4.582  0.1554  1.3871 -2.4056
20778SOL    HW262913   6.422   6.136   4.636 -0.0319 -0.1231 -2.0089
20779SOL     OW62914   4.186   0.945   0.358  0.4425  0.4157  0.3673
20779SOL    HW162915   4.281   0.935   0.351  0.3597 -0.0311 -0.1318
20779SOL    HW262916   4.166   0.921   0.449  0.4687 -2.3112 -0.2742
20780SOL     OW62917   9.825   2.332   3.144 -0.2798  0.1072  0.0683
20780SOL    HW162918   9.910   2.375   3.140 -0.0230 -0.1290  2.1134
20780SOL    HW262919   9.843   2.240   3.128 -0.2422  0.1462 -0.1153
20781SOL     OW62920   1.294   0.058   6.542  0.0239 -0.3533 -0.2239
20781SOL    HW162921   1.323   0.055   6.633 -0.6513 -0.8268 -0.0190
20781SOL    HW262922   1.230  -0.013   6.534 -1.2147  0.7612 -0.6048
20782SOL     OW62923   5.762   0.998   6.848  0.2906 -0.0478 -0.5890
20782SOL    HW162924   5.698   0.927   6.846  1.0239 -0.7053 -1.8506
20782SOL    HW262925   5.841   0.960   6.810  1.9751  0.2680  2.3148
20783SOL     OW62926   8.172   0.247   9.236  0.0852  0.1825  1.1374
20783SOL    HW162927   8.228   0.192   9.181 -0.4270  0.5854  0.1934
20783SOL    HW262928   8.088   0.247   9.192 -0.3662  0.4381  1.9842
20784SOL     OW62929   5.735   8.255   2.726 -0.0741  0.0344  0.1916
20784SOL    HW162930   5.762   8.181   2.672 -1.5225  0.2104 -0.8482
20784SOL    HW262931   5.654   8.285   2.686 -0.8459  0.6298  2.0718
20785SOL     OW62932   2.200   8.515   2.336 -0.2560  0.0311 -0.6244
20785SOL    HW162933   2.191   8.517   2.241  1.7737 -0.0088 -0.8772
20785SOL    HW262934   2.174   8.427   2.362  0.6606 -0.4794 -1.3733
20786SOL     OW62935   9.168   3.535   0.736 -0.2869  0.1141 -1.0655
20786SOL    HW162936   9.258   3.558   0.762 -0.0633 -0.8611 -0.9651
20786SOL    HW262937   9.113   3.570   0.806  0.2651 -2.0123  0.5172
20787SOL     OW62938   3.423   4.296   3.802  0.1397 -0.1817 -0.6412
20787SOL    HW162939   3.489   4.234   3.834 -0.4780 -0.1565  0.7529
20787SOL    HW262940   3.453   4.381   3.833 -0.2546 -0.0981 -0.4885
20788SOL     OW62941   2.821   7.840   0.825 -0.2892  0.2218  0.4498
20788SOL    HW162942   2.810   7.764   0.769  0.4346 -0.9205  1.8073
20788SOL    HW262943   2.910   7.832   0.860 -0.4088  1.3731  1.0917
20789SOL     OW62944   5.175   0.609   1.496  0.6685 -0.4589 -0.0361
20789SOL    HW162945   5.113   0.654   1.439  0.6537 -1.0606 -0.5021
20789SOL    HW262946   5.247   0.583   1.438  1.7334  0.8783  0.6242
20790SOL     OW62947   1.371   0.280   2.857  0.2028 -0.2498  0.3192
20790SOL    HW162948   1.351   0.331   2.935 -2.5495  1.6742 -1.5075
20790SOL    HW262949   1.298   0.219   2.848  0.6901 -0.7358 -0.5754
20791SOL     OW62950   7.630   1.815   3.330  0.4936  0.1727 -0.5923
20791SOL    HW162951   7.645   1.903   3.362  0.6396  0.9669 -2.6961
20791SOL    HW262952   7.613   1.763   3.409 -0.3642  2.2046  0.6328
20792SOL     OW62953   1.896   6.827   1.689  0.2350  0.5009 -0.3670
20792SOL    HW162954   1.891   6.732   1.688  1.2619  0.3648 -3.3815
20792SOL    HW262955   1.881   6.851   1.780 -3.7426 -2.2712 -0.0540
20793SOL     OW62956   1.061   7.626   2.909 -0.5048 -0.3337 -0.4631
20793SOL    HW162957   0.967   7.624   2.922 -0.3459 -0.8764  0.7121
20793SOL    HW262958   1.088   7.535   2.912 -0.0405 -0.2551 -1.6938
20794SOL     OW62959   0.671   5.716   3.636  0.2049 -0.3232 -0.1322
20794SOL    HW162960   0.655   5.630   3.596 -0.2857  0.2100 -1.1235
20794SOL    HW262961   0.752   5.747   3.594 -0.9585  0.7620 -1.6673
20795SOL     OW62962   5.608   4.587   7.698 -0.3686  0.1580 -0.1876
20795SOL    HW162963   5.649   4.569   7.613 -0.5198  0.0120 -0.2308
20795SOL    HW262964   5.550   4.512   7.712  0.4238 -0.3455  0.5229
20796SOL     OW62965   0.424   5.943   1.804 -0.4041 -0.4683 -0.4526
20796SOL    HW162966   0.431   6.035   1.777  1.9184 -0.5842 -0.4915
20796SOL    HW262967   0.406   5.896   1.723  0.6383 -0.2272 -0.8516
20797SOL     OW62968   5.280   8.530   1.519  0.4002  0.3289  0.2098
20797SOL    HW162969   5.342   8.459   1.507  0.0245  0.2797 -1.8188
20797SOL    HW262970   5.194   8.491   1.501  0.0416  0.9621  0.4933
20798SOL     OW62971   5.694   7.565   5.539  0.4886  0.1309 -0.3553
20798SOL    HW162972   5.733   7.573   5.453 -1.7554  0.1769 -1.4414
20798SOL    HW262973   5.660   7.653   5.559 -0.0378 -0.1511  0.0325
20799SOL     OW62974   8.946   2.699   6.265 -0.4683 -0.2253  0.1879
20799SOL    HW162975   8.912   2.735   6.182 -1.3153 -0.3847  0.4596
20799SOL    HW262976   9.029   2.745   6.278 -1.5760  1.7602  0.5920
20800SOL     OW62977   7.030   7.221   4.531 -0.8387 -0.0006 -0.4400
20800SOL    HW162978   7.099   7.287   4.524  0.0408 -0.9322 -0.7667
20800SOL    HW262979   6.992   7.235   4.618  1.8510 -1.4402  1.0743
20801SOL     OW62980   0.922   0.117   2.642 -0.0195 -0.2518  0.1760
20801SOL    HW162981   1.005   0.094   2.600  0.4606  0.6669  0.5937
20801SOL    HW262982   0.857   0.105   2.573  0.4161 -1.2126 -0.0928
20802SOL     OW62983   0.213   9.409   1.980  0.3296  0.3129 -0.0735
20802SOL    HW162984   0.267   9.396   2.058  0.3220 -0.9685 -0.2642
20802SOL    HW262985   0.123   9.410   2.013  0.3434  0.0807 -0.0286
20803SOL     OW62986   4.268   9.129   8.204  0.1243 -0.0985  0.3517
20803SOL    HW162987   4.287   9.163   8.291  0.8524 -0.1316  0.2069
20803SOL    HW262988   4.226   9.044   8.220 -0.1305  0.0839  0.6733
20804SOL     OW62989   3.916   8.080   6.339  0.6359  0.4649 -0.3012
20804SOL    HW162990   3.897   7.991   6.368 -0.3569  1.5199  2.6843
20804SOL    HW262991   3.957   8.069   6.253 -0.9100 -2.7437 -0.7825
20805SOL     OW62992   6.817   5.000   8.376  0.1430 -1.1787  0.2865
20805SOL    HW162993   6.906   4.983   8.406 -0.0231  0.9175  2.2751
20805SOL    HW262994   6.786   5.072   8.432 -2.5603 -1.3722 -0.7976
20806SOL     OW62995   2.110   4.987   9.550  0.2447  0.1608 -0.6751
20806SOL    HW162996   2.046   5.019   9.614 -1.7968 -0.1635 -2.4157
20806SOL    HW262997   2.180   4.948   9.602  0.0533  2.3515  1.3735
20807SOL     OW62998   2.562   5.092   6.169  0.0532  0.0553  0.4422
20807SOL    HW162999   2.496   5.024   6.187  0.1146  0.0799  0.7650
20807SOL    HW263000   2.617   5.092   6.247  2.4073 -2.1996 -1.0579
20808SOL     OW63001   3.377   2.723   0.085 -0.4050  0.8178 -0.0045
20808SOL    HW163002   3.387   2.699  -0.008  0.8866  0.9622  0.0811
20808SOL    HW263003   3.405   2.814   0.089  0.2821  0.5906  0.6396
20809SOL     OW63004   0.223   3.260   3.386  0.3262  0.0411 -0.5078
20809SOL    HW163005   0.217   3.206   3.307  0.6543 -0.5220 -0.1508
20809SOL    HW263006   0.309   3.239   3.423  1.4925  2.4750 -1.5713
20810SOL     OW63007   8.203   6.879   4.055 -0.3423  0.2730 -0.2301
20810SOL    HW163008   8.204   6.798   4.106 -0.9434  0.8494  0.7110
20810SOL    HW263009   8.278   6.929   4.086  0.0054  0.1041 -0.7813
20811SOL     OW63010   9.853   7.843   3.818 -0.0357 -0.3369  0.0653
20811SOL    HW163011   9.947   7.862   3.827 -0.2112 -0.0103  1.4163
20811SOL    HW263012   9.841   7.826   3.725  1.2579  0.2062 -0.2246
20812SOL     OW63013   2.645   4.618   6.296 -0.4274  0.0377  0.4469
20812SOL    HW163014   2.597   4.558   6.353 -0.1139  0.4442  1.1527
20812SOL    HW263015   2.585   4.636   6.223 -1.1032  0.0645  1.0034
20813SOL     OW63016   7.247   8.078   8.390 -0.1688 -0.1180 -0.0296
20813SOL    HW163017   7.194   8.116   8.320  0.7119  1.3441  0.0401
20813SOL    HW263018   7.273   7.992   8.358 -2.3009 -0.7609 -0.1757
20814SOL     OW63019   7.586   2.209   5.895 -0.0961 -0.4003  0.2987
20814SOL    HW163020   7.649   2.138   5.905  1.5173  0.7220 -1.2190
20814SOL    HW263021   7.613   2.253   5.814 -1.2287  1.7406  1.0219
20815SOL     OW63022   3.931   7.047   9.074 -0.3094 -0.0102  0.0270
20815SOL    HW163023   4.002   7.101   9.108  0.6049 -0.0766 -1.6413
20815SOL    HW263024   3.929   6.970   9.131  1.7724 -0.5556 -0.5682
20816SOL     OW63025   9.516   6.190   5.307  0.7396  0.2636 -0.1327
20816SOL    HW163026   9.612   6.190   5.311  0.7341  2.1969  0.7650
20816SOL    HW263027   9.489   6.238   5.385 -0.9806 -0.1963 -0.4164
20817SOL     OW63028   6.887   1.854   5.258  0.4636 -0.1355 -0.2288
20817SOL    HW163029   6.886   1.950   5.261 -0.0712 -0.1345 -0.3934
20817SOL    HW263030   6.898   1.834   5.166 -0.7849 -0.2338 -0.3678
20818SOL     OW63031   3.063   1.397   1.478 -0.8224  0.1416 -0.3359
20818SOL    HW163032   3.096   1.417   1.566 -1.9864  0.1965  0.1082
20818SOL    HW263033   2.976   1.438   1.475 -0.6941  0.3722 -1.6159
20819SOL     OW63034   8.805   9.902   1.185  0.1602  0.3023  0.2712
20819SOL    HW163035   8.763   9.977   1.227 -0.9473 -0.0364 -0.1822
20819SOL    HW263036   8.740   9.871   1.122  0.1675 -1.6944  1.1815
20820SOL     OW63037   6.610   3.594   1.002  0.1427  0.5557 -0.5202
20820SOL    HW163038   6.624   3.687   0.982 -1.3782  0.7532 -0.7609
20820SOL    HW263039   6.619   3.550   0.918  2.7483  0.1927 -0.1313
20821SOL     OW63040   0.986   7.052   3.074  0.5226  0.4481  0.6965
20821SOL    HW163041   0.947   7.013   3.153  0.1585  0.7025  0.6455
20821SOL    HW263042   1.057   6.992   3.051  0.1218 -0.0627  0.7531
20822SOL     OW63043   6.025   2.492   6.496 -0.2907 -0.1969 -0.1510
20822SOL    HW163044   6.098   2.431   6.506 -0.1477  0.1699  1.1139
20822SOL    HW263045   6.067   2.578   6.487 -0.5588  0.0415  0.7984
20823SOL     OW63046   2.946   4.246   0.625  0.7651  0.2976  1.0229
20823SOL    HW163047   2.911   4.279   0.707  2.7814 -1.1941  2.5807
20823SOL    HW263048   2.956   4.152   0.638 -0.5536 -0.3241 -1.6311
20824SOL     OW63049   0.087   8.823   1.160  0.2091  0.1745  0.1147
20824SOL    HW163050   0.126   8.740   1.131  0.9141  0.1585  1.0584
20824SOL    HW263051   0.034   8.852   1.086  1.9927  0.1795 -1.2164
20825SOL     OW63052   6.207   4.605   5.548  0.3407 -0.3977 -0.5663
20825SOL    HW163053   6.152   4.531   5.575 -0.6631  0.3703 -0.4880
20825SOL    HW263054   6.159   4.682   5.575  1.6657  0.2990 -0.0952
20826SOL     OW63055   8.464   6.652   4.487  0.6448 -0.2850  0.3753
20826SOL    HW163056   8.467   6.721   4.420  0.0864 -0.9848 -0.3807
20826SOL    HW263057   8.484   6.698   4.569 -1.6939  1.1927  0.2062
20827SOL     OW63058   7.945   6.659   4.084  0.4882  0.4136  0.6238
20827SOL    HW163059   8.037   6.640   4.100  1.6088  1.9137 -3.0574
20827SOL    HW263060   7.943   6.752   4.059 -2.3098  0.8666  2.0484
20828SOL     OW63061   8.960   2.750   2.569 -0.2090 -0.4913 -0.1030
20828SOL    HW163062   8.891   2.691   2.539 -1.8263  1.6039 -0.7959
20828SOL    HW263063   8.915   2.834   2.582  1.5676  0.1813  2.6709
20829SOL     OW63064   3.219   6.854   1.152  0.9324  0.2490 -0.4281
20829SOL    HW163065   3.207   6.858   1.057  2.0621  0.9891 -0.5649
20829SOL    HW263066   3.262   6.770   1.168 -2.2400 -1.4604 -0.1534
20830SOL     OW63067   4.777   6.360   0.392  0.3030 -0.0960  0.0921
20830SOL    HW163068   4.711   6.307   0.436  0.3165  1.5286  2.2414
20830SOL    HW263069   4.860   6.316   0.409  0.1020 -0.5216 -0.0169
20831SOL     OW63070   6.479   1.511   8.700 -0.0428 -0.4028 -0.5644
20831SOL    HW163071   6.563   1.545   8.669  0.7387 -2.8989 -1.4523
20831SOL    HW263072   6.426   1.589   8.716  2.0736  1.2291 -0.9665
20832SOL     OW63073   3.658   1.812   2.794  0.0619 -0.3301  0.9220
20832SOL    HW163074   3.595   1.829   2.864  1.5023  1.8879  1.7596
20832SOL    HW263075   3.617   1.848   2.716  0.6353  2.1148  1.6565
20833SOL     OW63076   5.999   6.938   1.298  0.1929 -0.3557 -0.3357
20833SOL    HW163077   5.921   6.967   1.344  0.2954 -0.4881 -0.0750
20833SOL    HW263078   5.996   6.842   1.303 -0.4810 -0.4477 -1.7479
20834SOL     OW63079   6.968   9.250   7.865  0.2140 -0.3953 -0.1377
20834SOL    HW163080   6.960   9.215   7.954  0.4214  1.6454  0.7401
20834SOL    HW263081   7.048   9.303   7.867 -0.1982  0.3198 -1.3156
20835SOL     OW63082   2.537   0.330   4.786  0.2656 -0.0870  0.3477
20835SOL    HW163083   2.461   0.326   4.728  0.1329 -1.6123  0.5922
20835SOL    HW263084   2.500   0.332   4.874  0.4932 -0.8419  0.4683
20836SOL     OW63085   5.571   2.088   7.275 -0.3200  0.3826  0.0429
20836SOL    HW163086   5.526   2.004   7.270  1.3684 -0.5350 -0.6465
20836SOL    HW263087   5.520   2.140   7.337 -1.8951 -0.8298 -0.2055
20837SOL     OW63088   6.710   6.118   0.028 -0.0734  0.3122 -0.3397
20837SOL    HW163089   6.629   6.123   0.079  0.0850  1.2202 -0.1589
20837SOL    HW263090   6.683   6.075  -0.054 -0.0313 -2.5382  1.0192
20838SOL     OW63091   4.381   3.842   8.440 -0.2715  0.0228 -0.4593
20838SOL    HW163092   4.431   3.860   8.520 -0.8146  0.0291 -0.1136
20838SOL    HW263093   4.316   3.776   8.467 -1.2032  0.8603 -0.6133
20839SOL     OW63094   4.631   3.636   0.409  0.3253 -0.2686  0.4694
20839SOL    HW163095   4.648   3.693   0.334 -0.8658 -0.6502 -0.1105
20839SOL    HW263096   4.578   3.565   0.373 -0.7225 -0.1791  1.7721
20840SOL     OW63097   1.390   5.362   0.978 -0.2914  0.6756 -0.3616
20840SOL    HW163098   1.446   5.435   1.005 -0.0302  0.6721 -0.8784
20840SOL    HW263099   1.348   5.393   0.898 -0.6048  0.4621 -0.2831
20841SOL     OW63100   5.740   5.016   3.468 -0.1891 -0.2608  0.0223
20841SOL    HW163101   5.754   5.086   3.532 -2.1292 -0.2553  0.4948
20841SOL    HW263102   5.828   4.995   3.437  0.6481  0.9040  1.4385
20842SOL     OW63103   0.177   2.891   4.428 -0.0113 -0.3660 -0.5604
20842SOL    HW163104   0.180   2.922   4.337 -0.6416  0.4507 -0.3033
20842SOL    HW263105   0.108   2.942   4.469  0.4894 -0.5004  0.4722
20843SOL     OW63106   1.805   9.786   8.868 -0.1975  0.6020 -0.0759
20843SOL    HW163107   1.795   9.698   8.833 -0.6246  0.5276  0.2237
20843SOL    HW263108   1.882   9.821   8.824 -0.3562  0.2816 -0.6141
20844SOL     OW63109   1.419   1.405   2.849 -0.2711 -0.3431  0.4565
20844SOL    HW163110   1.374   1.414   2.765 -1.2980 -0.9787  0.9161
20844SOL    HW263111   1.438   1.312   2.856  1.3942 -0.0619  0.1644
20845SOL     OW63112   5.319   7.252   3.417 -0.2806 -0.0156 -0.0894
20845SOL    HW163113   5.299   7.308   3.341 -1.4664 -0.5638 -0.1961
20845SOL    HW263114   5.259   7.178   3.408 -0.1903 -0.2566  1.2024
20846SOL     OW63115   5.573   2.624   8.406  0.2844 -0.3612  0.4689
20846SOL    HW163116   5.490   2.618   8.452  0.0062 -2.8221 -0.2394
20846SOL    HW263117   5.639   2.603   8.471  0.1811 -0.4821  0.5327
20847SOL     OW63118   2.723   3.802   1.322  0.5921 -0.2287 -0.3903
20847SOL    HW163119   2.675   3.818   1.404 -1.5467  0.7887 -1.7415
20847SOL    HW263120   2.789   3.871   1.320  1.7590 -1.2245  1.1823
20848SOL     OW63121   1.891   4.997   1.460  0.0370 -0.3682 -0.0812
20848SOL    HW163122   1.850   5.066   1.407 -0.9106 -0.5471  0.4077
20848SOL    HW263123   1.947   5.045   1.521  0.2847 -0.1015 -0.5089
20849SOL     OW63124   4.489   0.468   9.211  0.4354 -0.0202  0.1428
20849SOL    HW163125   4.583   0.458   9.196  0.5509 -0.3266  1.0196
20849SOL    HW263126   4.481   0.490   9.304 -0.3768 -0.4048  0.1779
20850SOL     OW63127   4.045   7.939   8.983  0.0041 -0.3582 -0.3697
20850SOL    HW163128   3.982   7.891   8.929  0.2118  0.7408 -1.6655
20850SOL    HW263129   4.131   7.908   8.952  0.1186 -0.8152  0.3933
20851SOL     OW63130   6.931   2.298   6.780 -0.6158  0.3389 -0.4901
20851SOL    HW163131   6.922   2.310   6.875  0.8961  2.4624 -0.5423
20851SOL    HW263132   6.942   2.387   6.746 -0.4093 -0.4401 -2.5868
20852SOL     OW63133   0.718   4.828   0.060  0.0957 -0.8309  0.5009
20852SOL    HW163134   0.737   4.893   0.128 -0.3174 -0.4591  0.2652
20852SOL    HW263135   0.701   4.748   0.109  0.1346 -0.6461  0.8232
20853SOL     OW63136   4.701   2.390   4.788  0.2507  0.0791  0.1014
20853SOL    HW163137   4.671   2.386   4.697 -0.7608  1.4912  0.3411
20853SOL    HW263138   4.785   2.435   4.784 -0.0901  0.7097 -0.0855
20854SOL     OW63139   5.317   7.005   9.095 -0.4130 -0.2745  0.1183
20854SOL    HW163140   5.308   6.922   9.047 -0.9418  0.6388 -1.4450
20854SOL    HW263141   5.398   7.043   9.061 -0.8648  0.4485 -0.1942
20855SOL     OW63142   7.022   1.243   2.414 -0.2104 -0.4023  0.4281
20855SOL    HW163143   6.968   1.321   2.403 -0.4459 -0.5641  0.4372
20855SOL    HW263144   7.075   1.239   2.334 -1.1961 -1.0087 -0.2192
20856SOL     OW63145   1.699   5.761   2.753 -0.3215  0.0432 -0.2213
20856SOL    HW163146   1.677   5.829   2.817  1.0005  0.8368 -0.5504
20856SOL    HW263147   1.619   5.748   2.703 -0.4757  1.8159 -0.5258
20857SOL     OW63148   5.345   4.752   3.269  0.2195  0.3939  0.2739
20857SOL    HW163149   5.280   4.816   3.240 -0.9564 -0.2637  1.3382
20857SOL    HW263150   5.427   4.801   3.276 -0.5125  1.6249  0.4627
20858SOL     OW63151   8.042   3.276   1.530 -0.2281  0.3065 -0.1744
20858SOL    HW163152   8.044   3.250   1.438 -2.1127  0.6773 -0.3779
20858SOL    HW263153   8.027   3.371   1.528 -1.3000  0.1770  0.4707
20859SOL     OW63154   2.360   3.899   3.623 -0.2918  0.1747  0.6560
20859SOL    HW163155   2.411   3.973   3.656 -0.4328  0.2273  0.7552
20859SOL    HW263156   2.405   3.874   3.542  0.7377 -0.7062  1.4732
20860SOL     OW63157   9.421   7.896   5.789  0.1048  0.2463  0.6758
20860SOL    HW163158   9.436   7.922   5.880 -2.8376  0.1143  1.3046
20860SOL    HW263159   9.398   7.803   5.793 -0.8336  0.4251 -0.0608
20861SOL     OW63160   2.242   2.369   3.521  0.3072 -0.1864 -0.1765
20861SOL    HW163161   2.224   2.293   3.577  0.4672 -0.1969 -0.1395
20861SOL    HW263162   2.157   2.390   3.482 -0.0531  0.5639  0.9793
20862SOL     OW63163   0.216   1.728   3.982 -0.1549 -0.8417  0.3432
20862SOL    HW163164   0.126   1.722   4.013 -0.8229  2.3783 -0.5861
20862SOL    HW263165   0.257   1.790   4.042  0.7088 -0.3651 -0.7132
20863SOL     OW63166   0.450   8.386   5.323  0.7735 -0.1167  0.4021
20863SOL    HW163167   0.517   8.320   5.342  0.3681 -0.1315  1.9119
20863SOL    HW263168   0.437   8.380   5.229  0.9431 -2.0231  0.4484
20864SOL     OW63169   6.084   6.713   2.971 -0.3539 -0.3136  0.0824
20864SOL    HW163170   6.080   6.739   2.879  2.2782 -2.8736 -0.9224
20864SOL    HW263171   6.000   6.670   2.988 -0.8681  0.1707 -1.1255
20865SOL     OW63172   8.091   8.372   1.182  0.2233 -0.4326 -0.1171
20865SOL    HW163173   8.033   8.445   1.204  1.3095  0.7289 -0.9340
20865SOL    HW263174   8.140   8.354   1.263  0.6008  0.3866 -0.1508
20866SOL     OW63175   9.700   8.453   3.930  0.1310 -0.1606 -0.2014
20866SOL    HW163176   9.711   8.378   3.871  1.2278 -1.2371  1.2588
20866SOL    HW263177   9.632   8.506   3.890 -0.8164 -2.0369 -1.2275
20867SOL     OW63178   6.842   6.146   6.021  0.1486 -0.2107 -0.0725
20867SOL    HW163179   6.815   6.194   6.099  0.4466  1.2849 -0.8523
20867SOL    HW263180   6.789   6.066   6.023 -0.1313 -0.0158  1.4334
20868SOL     OW63181   5.990   0.125   3.450 -0.2927 -0.8225  0.0383
20868SOL    HW163182   6.060   0.060   3.442  1.2829  0.7884  0.1626
20868SOL    HW263183   5.964   0.143   3.360  1.3970  0.5442 -0.2244
20869SOL     OW63184   5.859   8.679   5.241 -0.4244 -0.0468  0.4794
20869SOL    HW163185   5.944   8.691   5.199 -0.2980 -0.1363  0.7080
20869SOL    HW263186   5.812   8.761   5.224 -0.4495 -0.1558 -0.0034
20870SOL     OW63187   2.234   5.735   6.749 -0.6716 -0.0580  0.2581
20870SOL    HW163188   2.163   5.744   6.686  0.9846  2.5372 -1.4504
20870SOL    HW263189   2.290   5.667   6.712 -0.1595  0.8377 -0.6576
20871SOL     OW63190   8.826   7.773   9.626  0.3371  0.6295 -0.2613
20871SOL    HW163191   8.877   7.830   9.684  0.3197  1.2315 -0.8301
20871SOL    HW263192   8.857   7.685   9.646 -0.9634  0.5946  2.0418
20872SOL     OW63193   8.671   0.482   2.527 -0.2273 -0.3364 -0.3787
20872SOL    HW163194   8.690   0.452   2.616 -0.1908 -0.1192 -0.3137
20872SOL    HW263195   8.723   0.561   2.516 -0.4670 -0.1893 -0.4848
20873SOL     OW63196   6.479   7.771   5.035 -0.0499 -0.2405  0.0441
20873SOL    HW163197   6.537   7.695   5.034  0.3054 -0.0378  1.6100
20873SOL    HW263198   6.535   7.843   5.063 -1.0840 -0.0947  1.8834
20874SOL     OW63199   8.503   6.562   3.741  0.4593 -0.5175 -0.1905
20874SOL    HW163200   8.516   6.475   3.703  1.4305 -0.3544 -0.2539
20874SOL    HW263201   8.413   6.585   3.718  0.1374 -1.5709 -0.0342
20875SOL     OW63202   9.459   5.455   6.583  0.2696 -0.0049 -0.8042
20875SOL    HW163203   9.397   5.482   6.651  1.4998 -1.8867  1.2043
20875SOL    HW263204   9.534   5.514   6.594  1.1628 -1.3219  0.7045
20876SOL     OW63205   0.950   9.673   1.775 -0.3923 -0.4077 -0.7675
20876SOL    HW163206   1.008   9.734   1.822  2.9409 -2.8466 -1.3502
20876SOL    HW263207   0.996   9.656   1.692 -3.5364 -0.2491 -2.7122
20877SOL     OW63208   1.437   8.937   1.926 -0.2802  0.1838 -0.5089
20877SOL    HW163209   1.443   8.981   2.011 -0.8955 -0.8134  0.0725
20877SOL    HW263210   1.521   8.891   1.917 -1.1852 -1.8988  0.8528
20878SOL     OW63211   7.315   9.383   2.404  0.6573  0.8804  0.4317
20878SOL    HW163212   7.400   9.418   2.378  0.4879  0.8047 -0.2445
20878SOL    HW263213   7.281   9.447   2.466  0.4512  1.8264 -0.6237
20879SOL     OW63214   1.395   5.887   2.851  0.3153  0.0430  0.0917
20879SOL    HW163215   1.458   5.828   2.893  0.8502 -1.2298 -2.2957
20879SOL    HW263216   1.445   5.967   2.835  0.4260  0.1322  0.8455
20880SOL     OW63217   1.249   4.607   5.552 -0.5289  0.2918  0.0527
20880SOL    HW163218   1.158   4.599   5.580 -0.4701  0.3120  0.2464
20880SOL    HW263219   1.248   4.579   5.460 -0.4707 -1.1741  0.4686
20881SOL     OW63220   7.598   3.415   3.260  0.3677 -0.2007 -0.3776
20881SOL    HW163221   7.513   3.377   3.279  0.7627 -0.6782  0.4607
20881SOL    HW263222   7.595   3.434   3.166 -0.5718 -0.4195 -0.4005
20882SOL     OW63223   4.855   7.726   7.722  0.2105  0.0842  0.1169
20882SOL    HW163224   4.799   7.804   7.720  2.0614  1.4933 -2.0404
20882SOL    HW263225   4.915   7.743   7.795  0.2432  0.4160  0.0178
20883SOL     OW63226   0.287   7.305   8.832  0.2256  0.3327  0.1408
20883SOL    HW163227   0.280   7.387   8.784  0.8785  0.6259  0.5388
20883SOL    HW263228   0.321   7.242   8.767 -2.8041 -0.3409 -0.9345
20884SOL     OW63229   3.161   2.929   4.406 -0.0695 -0.1784 -0.6983
20884SOL    HW163230   3.151   2.849   4.456 -0.9973 -1.3692 -2.6485
20884SOL    HW263231   3.092   2.987   4.438  0.1887 -0.3985  0.2720
20885SOL     OW63232   5.523   6.288   2.085 -0.2969 -0.2060 -0.4161
20885SOL    HW163233   5.574   6.343   2.025  3.6798 -2.5133  0.4987
20885SOL    HW263234   5.526   6.201   2.047 -1.3820 -0.9185  1.0250
20886SOL     OW63235   6.204   0.542   3.737  0.2314 -0.1608 -0.1672
20886SOL    HW163236   6.240   0.456   3.715  0.3389 -0.2630  0.3976
20886SOL    HW263237   6.270   0.604   3.706 -0.5186 -0.1846 -1.9678
20887SOL     OW63238   5.867   3.981   9.043 -0.4360 -0.4778 -0.1837
20887SOL    HW163239   5.931   3.987   8.973 -1.0336 -1.6095 -0.8593
20887SOL    HW263240   5.919   3.969   9.123  0.2280  0.2403 -0.5040
20888SOL     OW63241   2.119   5.950   0.241 -0.2687 -0.1293 -0.0157
20888SOL    HW163242   2.211   5.975   0.226 -0.0559 -0.0261  1.3236
20888SOL    HW263243   2.069   6.004   0.180  0.4974  0.5218 -0.0828
20889SOL     OW63244   5.326   7.033   2.119  0.0469  0.4061 -0.0798
20889SOL    HW163245   5.342   7.071   2.033  0.9501  0.3173  0.0352
20889SOL    HW263246   5.242   6.988   2.110  1.3023 -1.8239 -1.7215
20890SOL     OW63247   1.640   8.854   5.788  0.2845 -0.3113  0.9677
20890SOL    HW163248   1.674   8.765   5.782  3.2749  0.7954 -0.2648
20890SOL    HW263249   1.689   8.894   5.860  0.2719  0.8150  0.3737
20891SOL     OW63250   8.967   1.042   0.424  0.3349  0.2043 -0.0196
20891SOL    HW163251   8.895   1.057   0.363 -0.4802 -0.7986  0.6539
20891SOL    HW263252   8.976   1.125   0.471 -0.1640  0.4519 -0.3497
20892SOL     OW63253   3.403   1.319   7.622 -0.2878  0.4456  0.4985
20892SOL    HW163254   3.427   1.389   7.561 -0.6779  1.1348  1.1227
20892SOL    HW263255   3.319   1.286   7.588 -1.4810  2.1211  1.7075
20893SOL     OW63256   8.290   4.232   1.215  0.3184 -0.2036  0.2535
20893SOL    HW163257   8.202   4.208   1.243  0.0462 -1.5683 -1.5603
20893SOL    HW263258   8.279   4.312   1.165  0.0522 -0.5097 -0.1853
20894SOL     OW63259   9.788   9.703   3.519  0.3843 -0.1846 -0.5877
20894SOL    HW163260   9.806   9.636   3.452  0.8948 -0.5232 -0.1214
20894SOL    HW263261   9.846   9.679   3.592  0.2363  0.5059 -0.2442
20895SOL     OW63262   7.296   1.057   3.797  0.1060  0.1476  0.9059
20895SOL    HW163263   7.304   1.090   3.886  0.0004 -0.6532  1.2182
20895SOL    HW263264   7.330   1.128   3.742 -0.0457  0.7367  1.5620
20896SOL     OW63265   5.648   1.215   6.773 -0.2493  0.2459 -0.3102
20896SOL    HW163266   5.573   1.207   6.715  0.6176  1.7222 -1.7284
20896SOL    HW263267   5.685   1.127   6.777 -0.9967 -0.1213 -1.0744
20897SOL     OW63268   3.982   7.606   9.196 -0.3107  0.1942 -0.5063
20897SOL    HW163269   4.067   7.584   9.158  0.3427  2.4863 -0.5612
20897SOL    HW263270   3.923   7.611   9.122 -0.3313 -0.6557 -0.5579
20898SOL     OW63271   4.316   4.123   9.304  0.6756  0.6605 -0.0017
20898SOL    HW163272   4.268   4.204   9.318  0.4277  0.6335 -0.6552
20898SOL    HW263273   4.390   4.128   9.363  0.4849  1.2195  0.1919
20899SOL     OW63274   1.881   6.369   8.280 -0.2517  0.1488  0.7549
20899SOL    HW163275   1.822   6.303   8.315  1.5309 -2.3194 -0.5574
20899SOL    HW263276   1.825   6.445   8.263 -2.9252 -1.8184  0.1007
20900SOL     OW63277   4.154   6.835   3.708 -0.1124  0.1222  0.5551
20900SOL    HW163278   4.238   6.790   3.707 -0.8542 -1.2989  0.7955
20900SOL    HW263279   4.132   6.844   3.801 -0.7090 -0.4635  0.4810
20901SOL     OW63280   5.387   0.452   6.408  0.1202 -0.0720  0.9346
20901SOL    HW163281   5.406   0.545   6.420 -0.2848  0.0206  0.8933
20901SOL    HW263282   5.294   0.444   6.432  0.2345 -0.5195  1.2374
20902SOL     OW63283   6.671   2.880   8.836 -0.2118  0.0317  0.5535
20902SOL    HW163284   6.596   2.865   8.894  0.3501 -0.6772  1.1060
20902SOL    HW263285   6.732   2.809   8.855  0.7054  0.7138  0.2661
20903SOL     OW63286   4.696   9.642   3.982  0.3688  0.4374  0.0746
20903SOL    HW163287   4.707   9.737   3.977 -1.3926  0.5985 -1.7162
20903SOL    HW263288   4.760   9.614   4.048  2.4217  2.5953 -0.8638
20904SOL     OW63289   0.783   7.589   1.822  0.4587  0.1497  0.2762
20904SOL    HW163290   0.760   7.498   1.804  1.0542 -0.1820  1.1696
20904SOL    HW263291   0.748   7.637   1.747  0.0486 -0.7953 -0.1554
20905SOL     OW63292   9.148   4.771   1.527 -0.3726 -0.7270  0.1459
20905SOL    HW163293   9.100   4.832   1.471  0.1313  0.8878  1.4101
20905SOL    HW263294   9.179   4.703   1.466 -0.7291  0.4043 -1.3692
20906SOL     OW63295   6.515   1.103   5.525 -0.0447 -0.1128 -0.0386
20906SOL    HW163296   6.492   1.185   5.570 -1.6738  0.9512 -2.6298
20906SOL    HW263297   6.479   1.034   5.581 -1.0384  1.0799  0.8382
20907SOL     OW63298   5.213   1.929   2.644 -0.5672 -0.1500  0.3995
20907SOL    HW163299   5.220   1.837   2.621  0.4044 -0.0065  0.0809
20907SOL    HW263300   5.294   1.968   2.612 -1.3869  0.9968 -0.3720
20908SOL     OW63301   2.551   6.170   5.324 -0.2827 -0.4328 -0.2157
20908SOL    HW163302   2.625   6.110   5.313  2.0492  1.7678  2.3282
20908SOL    HW263303   2.564   6.236   5.256 -0.6001 -0.6664 -0.5067
20909SOL     OW63304   9.833   2.668   8.367  0.2891 -0.8269  0.4182
20909SOL    HW163305   9.927   2.680   8.363  0.2553 -0.5941  0.2988
20909SOL    HW263306   9.797   2.738   8.313 -0.0289  0.2034  1.9150
20910SOL     OW63307   3.564   3.244   6.547 -0.8892  0.0610  0.1826
20910SOL    HW163308   3.540   3.211   6.634  0.4705  0.0786  0.5799
20910SOL    HW263309   3.628   3.182   6.514  0.3656  1.3061  0.1858
20911SOL     OW63310   5.584   4.040   4.744  0.1122 -0.3408 -0.6645
20911SOL    HW163311   5.596   3.946   4.756  0.0207 -0.2972 -0.2113
20911SOL    HW263312   5.503   4.060   4.791  2.0596  0.6129  2.6749
20912SOL     OW63313   8.178   1.844   7.442  0.4021 -0.7606 -0.5257
20912SOL    HW163314   8.091   1.826   7.407 -0.1125 -0.2491  0.4484
20912SOL    HW263315   8.173   1.935   7.473  0.6940 -1.2984  1.2362
20913SOL     OW63316   7.561   4.694   2.763 -0.7833 -0.4390  0.0774
20913SOL    HW163317   7.467   4.681   2.774 -1.0829  1.3004 -0.2036
20913SOL    HW263318   7.587   4.752   2.835  0.0899 -0.9403  0.1855
20914SOL     OW63319   8.573   1.255   0.925  0.9225  0.3357  0.5531
20914SOL    HW163320   8.535   1.256   1.012  0.9931  0.7174  0.5824
20914SOL    HW263321   8.499   1.270   0.866  1.0688  1.5131  0.6342
20915SOL     OW63322   4.542   7.874   9.754 -0.4873  0.1197 -0.3129
20915SOL    HW163323   4.600   7.947   9.775  1.5055 -1.1861 -0.9913
20915SOL    HW263324   4.495   7.903   9.676  0.0290  0.8050 -0.3784
20916SOL     OW63325   7.414   2.742   4.977 -1.1410  0.0497  0.1235
20916SOL    HW163326   7.334   2.781   5.010 -0.4498  0.2145  1.7210
20916SOL    HW263327   7.455   2.811   4.925 -2.0164 -0.0396 -0.7031
20917SOL     OW63328   3.187   3.719   9.478 -0.0050 -0.3218 -0.3372
20917SOL    HW163329   3.260   3.660   9.457  0.6114  0.0770  0.6502
20917SOL    HW263330   3.194   3.734   9.572 -0.7792  0.5195 -0.4007
20918SOL     OW63331   0.982   1.594   7.144  0.1441 -0.1263 -0.0564
20918SOL    HW163332   0.939   1.531   7.086  0.1287 -0.1828  0.0161
20918SOL    HW263333   1.074   1.566   7.146  0.7065  1.3856 -2.0934
20919SOL     OW63334   6.711   2.681   3.214  0.5765 -0.1133 -0.1267
20919SOL    HW163335   6.708   2.707   3.122  0.8148 -0.5652 -0.2646
20919SOL    HW263336   6.707   2.764   3.263  1.5509  0.1999 -0.5548
20920SOL     OW63337   4.746   6.420   0.968  0.0665 -0.4262 -0.2177
20920SOL    HW163338   4.759   6.355   1.036 -0.9991  0.3968  0.8298
20920SOL    HW263339   4.675   6.475   1.001 -1.4364 -0.7809 -2.5793
20921SOL     OW63340   5.284   9.902   3.198  0.5295 -0.3208 -0.5022
20921SOL    HW163341   5.237   9.983   3.215  1.2153  0.4192 -1.9722
20921SOL    HW263342   5.215   9.838   3.179  0.0414  0.2690 -0.7573
20922SOL     OW63343   2.839   5.827   8.426  0.6120  0.0359 -0.0099
20922SOL    HW163344   2.852   5.795   8.336  1.5601  1.4954 -0.4284
20922SOL    HW263345   2.744   5.831   8.436  0.4823  0.7905 -1.3120
20923SOL     OW63346   8.138   4.199   3.815 -0.0108 -0.0364  0.0689
20923SOL    HW163347   8.129   4.231   3.905  0.4246 -0.0100  0.1076
20923SOL    HW263348   8.053   4.215   3.775  0.2093  1.2044  0.0728
20924SOL     OW63349   0.815   0.093   7.751 -0.2025 -0.1065 -0.4086
20924SOL    HW163350   0.828   0.059   7.839  1.8308  3.1490  0.7382
20924SOL    HW263351   0.894   0.069   7.704 -1.1192 -1.5036 -1.3074
20925SOL     OW63352   0.522   7.603   6.298 -0.3046  0.3354  0.3316
20925SOL    HW163353   0.458   7.594   6.368  0.2521  0.4899  0.8777
20925SOL    HW263354   0.476   7.649   6.228 -1.3952 -1.3406 -0.1248
20926SOL     OW63355   2.481   5.504   2.116  0.0116 -0.3282  0.4764
20926SOL    HW163356   2.522   5.559   2.049 -0.4133 -3.0973 -2.3200
20926SOL    HW263357   2.550   5.490   2.181  1.0217  1.1276 -0.2241
20927SOL     OW63358   5.967   0.155   1.677 -0.1527  0.2740 -0.1893
20927SOL    HW163359   5.957   0.072   1.630  0.9063 -1.4215  2.3856
20927SOL    HW263360   6.054   0.185   1.653  0.5416 -0.7863  0.9023
20928SOL     OW63361   6.042   4.863   5.353 -0.0053 -0.1694 -0.2202
20928SOL    HW163362   6.026   4.808   5.429 -0.6477  0.5999  0.2201
20928SOL    HW263363   5.956   4.897   5.330  0.2867  0.1372 -0.8765
20929SOL     OW63364   8.761   5.203   6.572 -0.1860  0.3099 -0.3151
20929SOL    HW163365   8.799   5.129   6.619  1.9510  0.5800 -1.4833
20929SOL    HW263366   8.789   5.280   6.620  0.1855  0.4801 -0.7925
20930SOL     OW63367   4.573   6.179   2.781  0.4087  0.3505 -0.1273
20930SOL    HW163368   4.506   6.247   2.769 -0.3161 -0.3089  0.0788
20930SOL    HW263369   4.616   6.172   2.696 -1.4942 -0.9604 -1.0640
20931SOL     OW63370   5.735   8.543   0.577 -0.4714  0.3011 -0.2402
20931SOL    HW163371   5.805   8.519   0.638  0.7460  0.0940 -1.6750
20931SOL    HW263372   5.766   8.624   0.535 -0.1245 -0.8480 -2.3287
20932SOL     OW63373   7.764   9.457   5.087  0.1050 -0.7479  0.0049
20932SOL    HW163374   7.711   9.472   5.165 -0.8327  0.3233 -0.7913
20932SOL    HW263375   7.782   9.545   5.053  4.1299 -0.9084  1.2893
20933SOL     OW63376   3.869   1.151   4.462  0.4945  0.3638 -0.3431
20933SOL    HW163377   3.823   1.179   4.541  1.4857 -1.2841  0.8687
20933SOL    HW263378   3.835   1.064   4.443 -0.7401  1.2308 -2.6195
20934SOL     OW63379   9.126   2.689   9.598  0.5368  0.0031 -0.0546
20934SOL    HW163380   9.033   2.708   9.612  0.6911  0.4328  0.4477
20934SOL    HW263381   9.171   2.766   9.633  1.0717 -0.1094 -0.4903
20935SOL     OW63382   3.012   5.882   5.273  0.0169 -0.2743 -0.3062
20935SOL    HW163383   3.013   5.789   5.295 -0.5432 -0.2082  0.0046
20935SOL    HW263384   3.090   5.917   5.316  1.4741 -0.9817 -2.2078
20936SOL     OW63385   8.463   5.625   8.843  0.1905 -0.2486 -0.5240
20936SOL    HW163386   8.435   5.540   8.811 -0.0521 -0.5004  0.3239
20936SOL    HW263387   8.385   5.661   8.886  0.2539  0.4590 -0.9889
20937SOL     OW63388   2.211   6.033   9.520 -0.4492  0.7176  0.1905
20937SOL    HW163389   2.120   6.027   9.551 -1.3107  1.2879 -2.0132
20937SOL    HW263390   2.250   5.950   9.544 -0.6706  1.4343  3.5962
20938SOL     OW63391   3.934   9.656   9.397 -0.2094  0.2578 -0.2542
20938SOL    HW163392   3.879   9.588   9.437 -0.8937  1.5234  1.0597
20938SOL    HW263393   3.906   9.659   9.305 -0.8819 -0.5201 -0.0860
20939SOL     OW63394   3.201   1.138   0.861 -0.1446  0.0886 -0.3421
20939SOL    HW163395   3.242   1.136   0.775 -0.5665 -0.4082 -0.5399
20939SOL    HW263396   3.225   1.054   0.900  2.1395  1.2898  1.0408
20940SOL     OW63397   1.974   3.594   9.819  0.3297  0.1208  0.0515
20940SOL    HW163398   2.048   3.601   9.759  0.9412  0.6937  0.8387
20940SOL    HW263399   1.935   3.681   9.819 -1.5062 -0.6391 -1.7475
20941SOL     OW63400   4.465   3.516   5.079 -0.2925  0.2589  1.1438
20941SOL    HW163401   4.453   3.532   4.986  1.0274  1.2042  1.1094
20941SOL    HW263402   4.420   3.433   5.095 -2.9389  1.4265  0.2652
20942SOL     OW63403   7.681   5.272   3.149  0.1217  0.5657 -0.4547
20942SOL    HW163404   7.750   5.251   3.212 -0.2031 -2.3428 -0.9166
20942SOL    HW263405   7.603   5.286   3.202  0.2724  0.1379 -0.1183
20943SOL     OW63406   7.591   1.815   1.804  0.1980  0.3534 -0.1298
20943SOL    HW163407   7.590   1.768   1.887  1.3322  1.2414  0.4168
20943SOL    HW263408   7.508   1.793   1.763  0.0777 -0.9451  0.7602
20944SOL     OW63409   3.968   7.542   8.052 -0.0689 -0.5034 -0.2939
20944SOL    HW163410   4.041   7.507   8.002  0.5558 -0.0398  0.2825
20944SOL    HW263411   4.003   7.619   8.096 -0.4746 -1.1424  1.2180
20945SOL     OW63412   9.031   4.552   1.704 -0.5054 -0.0333 -0.2790
20945SOL    HW163413   8.958   4.577   1.761  0.4442  0.5811  0.7012
20945SOL    HW263414   9.052   4.632   1.655 -1.3072 -0.5537 -1.5224
20946SOL     OW63415   7.184   8.351   6.940  0.0112 -0.1891  0.0534
20946SOL    HW163416   7.148   8.277   6.987 -1.6335  0.5755  0.0700
20946SOL    HW263417   7.147   8.428   6.983  2.1516  0.7061  0.4397
20947SOL     OW63418   0.440   8.377   1.099 -0.0376 -0.3395 -0.1504
20947SOL    HW163419   0.429   8.378   1.004  0.2455 -0.0682 -0.1825
20947SOL    HW263420   0.398   8.457   1.129  2.8244  1.3682 -0.3987
20948SOL     OW63421   3.799   8.226   6.591  1.1839  0.1964  0.1387
20948SOL    HW163422   3.885   8.191   6.614  0.6366 -1.5679 -0.3786
20948SOL    HW263423   3.742   8.150   6.586 -0.6467  1.4066  1.3117
20949SOL     OW63424   2.223   0.509   8.553  0.2513  0.3004  0.2186
20949SOL    HW163425   2.240   0.598   8.522  0.6606 -0.1791 -1.0039
20949SOL    HW263426   2.128   0.498   8.542  0.4172  0.0577 -1.1741
20950SOL     OW63427   2.720   6.112   6.252 -0.3774 -0.6514 -0.2255
20950SOL    HW163428   2.667   6.067   6.318 -0.9390  0.4897  0.1346
20950SOL    HW263429   2.796   6.145   6.301 -1.2857  1.0577  0.1050
20951SOL     OW63430   5.863   3.555   4.990 -0.0953 -0.1761 -0.2356
20951SOL    HW163431   5.796   3.551   4.923 -0.3904  1.3947 -0.0729
20951SOL    HW263432   5.927   3.488   4.965 -1.6899 -1.7227 -0.3824
20952SOL     OW63433   6.011   8.165   0.289  0.3582  0.7006  0.0250
20952SOL    HW163434   5.975   8.185   0.202  0.5467  0.8319 -0.0246
20952SOL    HW263435   6.046   8.076   0.281  1.8925  1.3110 -0.5379
20953SOL     OW63436   6.635   9.722   4.630 -0.1268  0.4793  0.5735
20953SOL    HW163437   6.603   9.763   4.549 -0.4966  1.1430  1.0452
20953SOL    HW263438   6.718   9.680   4.604  1.0922  2.8316  0.3745
20954SOL     OW63439   6.410   6.935   6.490 -0.3409  0.5061  0.1452
20954SOL    HW163440   6.484   6.893   6.446  2.0176  2.8690  1.5451
20954SOL    HW263441   6.394   6.880   6.567  0.5661  0.3937  0.2714
20955SOL     OW63442   1.721   5.284   9.065 -0.1491 -0.2510 -0.0229
20955SOL    HW163443   1.723   5.193   9.095 -2.1633  0.1210  1.4056
20955SOL    HW263444   1.743   5.278   8.972  0.1652 -2.1381  0.1206
20956SOL     OW63445   4.109   0.260   5.631 -0.4550  0.4398 -0.1597
20956SOL    HW163446   4.124   0.340   5.580 -1.8309 -0.5419 -2.2490
20956SOL    HW263447   4.048   0.287   5.700 -0.2708  1.3574 -0.3428
20957SOL     OW63448   1.413   5.859   5.793 -0.0801 -0.0211  0.1951
20957SOL    HW163449   1.364   5.792   5.746 -3.3891  1.0629  1.7909
20957SOL    HW263450   1.401   5.939   5.742  0.2412  0.2164  0.4837
20958SOL     OW63451   8.496   4.805   7.572 -0.0876  0.0469 -0.6579
20958SOL    HW163452   8.501   4.776   7.481  0.2723  1.4581 -1.1126
20958SOL    HW263453   8.403   4.822   7.587  0.0455  1.3750 -1.2864
20959SOL     OW63454   3.942   0.510   7.217 -0.0194  0.0053  0.8647
20959SOL    HW163455   3.973   0.573   7.152 -1.2300 -0.8239 -0.5808
20959SOL    HW263456   3.848   0.502   7.199 -0.3456 -0.4485  2.5744
20960SOL     OW63457   8.989   4.308   9.407 -0.1116 -0.1379  0.2687
20960SOL    HW163458   9.058   4.260   9.360 -0.2696  0.4203 -0.5499
20960SOL    HW263459   8.952   4.367   9.342  1.9525  3.1941  1.8443
20961SOL     OW63460   8.323   7.092   7.086  0.6572  0.5982 -0.4444
20961SOL    HW163461   8.228   7.107   7.078  0.7048  2.2031  1.1961
20961SOL    HW263462   8.359   7.123   7.003 -0.0188  3.0133  0.0828
20962SOL     OW63463   9.743   0.071   2.286 -0.4507  0.2677 -0.0057
20962SOL    HW163464   9.721   0.142   2.225  1.2005  0.6968 -0.1649
20962SOL    HW263465   9.723   0.107   2.373  0.8728  1.1860 -0.0438
20963SOL     OW63466   8.836   7.272   7.137  0.6781  0.2106  0.0486
20963SOL    HW163467   8.856   7.206   7.071  1.4193  0.0659  0.4029
20963SOL    HW263468   8.788   7.226   7.205  2.5448 -0.3712  1.0542
20964SOL     OW63469   8.412   2.098   7.663 -0.3294 -0.2181  0.5191
20964SOL    HW163470   8.477   2.031   7.641  0.2775  0.4302  0.2890
20964SOL    HW263471   8.462   2.179   7.669 -1.1971  0.4037 -0.2290
20965SOL     OW63472   4.829   0.764   0.992  0.7642  0.3760  0.4986
20965SOL    HW163473   4.847   0.811   0.911  0.4886 -0.5789 -0.1325
20965SOL    HW263474   4.781   0.828   1.046 -1.9478  0.0692 -1.3420
20966SOL     OW63475   0.373   9.176   8.676 -0.2437  0.1448  0.3464
20966SOL    HW163476   0.372   9.270   8.694  1.1354 -0.1147  2.0427
20966SOL    HW263477   0.465   9.151   8.684 -0.7804 -1.6030  1.4421
20967SOL     OW63478   8.790   5.017   4.117 -0.1581  0.3511  0.6928
20967SOL    HW163479   8.700   5.049   4.110 -0.5932 -1.0905 -0.6573
20967SOL    HW263480   8.842   5.081   4.069 -0.5619  0.7444  0.7725
20968SOL     OW63481   9.557   8.312   3.065  0.4207 -0.0239  0.2813
20968SOL    HW163482   9.579   8.391   3.015 -1.2801  0.8713  0.8482
20968SOL    HW263483   9.566   8.339   3.157 -1.6242  0.0090  0.5065
20969SOL     OW63484   1.814   4.212   3.536 -0.5944 -0.4152 -0.3812
20969SOL    HW163485   1.758   4.287   3.556 -0.4470 -0.4367  0.1470
20969SOL    HW263486   1.901   4.239   3.567 -0.5593 -0.8324 -0.1017
20970SOL     OW63487   4.441   6.101   4.273 -0.0130 -0.1173  0.2300
20970SOL    HW163488   4.465   6.193   4.278  0.7869 -0.3688  1.3951
20970SOL    HW263489   4.446   6.079   4.180  1.0314  0.6916  0.0883
20971SOL     OW63490   9.643   0.573   0.563 -0.8672  0.4299  0.0741
20971SOL    HW163491   9.695   0.616   0.495  1.5868  0.2326  1.7076
20971SOL    HW263492   9.628   0.641   0.628 -0.3716 -0.1632  0.8249
20972SOL     OW63493   4.135   6.934   5.829  0.0610  0.1355  0.2205
20972SOL    HW163494   4.229   6.916   5.839 -0.1295 -0.9759  0.1962
20972SOL    HW263495   4.126   6.974   5.743  0.7474  2.2078  1.0529
20973SOL     OW63496   7.401   7.880   5.823  0.1796 -0.3232 -0.4765
20973SOL    HW163497   7.401   7.944   5.894  0.5643 -1.5633  0.6736
20973SOL    HW263498   7.321   7.829   5.835 -0.3280  0.1651 -1.6179
20974SOL     OW63499   5.827   2.495   4.260 -0.0564 -0.1176 -0.6001
20974SOL    HW163500   5.860   2.434   4.326  1.4341 -0.7853 -1.9155
20974SOL    HW263501   5.849   2.581   4.295  1.1752 -0.4809 -0.4473
20975SOL     OW63502   2.211   7.410   0.071  0.5679 -0.2474 -0.6632
20975SOL    HW163503   2.159   7.392  -0.008  0.9180  0.4583 -1.0654
20975SOL    HW263504   2.232   7.503   0.064 -0.0674  0.0180  0.6780
20976SOL     OW63505   4.014   3.192   6.722 -0.5862 -0.9605  0.5559
20976SOL    HW163506   3.959   3.140   6.779  1.2735 -3.3400  0.3241
20976SOL    HW263507   4.098   3.198   6.767  0.4078 -1.4712 -1.1117
20977SOL     OW63508   1.726   8.200   6.640 -0.3033 -0.1741  0.5753
20977SOL    HW163509   1.794   8.156   6.590 -0.7696 -0.5527  0.2668
20977SOL    HW263510   1.715   8.146   6.718 -0.7390 -0.4983  0.2901
20978SOL     OW63511   3.803   4.082   2.485 -0.0076  0.0389 -0.3893
20978SOL    HW163512   3.798   4.164   2.534  1.9415  1.0457 -1.7731
20978SOL    HW263513   3.712   4.060   2.467 -0.7348  0.3372  2.4388
20979SOL     OW63514   1.678   9.237   8.196 -0.1339 -0.1008  0.3151
20979SOL    HW163515   1.758   9.289   8.200 -1.2441  1.5850  1.9436
20979SOL    HW263516   1.665   9.204   8.285 -0.4279 -1.7346 -0.2843
20980SOL     OW63517   3.310   7.273   2.605 -0.6420  0.0060  0.0277
20980SOL    HW163518   3.316   7.365   2.580 -0.4908  0.3461  1.2353
20980SOL    HW263519   3.325   7.224   2.524 -0.6010  1.0418 -0.5977
20981SOL     OW63520   4.075   8.391   1.943  0.2381  0.1090  0.1961
20981SOL    HW163521   4.046   8.466   1.891 -0.1034  0.2492  0.5842
20981SOL    HW263522   4.076   8.318   1.881  0.5975  0.4418 -0.1874
20982SOL     OW63523   4.581   8.083   2.990 -0.5100  0.0859  0.3764
20982SOL    HW163524   4.645   8.133   3.041  1.3056  0.0695 -1.7586
20982SOL    HW263525   4.621   7.997   2.978 -0.7424  0.1751 -1.2512
20983SOL     OW63526   1.186   9.001   3.578 -0.1891  0.2724 -0.0457
20983SOL    HW163527   1.242   8.991   3.501  0.3485 -0.5491  0.4234
20983SOL    HW263528   1.100   8.971   3.550 -0.5305  1.9068 -0.8885
20984SOL     OW63529   9.846   2.947   1.516 -0.3993 -0.1014 -0.3026
20984SOL    HW163530   9.937   2.919   1.506  0.0147  0.7091  0.9063
20984SOL    HW263531   9.826   2.928   1.608 -0.7237  1.7547  0.0341
20985SOL     OW63532   6.905   7.420   2.252  0.1126  0.6958 -0.5589
20985SOL    HW163533   6.986   7.373   2.271  0.0391  1.1471  1.0773
20985SOL    HW263534   6.916   7.454   2.163  1.0028 -0.6653 -0.9924
20986SOL     OW63535   1.886   5.107   6.357 -0.3219  0.3860  0.1400
20986SOL    HW163536   1.833   5.045   6.306  1.3637 -1.2285  0.2397
20986SOL    HW263537   1.866   5.086   6.448 -0.1371  0.3487  0.1718
20987SOL     OW63538   6.361   0.956   2.695 -0.0112  0.6948  0.2755
20987SOL    HW163539   6.451   0.988   2.698  0.4779 -0.6209 -0.0533
20987SOL    HW263540   6.367   0.862   2.712 -1.2789  0.5047 -0.1957
20988SOL     OW63541   7.650   6.186   9.847 -0.5383 -0.2147 -0.1763
20988SOL    HW163542   7.575   6.132   9.871  0.1111 -1.3185 -0.5298
20988SOL    HW263543   7.697   6.199   9.930 -0.0171 -1.3053 -0.2784
20989SOL     OW63544   1.562   1.483   9.539  0.4181  0.0659 -0.1613
20989SOL    HW163545   1.566   1.455   9.630  0.4882 -0.7308 -0.4039
20989SOL    HW263546   1.530   1.406   9.491 -3.4869  1.5446 -0.3216
20990SOL     OW63547   3.027   7.625   6.198 -0.5257  0.4225 -0.1427
20990SOL    HW163548   3.010   7.535   6.172  2.6554 -0.2035 -0.4016
20990SOL    HW263549   2.995   7.677   6.124 -0.8144 -0.5859 -0.7541
20991SOL     OW63550   7.062   6.363   8.334 -0.2705  0.1899 -0.0654
20991SOL    HW163551   7.032   6.419   8.406 -0.7293 -0.8408  0.5749
20991SOL    HW263552   7.131   6.309   8.373  0.2632  0.3870 -0.7097
20992SOL     OW63553   8.111   1.308   4.670 -0.3162 -0.2825 -0.2397
20992SOL    HW163554   8.072   1.396   4.665  0.5875  0.0919 -0.9669
20992SOL    HW263555   8.139   1.299   4.761 -0.8714 -0.0247 -0.0353
20993SOL     OW63556   9.262   9.759   1.744 -0.0924  0.4078  0.4937
20993SOL    HW163557   9.289   9.779   1.654 -1.6462  1.5203  0.2258
20993SOL    HW263558   9.307   9.824   1.798  1.3965 -0.7003  0.6401
20994SOL     OW63559   8.046   0.712   5.740  0.4457  0.0105 -0.3967
20994SOL    HW163560   7.957   0.696   5.771  0.7032  0.0652  0.3720
20994SOL    HW263561   8.033   0.759   5.657 -0.2485  1.9410  0.7309
20995SOL     OW63562   5.714   7.295   1.502 -0.8149 -0.3227 -0.2101
20995SOL    HW163563   5.774   7.366   1.480  1.8862 -1.5201  2.7018
20995SOL    HW263564   5.693   7.308   1.594 -3.2704 -1.3070 -0.5431
20996SOL     OW63565   0.126   8.616   5.182  0.2223 -0.2641 -0.4182
20996SOL    HW163566   0.121   8.586   5.273  0.4351 -1.2055 -0.7117
20996SOL    HW263567   0.129   8.712   5.189  0.2880 -0.3254  0.5637
20997SOL     OW63568   5.987   9.584   6.001 -0.0452 -0.1190 -0.2582
20997SOL    HW163569   5.927   9.513   6.024 -0.7363  0.2021 -1.0466
20997SOL    HW263570   5.987   9.641   6.078 -0.7588 -0.1126 -0.2618
20998SOL     OW63571   0.995   7.442   1.548 -0.2103 -0.6476 -0.7006
20998SOL    HW163572   1.054   7.435   1.473 -1.2855 -0.8582 -1.5444
20998SOL    HW263573   0.916   7.396   1.520 -0.5344 -0.9464  0.6583
20999SOL     OW63574   2.811   5.649   3.610 -0.8699 -0.1484  0.4079
20999SOL    HW163575   2.801   5.640   3.515 -1.4068 -1.1550  0.5389
20999SOL    HW263576   2.794   5.561   3.644 -3.2260  0.7175  1.6565
21000SOL     OW63577   2.925   0.444   0.563 -0.6733 -1.1679  0.3025
21000SOL    HW163578   2.965   0.361   0.536 -1.2336 -1.6969  1.0638
21000SOL    HW263579   2.997   0.493   0.604 -0.3365 -1.2621 -0.1732
21001SOL     OW63580   3.687   1.221   7.133  0.2990  0.0481 -0.3375
21001SOL    HW163581   3.753   1.283   7.102  0.7499 -0.1513  0.1991
21001SOL    HW263582   3.612   1.275   7.157  0.9372  0.4681  0.7882
21002SOL     OW63583   7.999   0.170   5.929  0.4924  0.1791  0.3617
21002SOL    HW163584   7.907   0.156   5.951  0.2756  0.4166 -0.3917
21002SOL    HW263585   8.000   0.255   5.884  0.8660 -0.5128 -0.9618
21003SOL     OW63586   7.500   5.616   1.240  0.0731  0.0716  0.1280
21003SOL    HW163587   7.485   5.579   1.153 -0.2707  0.3178  0.0816
21003SOL    HW263588   7.412   5.632   1.275  0.2049 -0.5169  0.7313
21004SOL     OW63589   1.423   1.512   5.004 -0.1190 -0.5869 -0.0256
21004SOL    HW163590   1.476   1.500   5.082  1.2516  1.4375 -0.5681
21004SOL    HW263591   1.474   1.470   4.934 -0.9339 -1.6510 -0.0039
21005SOL     OW63592   1.653   3.319   0.439  0.5256  0.5484  0.4559
21005SOL    HW163593   1.743   3.330   0.408  0.3852  0.3151 -0.0560
21005SOL    HW263594   1.633   3.227   0.421  0.2793  0.5266  0.8276
21006SOL     OW63595   3.253   4.914   4.001  0.5354  0.1757 -0.3857
21006SOL    HW163596   3.315   4.841   4.001  1.1678  0.5867  2.1044
21006SOL    HW263597   3.308   4.991   4.017 -0.3195  0.9625 -1.1169
21007SOL     OW63598   6.702   1.451   6.095 -0.0897  0.4467 -0.0162
21007SOL    HW163599   6.652   1.370   6.087  1.2577 -0.4068  0.0600
21007SOL    HW263600   6.793   1.425   6.084  0.3857  1.9185  0.2411
21008SOL     OW63601   1.807   7.879   9.839  0.3376  0.1576  0.2796
21008SOL    HW163602   1.788   7.815   9.908 -0.1564  0.3698  0.3443
21008SOL    HW263603   1.899   7.862   9.816  0.0930 -0.8579 -0.0116
21009SOL     OW63604   9.411   4.189   1.417  0.4741  0.0444  0.5127
21009SOL    HW163605   9.414   4.223   1.327  0.2593  0.4780  0.6669
21009SOL    HW263606   9.499   4.205   1.452  0.0267  1.6533  1.0148
21010SOL     OW63607   4.262   2.891   8.198 -0.4342 -0.1638  0.5074
21010SOL    HW163608   4.357   2.890   8.204 -0.3645  0.3157 -0.2958
21010SOL    HW263609   4.237   2.980   8.225 -0.6187 -0.1661  0.3517
21011SOL     OW63610   0.096   0.735   0.564  0.7204  0.3903  0.1810
21011SOL    HW163611   0.183   0.730   0.525  0.2183  1.0611 -1.1116
21011SOL    HW263612   0.047   0.794   0.506 -0.7029 -0.2724  0.6417
21012SOL     OW63613   0.731   1.787   9.375  0.2304  0.7429  0.0045
21012SOL    HW163614   0.723   1.882   9.383  0.0839  0.7565 -0.2974
21012SOL    HW263615   0.669   1.763   9.306 -0.8524  0.2347  1.1208
21013SOL     OW63616   3.684   0.471   0.032  0.5847 -0.0604  0.5203
21013SOL    HW163617   3.597   0.432   0.034 -0.0957  1.2924 -0.7146
21013SOL    HW263618   3.704   0.478  -0.062  0.7035  2.3928  0.6801
21014SOL     OW63619   8.311   5.834   1.064  0.4061  0.4783  0.1304
21014SOL    HW163620   8.335   5.842   0.972  1.7531  2.7768  0.6118
21014SOL    HW263621   8.251   5.906   1.080 -1.1174 -0.8691  0.7201
21015SOL     OW63622   2.011   4.520   6.344 -0.3736  0.0681  0.1916
21015SOL    HW163623   2.092   4.570   6.340 -0.5392  0.5657  2.0676
21015SOL    HW263624   2.039   4.429   6.357 -0.0875  0.2801  1.1660
21016SOL     OW63625   3.505   8.836   8.775  0.1183 -0.1568 -0.1759
21016SOL    HW163626   3.500   8.770   8.705 -0.3065  0.4611 -0.7404
21016SOL    HW263627   3.597   8.860   8.778  0.3214 -0.9237  0.1854
21017SOL     OW63628   9.219   6.974   4.925 -0.0542 -0.0333 -0.5704
21017SOL    HW163629   9.210   7.069   4.927 -1.2114 -0.0887 -1.5980
21017SOL    HW263630   9.204   6.946   5.015 -1.9969  0.6195 -0.6539
21018SOL     OW63631   2.505   6.139   1.439  0.6042  0.0784 -0.4752
21018SOL    HW163632   2.591   6.136   1.399  1.7873  2.0631  1.6555
21018SOL    HW263633   2.483   6.232   1.442 -0.8557 -0.2556  0.5517
21019SOL     OW63634   7.773   7.370   7.618  0.1119 -0.5361  0.8415
21019SOL    HW163635   7.797   7.336   7.704 -0.3578 -0.7469  0.8924
21019SOL    HW263636   7.794   7.464   7.622  2.1677 -0.9319  0.4346
21020SOL     OW63637   3.481   5.374   6.347 -0.1957 -0.0125  0.5857
21020SOL    HW163638   3.575   5.391   6.349 -0.5223  2.2109  0.2854
21020SOL    HW263639   3.459   5.371   6.254 -0.6307  1.1574  0.6278
21021SOL     OW63640   8.398   7.649   1.760  0.0107 -0.9515 -0.6884
21021SOL    HW163641   8.392   7.729   1.707  1.2944 -0.1611  0.3168
21021SOL    HW263642   8.313   7.643   1.803  0.1848  0.3647 -0.1134
21022SOL     OW63643   0.768   6.166   9.328  0.3260 -0.1132  0.2278
21022SOL    HW163644   0.839   6.228   9.315  2.0175 -2.2809 -1.6990
21022SOL    HW263645   0.695   6.202   9.279  0.7585  1.0725  0.4132
21023SOL     OW63646   1.943   4.799   4.736 -0.1611  0.1662 -0.7538
21023SOL    HW163647   1.919   4.839   4.652 -2.0357  0.1118 -0.2763
21023SOL    HW263648   1.984   4.870   4.785 -0.7263  0.7083 -1.0413
21024SOL     OW63649   2.258   2.514   4.614  0.6669 -0.4698 -0.5780
21024SOL    HW163650   2.334   2.470   4.652  0.8977 -0.0404 -0.5406
21024SOL    HW263651   2.215   2.556   4.689 -0.8271 -2.4725 -0.2230
21025SOL     OW63652   7.253   8.845   4.222  0.5797 -0.6295  0.2233
21025SOL    HW163653   7.234   8.793   4.144  2.8798  0.8371 -1.4536
21025SOL    HW263654   7.228   8.935   4.198  0.7894 -0.2348  1.4018
21026SOL     OW63655   9.688   7.580   3.593  0.5260  0.3167  0.1565
21026SOL    HW163656   9.691   7.584   3.689 -1.6791  1.0581  0.2468
21026SOL    HW263657   9.597   7.560   3.573  0.8492  0.6403 -1.8177
21027SOL     OW63658   6.845   2.518   2.897  0.2619 -0.6302  0.3055
21027SOL    HW163659   6.819   2.468   2.975 -0.8843 -1.0001 -0.2982
21027SOL    HW263660   6.919   2.469   2.861 -0.2652 -1.3866  0.2351
21028SOL     OW63661   6.372   9.721   6.294  0.3054  0.2166  0.3805
21028SOL    HW163662   6.462   9.734   6.326 -0.1481  1.5874  1.1539
21028SOL    HW263663   6.379   9.734   6.199  1.2283 -1.5562  0.1442
21029SOL     OW63664   7.115   2.123   9.369  0.2890  0.1630  0.0114
21029SOL    HW163665   7.145   2.034   9.385 -0.4172 -0.2615 -0.8928
21029SOL    HW263666   7.126   2.168   9.453  1.7519 -0.4338  0.1689
21030SOL     OW63667   7.275   7.526   4.162  0.0895  0.1533 -0.1043
21030SOL    HW163668   7.367   7.502   4.174 -0.0819 -0.2542  0.4212
21030SOL    HW263669   7.253   7.493   4.075  1.0507  2.2149 -1.2159
21031SOL     OW63670   3.764   2.526   0.008  0.2050  0.4506  0.3261
21031SOL    HW163671   3.674   2.559   0.002  0.2479  0.5230  0.0662
21031SOL    HW263672   3.797   2.563   0.091 -0.2910 -0.3079  0.8710
21032SOL     OW63673   0.574   2.380   8.714  0.2897 -0.3449  0.1329
21032SOL    HW163674   0.589   2.341   8.799 -0.2102 -0.2516  0.2651
21032SOL    HW263675   0.662   2.393   8.678  0.4588 -1.8422 -0.0418
21033SOL     OW63676   8.672   0.405   8.567  0.0069  0.0365 -0.3035
21033SOL    HW163677   8.608   0.470   8.596 -0.1326 -0.0521 -0.4066
21033SOL    HW263678   8.692   0.354   8.646  0.1939  0.2710 -0.2008
21034SOL     OW63679   8.476   3.187   8.902  0.7999 -0.9049 -0.6065
21034SOL    HW163680   8.501   3.206   8.992  1.1143  0.2102 -0.9086
21034SOL    HW263681   8.541   3.125   8.871  1.4049 -0.3616 -0.4383
21035SOL     OW63682   7.755   8.309   9.876 -0.1167  0.1862 -0.3901
21035SOL    HW163683   7.689   8.349   9.934  1.1701  1.2389  0.4047
21035SOL    HW263684   7.737   8.349   9.790 -0.8513  0.0508 -0.3086
21036SOL     OW63685   1.739   7.513   7.725 -0.4131 -0.2438 -0.2383
21036SOL    HW163686   1.736   7.527   7.820  0.1422  1.5232 -0.4375
21036SOL    HW263687   1.674   7.575   7.691  0.6031  0.3773 -1.1026
21037SOL     OW63688   9.724   7.394   2.312 -0.8035 -0.0012 -0.4621
21037SOL    HW163689   9.684   7.331   2.372 -0.2717  0.9895  0.9743
21037SOL    HW263690   9.753   7.466   2.368 -0.3203  0.9836 -1.9199
21038SOL     OW63691   4.485   3.832   0.020  0.1076  0.3430 -0.1426
21038SOL    HW163692   4.408   3.777   0.011 -0.2990  0.9899 -0.7536
21038SOL    HW263693   4.551   3.775   0.060 -0.0602 -0.8095 -1.4373
21039SOL     OW63694   8.469   2.840   9.862 -0.1487 -0.2081  0.1833
21039SOL    HW163695   8.376   2.865   9.863 -1.2689 -3.4730 -3.1886
21039SOL    HW263696   8.473   2.761   9.916  0.8847  0.3395  0.9358
21040SOL     OW63697   7.110   2.749   1.972  0.2024 -0.2504  0.0676
21040SOL    HW163698   7.071   2.661   1.969 -3.6759  1.3208 -0.1610
21040SOL    HW263699   7.079   2.786   2.055  0.2408  1.5499 -0.6890
21041SOL     OW63700   1.102   8.100   5.340  0.2765 -0.3035  0.1004
21041SOL    HW163701   1.158   8.149   5.280 -0.2802 -0.8628 -0.8917
21041SOL    HW263702   1.163   8.043   5.388  0.5367 -1.3025 -1.3453
21042SOL     OW63703   5.527   0.777   0.669  0.5407  0.7805 -0.0092
21042SOL    HW163704   5.518   0.860   0.715 -0.4510  1.4414 -1.3335
21042SOL    HW263705   5.495   0.712   0.730 -0.4291  1.5928  0.3810
21043SOL     OW63706   2.385   5.823   5.575  0.0204 -0.1550 -0.5115
21043SOL    HW163707   2.371   5.814   5.670  1.4171 -1.8965 -0.4174
21043SOL    HW263708   2.308   5.782   5.535  0.2811 -1.0840 -0.0927
21044SOL     OW63709   2.200   3.873   3.848  0.0123 -0.0385 -0.3246
21044SOL    HW163710   2.256   3.895   3.774  2.7568  0.7951  1.8451
21044SOL    HW263711   2.218   3.940   3.913 -0.6567 -1.8971  1.9169
21045SOL     OW63712   9.335   1.921   1.750 -0.1704 -0.0531 -0.2880
21045SOL    HW163713   9.382   1.897   1.670  0.1265  0.3603 -0.2412
21045SOL    HW263714   9.301   1.838   1.784 -1.3965 -0.0999 -1.5322
21046SOL     OW63715   8.205   6.045   1.501 -0.3262  0.0774  0.6584
21046SOL    HW163716   8.139   5.981   1.526 -1.7000  1.2057  0.0353
21046SOL    HW263717   8.173   6.083   1.419  1.1391  0.5947  0.2875
21047SOL     OW63718   8.929   1.277   6.984 -0.3822  0.2989 -0.6038
21047SOL    HW163719   8.931   1.346   6.918 -0.5492  0.4047 -0.5000
21047SOL    HW263720   9.005   1.295   7.040 -0.0797  0.0439 -0.9306
21048SOL     OW63721   0.103   4.767   4.412  0.3588 -0.1637  0.4960
21048SOL    HW163722   0.132   4.682   4.448  1.7067  0.0187 -0.0758
21048SOL    HW263723   0.168   4.787   4.345  1.3456  2.3490  2.0543
21049SOL     OW63724   5.196   0.148   2.962 -0.3605 -0.5141 -0.0002
21049SOL    HW163725   5.281   0.177   2.994 -0.5336 -0.4900  0.4540
21049SOL    HW263726   5.140   0.150   3.040 -1.3417  1.5596 -0.6910
21050SOL     OW63727   5.602   5.284   0.592 -0.1721  0.1970 -0.3363
21050SOL    HW163728   5.576   5.375   0.608 -0.2829  0.4436 -1.7653
21050SOL    HW263729   5.663   5.264   0.663 -0.7467  1.1299  0.4442
21051SOL     OW63730   8.699   0.709   4.173  1.1900  0.1691 -0.7136
21051SOL    HW163731   8.685   0.618   4.149 -0.0589  0.3828 -0.8838
21051SOL    HW263732   8.624   0.756   4.135  1.1319  1.0670  0.4348
21052SOL     OW63733   7.214   1.031   7.655 -0.4667 -0.4226 -0.2997
21052SOL    HW163734   7.246   1.107   7.704 -0.2178 -0.6392 -0.1233
21052SOL    HW263735   7.269   1.028   7.577  0.6328 -1.3732  0.4718
21053SOL     OW63736   9.503   5.446   7.305  0.2652  0.4624  0.6171
21053SOL    HW163737   9.588   5.491   7.308  0.4973 -0.0098  2.1596
21053SOL    HW263738   9.455   5.480   7.380 -0.0226 -0.9383  1.1080
21054SOL     OW63739   6.618   0.147   5.443  0.2364  0.4065  0.0358
21054SOL    HW163740   6.647   0.119   5.530  1.8419  2.3587  0.2043
21054SOL    HW263741   6.697   0.142   5.389 -0.7369 -0.7773 -1.3376
21055SOL     OW63742   6.156   4.446   1.175 -0.3499 -0.2058  0.8886
21055SOL    HW163743   6.222   4.465   1.108 -0.2966 -0.6640  0.8106
21055SOL    HW263744   6.206   4.432   1.255 -0.3452 -0.6499  0.8088
21056SOL     OW63745   4.317   6.641   7.784  0.2489 -0.4774 -0.4031
21056SOL    HW163746   4.402   6.623   7.743  1.0997  1.7282  0.2376
21056SOL    HW263747   4.299   6.563   7.837  2.3148 -0.6824  0.1029
21057SOL     OW63748   2.880   6.865   8.489  0.1259 -0.0210  0.1022
21057SOL    HW163749   2.914   6.795   8.544  0.3635 -0.2396 -0.3244
21057SOL    HW263750   2.951   6.885   8.428  0.3196  1.0543  0.6523
21058SOL     OW63751   9.987   3.609   6.273  0.0972 -0.3828  0.5666
21058SOL    HW163752   9.915   3.548   6.288  0.8394 -1.1096  1.2963
21058SOL    HW263753   9.944   3.694   6.262 -0.9692 -1.0359 -0.6422
21059SOL     OW63754   7.523   9.015   6.466  0.0034  0.2803 -0.1393
21059SOL    HW163755   7.546   9.080   6.532  1.1516  0.8108 -1.0269
21059SOL    HW263756   7.605   8.997   6.420 -0.3326 -1.6414 -0.0701
21060SOL     OW63757   0.100   3.986   7.121 -0.4537 -0.7728  0.6726
21060SOL    HW163758   0.126   4.030   7.202  0.5901 -0.0217 -0.0388
21060SOL    HW263759   0.179   3.942   7.092 -0.8632 -1.1590  0.1347
21061SOL     OW63760   7.451   2.882   0.306 -0.2183  0.3670 -0.0510
21061SOL    HW163761   7.519   2.822   0.336 -0.0070  0.7029  0.1553
21061SOL    HW263762   7.435   2.858   0.215  2.5318  2.3740 -1.1907
21062SOL     OW63763   1.287   3.752   8.872  0.4356 -0.0581  0.0742
21062SOL    HW163764   1.296   3.709   8.787 -0.4141 -2.4195  1.0872
21062SOL    HW263765   1.374   3.747   8.911  1.0376  1.7983 -0.9438
21063SOL     OW63766   9.391   7.752   2.695 -0.4638  0.2005 -0.8273
21063SOL    HW163767   9.469   7.729   2.745 -0.3379  1.2905 -0.5085
21063SOL    HW263768   9.387   7.686   2.625  0.0608 -0.5727 -0.1476
21064SOL     OW63769   8.285   5.543   4.216 -0.8959  0.0826  0.3282
21064SOL    HW163770   8.194   5.524   4.234 -0.7745  1.0345  2.1180
21064SOL    HW263771   8.329   5.536   4.300  1.1325 -2.4356 -0.7976
21065SOL     OW63772   8.739   0.445   0.266 -0.1472  0.4288  0.1566
21065SOL    HW163773   8.730   0.500   0.343  1.8515 -0.2437  0.9261
21065SOL    HW263774   8.779   0.502   0.200  2.6229 -0.1951  1.1872
21066SOL     OW63775   1.721   8.132   9.795  0.4565 -0.3902  0.1898
21066SOL    HW163776   1.755   8.042   9.798  0.8959 -0.2057  1.4825
21066SOL    HW263777   1.758   8.174   9.873 -1.3595  0.3336  0.7043
21067SOL     OW63778   2.831   5.990   2.604 -0.6388 -0.3519 -0.0830
21067SOL    HW163779   2.925   5.972   2.606 -0.4132  0.7965  0.5710
21067SOL    HW263780   2.819   6.047   2.528  0.0612  3.5730  2.4454
21068SOL     OW63781   1.433   2.422   5.289  1.3134 -0.6995  0.2556
21068SOL    HW163782   1.494   2.349   5.279  0.0418 -1.8142  0.3280
21068SOL    HW263783   1.395   2.432   5.202  1.3942 -0.1900  0.2781
21069SOL     OW63784   9.801   5.561   8.921 -0.6025  0.3499 -0.3897
21069SOL    HW163785   9.833   5.649   8.938  1.6309 -0.6812  1.3157
21069SOL    HW263786   9.797   5.554   8.826  1.8227  1.4713 -0.6369
21070SOL     OW63787   8.260   9.673   4.091 -0.2065  0.2643  0.2475
21070SOL    HW163788   8.246   9.696   3.999 -0.4704  0.2096  0.2753
21070SOL    HW263789   8.205   9.733   4.140 -0.7519 -0.2983  0.3283
21071SOL     OW63790   7.965   5.834   2.651  0.3602  0.0778 -0.3164
21071SOL    HW163791   7.911   5.786   2.588  0.3592 -0.0671 -0.2069
21071SOL    HW263792   7.905   5.898   2.690 -0.1172 -1.0086  0.8194
21072SOL     OW63793   2.830   5.676   7.219 -0.1985 -0.5201  0.0274
21072SOL    HW163794   2.804   5.755   7.174 -1.9797 -1.4030 -0.5698
21072SOL    HW263795   2.766   5.610   7.193  0.3171 -1.7754  1.6942
21073SOL     OW63796   5.803   5.568   4.947 -0.4374 -0.1926 -0.1060
21073SOL    HW163797   5.882   5.515   4.954  0.1804  0.7977  0.8950
21073SOL    HW263798   5.778   5.563   4.855  2.6664  2.0437 -1.2518
21074SOL     OW63799   4.578   2.722   4.742  0.4525  0.1836  0.0446
21074SOL    HW163800   4.484   2.736   4.729 -0.0687  0.6663  3.4195
21074SOL    HW263801   4.592   2.629   4.722 -1.1073 -0.2971  1.0284
21075SOL     OW63802   2.631   9.222   7.196 -0.0135  0.1670 -0.0141
21075SOL    HW163803   2.630   9.231   7.291  2.1328 -1.3396  0.2193
21075SOL    HW263804   2.608   9.130   7.181 -1.4454  0.6527 -1.0620
21076SOL     OW63805   2.824   8.633   6.897 -0.9027  0.0680 -0.0314
21076SOL    HW163806   2.741   8.588   6.878 -0.5922 -0.5705  0.0880
21076SOL    HW263807   2.878   8.618   6.819 -1.1363  1.0792 -0.4042
21077SOL     OW63808   8.958   8.168   4.941 -0.3625  0.3551  0.0092
21077SOL    HW163809   8.907   8.246   4.962  1.4069  1.3333  0.8782
21077SOL    HW263810   8.898   8.095   4.957 -1.8723  1.4901 -0.2820
21078SOL     OW63811   8.809   8.472   9.014  0.1780  0.7703  0.2535
21078SOL    HW163812   8.874   8.403   9.002 -1.7874 -0.9571 -1.1072
21078SOL    HW263813   8.849   8.550   8.976  1.0767 -0.4914 -1.5349
21079SOL     OW63814   1.635   1.065   3.544  0.1658 -0.3805  0.2846
21079SOL    HW163815   1.559   1.018   3.509  1.1344 -1.4035 -0.5001
21079SOL    HW263816   1.706   1.002   3.541  1.5167  1.0964 -0.7625
21080SOL     OW63817   3.017   5.141   0.871 -0.4413 -0.2899  0.1549
21080SOL    HW163818   3.033   5.115   0.961  0.2216 -1.3273 -0.2432
21080SOL    HW263819   2.950   5.209   0.877 -0.1333 -0.0800  1.4440
21081SOL     OW63820   4.180   9.387   2.290 -0.1281  0.3145  0.1469
21081SOL    HW163821   4.143   9.313   2.338  0.3949  0.3245  0.5784
21081SOL    HW263822   4.169   9.363   2.198  0.0466 -0.3150  0.2818
21082SOL     OW63823   0.220   5.598   3.426 -0.7416  0.2553 -0.0452
21082SOL    HW163824   0.278   5.522   3.425 -0.8479  0.1715 -1.0483
21082SOL    HW263825   0.279   5.673   3.417 -0.7970  0.1261 -2.0469
21083SOL     OW63826   8.909   6.924   7.457  0.0821 -0.6687 -0.0053
21083SOL    HW163827   8.946   6.976   7.386  0.8776 -3.4461 -1.7811
21083SOL    HW263828   8.985   6.891   7.505 -0.3224 -1.3614  0.1714
21084SOL     OW63829   2.173   4.359   4.727  0.4587 -0.3297 -0.2565
21084SOL    HW163830   2.176   4.450   4.759 -0.0330  0.9073 -3.3740
21084SOL    HW263831   2.089   4.326   4.759  0.6484  0.2603  0.9407
21085SOL     OW63832   9.592   4.214   5.084  0.3017  0.1143 -0.5574
21085SOL    HW163833   9.675   4.165   5.089  0.6980  0.8095 -0.0957
21085SOL    HW263834   9.572   4.236   5.175 -0.9637 -0.9526 -0.5493
21086SOL     OW63835   9.899   7.045   7.306  1.2858  0.0501  0.3992
21086SOL    HW163836   9.844   6.993   7.366 -0.0571  0.0546 -0.7656
21086SOL    HW263837   9.893   6.999   7.222  0.6623  1.6590 -0.4803
21087SOL     OW63838   4.137   1.661   9.009 -0.2382 -0.5407 -0.5174
21087SOL    HW163839   4.097   1.746   9.029  0.6406  0.8897 -4.1142
21087SOL    HW263840   4.220   1.662   9.055  0.0499  0.9006 -1.0051
21088SOL     OW63841   1.424   9.166   1.724 -0.3776 -0.2648  0.0667
21088SOL    HW163842   1.422   9.073   1.747 -1.8088 -0.5377 -1.0006
21088SOL    HW263843   1.507   9.177   1.677 -0.1210 -0.9709  0.3381
21089SOL     OW63844   0.186   4.016   9.939 -0.3118  0.2106  0.5410
21089SOL    HW163845   0.280   4.032   9.941 -0.3968  0.7755  0.2617
21089SOL    HW263846   0.177   3.931   9.897  0.0305  0.6409 -0.4455
21090SOL     OW63847   8.469   7.808   7.025  0.0248 -0.5485  0.0443
21090SOL    HW163848   8.528   7.742   7.062 -0.3328 -0.6235  0.4874
21090SOL    HW263849   8.504   7.892   7.055 -0.3393 -0.6161  0.6741
21091SOL     OW63850   0.391   3.296   9.073  0.2499  0.2346 -0.7157
21091SOL    HW163851   0.447   3.252   9.137  0.8062 -0.5135 -1.6809
21091SOL    HW263852   0.402   3.389   9.091  0.7439  0.0482 -0.0091
21092SOL     OW63853   4.627   2.183   5.405 -0.0581  0.3339  0.4819
21092SOL    HW163854   4.712   2.153   5.371  0.6563 -0.0603  2.5118
21092SOL    HW263855   4.567   2.112   5.385  0.4167 -0.0374  0.3453
21093SOL     OW63856   5.927   1.527   5.285 -0.7203  0.2219  0.2918
21093SOL    HW163857   6.011   1.574   5.279  0.1422 -1.3081 -0.0332
21093SOL    HW263858   5.861   1.595   5.269  0.4022  1.6067  1.2483
21094SOL     OW63859   7.261   8.326   6.393 -0.2455  0.5242 -0.2115
21094SOL    HW163860   7.231   8.414   6.372  0.7259  0.7772 -0.5765
21094SOL    HW263861   7.280   8.328   6.487 -1.0937  0.4361 -0.0321
21095SOL     OW63862   8.385   2.336   7.465  0.8358 -0.8450  0.1460
21095SOL    HW163863   8.347   2.373   7.386  1.2369  0.4020  0.5006
21095SOL    HW263864   8.461   2.287   7.435  0.3751 -1.2807 -0.3297
21096SOL     OW63865   0.997   2.845   4.411  0.6734 -0.4002 -0.0700
21096SOL    HW163866   1.062   2.833   4.480  3.2514 -0.3007 -2.2765
21096SOL    HW263867   0.964   2.933   4.423  0.7756 -0.5319  1.2550
21097SOL     OW63868   0.769   1.003   1.482  0.0049  0.7811  0.0455
21097SOL    HW163869   0.826   1.080   1.476 -0.3766  1.1834  1.2580
21097SOL    HW263870   0.699   1.029   1.542 -1.3379  0.1978 -1.2021
21098SOL     OW63871   4.848   0.993   4.475 -0.5808  0.0512 -0.5610
21098SOL    HW163872   4.824   1.086   4.470 -0.1832  0.2154  0.3527
21098SOL    HW263873   4.766   0.948   4.493 -0.8820  0.1519 -1.6340
21099SOL     OW63874   5.039   6.600   5.404  0.4145  0.2063 -0.4910
21099SOL    HW163875   5.018   6.516   5.445 -0.0415  0.8392  0.6414
21099SOL    HW263876   5.134   6.600   5.396  0.5995  0.2918  1.1971
21100SOL     OW63877   5.775   8.787   6.273  0.4366  0.7453 -0.0122
21100SOL    HW163878   5.709   8.753   6.333 -0.7347  0.5888 -1.3159
21100SOL    HW263879   5.857   8.784   6.322  0.2706 -3.0273  0.3216
21101SOL     OW63880   4.669   0.713   5.032  0.0835  0.2311  0.0731
21101SOL    HW163881   4.584   0.753   5.013  0.6627  0.8441 -1.4004
21101SOL    HW263882   4.710   0.772   5.095 -0.5377 -0.0014  0.6941
21102SOL     OW63883   5.403   0.914   8.454  0.3356  0.4571 -0.0955
21102SOL    HW163884   5.358   0.833   8.430  0.2371  0.7455 -0.9096
21102SOL    HW263885   5.385   0.925   8.548  0.9264 -0.8158  0.1777
21103SOL     OW63886   8.863   7.735   0.150  0.4041 -0.2931  0.4662
21103SOL    HW163887   8.917   7.673   0.101  1.8720  0.0637  1.5583
21103SOL    HW263888   8.859   7.699   0.239  0.8392  0.8733  0.9843
21104SOL     OW63889   3.194   3.372   6.611 -0.5076 -0.0173  0.1681
21104SOL    HW163890   3.267   3.413   6.656 -2.3379  0.8037  2.5978
21104SOL    HW263891   3.161   3.440   6.552  0.6075 -0.3761 -0.9015
21105SOL     OW63892   3.025   9.703   6.527  0.7045 -0.6101 -0.1384
21105SOL    HW163893   2.939   9.683   6.490 -0.0354 -0.1720  1.2584
21105SOL    HW263894   3.085   9.643   6.483 -0.4616 -1.5292 -0.5173
21106SOL     OW63895   6.869   9.493   2.301  0.4080  0.1371 -0.1111
21106SOL    HW163896   6.905   9.553   2.236  0.5615 -0.4743 -0.5964
21106SOL    HW263897   6.831   9.422   2.250 -0.0207 -0.0461  0.4523
21107SOL     OW63898   0.113   8.039   4.735 -0.2098  0.0542 -0.3513
21107SOL    HW163899   0.033   8.086   4.713 -0.2440  0.4103  0.4953
21107SOL    HW263900   0.089   7.985   4.810 -0.1759 -1.3466 -1.3101
21108SOL     OW63901   2.624   4.047   2.370 -0.3081  0.5052 -0.1004
21108SOL    HW163902   2.710   4.047   2.412 -0.1782 -1.1648 -0.2806
21108SOL    HW263903   2.629   4.116   2.305  0.7936  0.6451  0.1123
21109SOL     OW63904   9.748   2.491   6.995  0.2107 -0.1901 -0.5478
21109SOL    HW163905   9.710   2.547   6.929 -0.0524 -1.3389 -1.4007
21109SOL    HW263906   9.747   2.403   6.957 -0.6960 -1.0355  1.2783
21110SOL     OW63907   9.629   8.009   8.706 -0.1946 -0.8013  0.2634
21110SOL    HW163908   9.668   8.097   8.699 -0.1814 -0.6731  1.7036
21110SOL    HW263909   9.581   7.998   8.624  2.4379 -0.7731 -1.3865
21111SOL     OW63910   4.220   0.190   6.244 -0.7677 -0.0628 -0.4256
21111SOL    HW163911   4.243   0.194   6.337  1.4015  0.3652 -0.9301
21111SOL    HW263912   4.137   0.237   6.238 -2.0745 -1.9083  1.5754
21112SOL     OW63913   1.453   2.178   9.688 -0.1014  0.1163  0.5282
21112SOL    HW163914   1.382   2.243   9.691  0.3673  0.7219 -0.7594
21112SOL    HW263915   1.461   2.155   9.596  0.1557 -1.3404  0.8921
21113SOL     OW63916   6.010   4.912   4.536 -0.4475 -0.0781  0.0501
21113SOL    HW163917   5.941   4.914   4.603 -1.3327 -0.7213 -0.8164
21113SOL    HW263918   6.031   5.004   4.521 -0.5074  0.0895  0.9278
21114SOL     OW63919   2.499   5.084   9.753 -0.9634 -0.4402 -0.2001
21114SOL    HW163920   2.421   5.072   9.808 -0.7984  1.7373  0.5879
21114SOL    HW263921   2.487   5.020   9.682 -3.4508 -0.2152 -0.0915
21115SOL     OW63922   1.295   2.219   1.224 -0.0198  0.0137 -0.1076
21115SOL    HW163923   1.264   2.192   1.138  0.2696 -2.0213  0.3640
21115SOL    HW263924   1.386   2.190   1.226  0.5221  1.6697  0.2456
21116SOL     OW63925   3.202   9.246   7.545  0.5405 -0.4214 -0.1417
21116SOL    HW163926   3.278   9.215   7.595  1.0850  0.0987 -0.6240
21116SOL    HW263927   3.229   9.237   7.453 -0.0678 -0.4375 -0.3206
21117SOL     OW63928   7.288   7.544   6.242 -0.1169  0.0177  0.6218
21117SOL    HW163929   7.220   7.581   6.187  0.0156 -0.4149  0.1623
21117SOL    HW263930   7.339   7.619   6.273 -0.6349  0.3191  0.7528
21118SOL     OW63931   6.890   3.274   2.077 -0.2250 -0.5896  0.8936
21118SOL    HW163932   6.843   3.344   2.030  0.4327 -1.4853 -1.2350
21118SOL    HW263933   6.966   3.255   2.022  0.4387 -1.9331  2.2073
21119SOL     OW63934   2.309   7.775   9.694 -0.0965  0.4015  0.0985
21119SOL    HW163935   2.288   7.687   9.665  0.1366 -0.0963  1.3883
21119SOL    HW263936   2.370   7.763   9.767 -3.0213  1.4201  2.9398
21120SOL     OW63937   8.138   6.910   2.303  0.1427 -0.4063 -0.1166
21120SOL    HW163938   8.123   6.975   2.234  1.2446 -0.6484 -0.5958
21120SOL    HW263939   8.065   6.848   2.293 -0.0113 -0.1381 -0.7127
21121SOL     OW63940   7.721   0.359   3.687 -0.3034  0.0532  0.2206
21121SOL    HW163941   7.788   0.414   3.728  1.4774 -0.3997 -1.9267
21121SOL    HW263942   7.639   0.403   3.709  0.7779  1.5977  1.5053
21122SOL     OW63943   3.920   9.768   6.258 -0.2570  0.3403  0.3802
21122SOL    HW163944   3.959   9.709   6.323 -2.5982  0.7224  2.2792
21122SOL    HW263945   3.957   9.853   6.278  1.9036 -0.1157 -1.3307
21123SOL     OW63946   5.892   5.496   1.584  0.0231 -0.3596 -0.0239
21123SOL    HW163947   5.916   5.404   1.591  1.1994 -0.0686 -0.0219
21123SOL    HW263948   5.925   5.536   1.665  0.0338  0.1756 -0.2867
21124SOL     OW63949   8.649   9.822   0.970  0.2237  0.3101  0.1625
21124SOL    HW163950   8.689   9.751   0.919 -2.0084 -0.2679 -0.9280
21124SOL    HW263951   8.561   9.789   0.991 -1.2225  3.0165 -1.1224
21125SOL     OW63952   3.663   3.222   7.144  0.2898  0.8967 -0.1013
21125SOL    HW163953   3.755   3.222   7.117  0.3213  1.2301 -0.0035
21125SOL    HW263954   3.667   3.218   7.240  0.1868  0.0970 -0.1266
21126SOL     OW63955   0.205   4.730   5.084 -0.1935  0.1524  0.2236
21126SOL    HW163956   0.243   4.786   5.016  0.8166  0.9365  1.3835
21126SOL    HW263957   0.126   4.776   5.111 -0.6942 -0.2477 -0.5041
21127SOL     OW63958   6.675   6.389   9.221  0.0270  0.1230 -0.4795
21127SOL    HW163959   6.732   6.313   9.225 -0.1593 -0.0500 -1.0576
21127SOL    HW263960   6.700   6.442   9.297  0.5896 -0.2038 -0.4356
21128SOL     OW63961   2.949   1.611   9.257 -0.3256  0.0747 -0.0034
21128SOL    HW163962   2.967   1.578   9.170  0.6111 -1.0494  0.5880
21128SOL    HW263963   2.920   1.701   9.243 -1.2644 -0.4249 -1.5363
21129SOL     OW63964   3.458   8.055   3.197  0.2647 -0.0461 -0.1114
21129SOL    HW163965   3.380   8.016   3.236  0.2597  1.2228  1.2360
21129SOL    HW263966   3.522   8.058   3.267  0.9246  0.5435 -0.7159
21130SOL     OW63967   6.037   6.751   8.080  0.4108  0.4073  0.6126
21130SOL    HW163968   6.133   6.757   8.077  0.5190 -1.1875 -0.5985
21130SOL    HW263969   6.016   6.738   8.173  1.3205  1.1130  0.9322
21131SOL     OW63970   3.999   4.356   6.297  0.2764 -0.2985 -0.4302
21131SOL    HW163971   4.094   4.347   6.296  0.4714  0.8437 -3.3652
21131SOL    HW263972   3.983   4.438   6.344  0.8451  0.1163 -0.9556
21132SOL     OW63973   6.699   2.520   7.367 -0.2716  0.2828 -0.1604
21132SOL    HW163974   6.655   2.604   7.377 -3.9335 -1.5455  0.6367
21132SOL    HW263975   6.712   2.510   7.273 -4.0789 -0.0931 -0.7936
21133SOL     OW63976   8.832   0.735   1.916  0.4492  0.4312  0.1180
21133SOL    HW163977   8.912   0.693   1.883  0.7232  1.9132 -1.2338
21133SOL    HW263978   8.854   0.828   1.919 -0.3725  0.5969  2.3669
21134SOL     OW63979   5.283   8.247   2.990 -0.1132 -0.0639  0.2629
21134SOL    HW163980   5.300   8.331   3.032  1.0798  0.4555 -1.1585
21134SOL    HW263981   5.223   8.268   2.918  0.1200 -0.4249 -0.0427
21135SOL     OW63982   1.671   0.216   5.291  0.1622  0.2489 -0.1846
21135SOL    HW163983   1.627   0.191   5.210  1.1349  0.4509 -0.7867
21135SOL    HW263984   1.623   0.169   5.360 -0.2494 -0.4613 -0.9439
21136SOL     OW63985   4.572   8.177   3.374  0.0873 -0.4111 -0.1313
21136SOL    HW163986   4.495   8.147   3.422  0.2912 -0.5044  0.1420
21136SOL    HW263987   4.631   8.102   3.373  0.5447 -0.0782  0.4403
21137SOL     OW63988   5.357   2.046   8.793  0.7028 -0.4614 -0.2997
21137SOL    HW163989   5.406   2.061   8.712  0.5040 -0.6060 -0.4494
21137SOL    HW263990   5.327   1.955   8.785  1.9403 -0.9916  0.6095
21138SOL     OW63991   8.383   5.908   3.908  0.5143  0.3987 -0.4729
21138SOL    HW163992   8.394   5.819   3.941 -0.0594  0.2415 -0.6971
21138SOL    HW263993   8.410   5.903   3.816  3.8577  1.2161  0.3132
21139SOL     OW63994   0.267   3.148   3.127  0.1612 -0.4330 -0.2621
21139SOL    HW163995   0.258   3.197   3.046  0.4737 -0.7143 -0.4668
21139SOL    HW263996   0.217   3.068   3.113 -0.4605 -0.1240  0.1218
21140SOL     OW63997   0.379   2.927   8.982 -0.7699  0.8169 -0.5735
21140SOL    HW163998   0.367   2.948   9.074  0.7218  0.8345 -0.3571
21140SOL    HW263999   0.311   2.863   8.962 -0.1685 -0.3587  0.9609
21141SOL     OW64000   2.539   1.543   0.532  0.2830 -0.2070 -0.1427
21141SOL    HW164001   2.625   1.542   0.489 -0.3085 -0.8661 -1.3532
21141SOL    HW264002   2.480   1.582   0.467 -0.3185  0.3771  0.7339
21142SOL     OW64003   0.138   4.566   6.659  0.2352  0.5525  0.0164
21142SOL    HW164004   0.178   4.525   6.736 -0.0763 -0.2760 -0.2600
21142SOL    HW264005   0.205   4.563   6.592  0.1270  0.2710 -0.0786
21143SOL     OW64006   9.251   4.119   1.918  0.1232 -0.4128  0.1489
21143SOL    HW164007   9.268   4.103   1.825 -0.0800 -0.4616  0.1184
21143SOL    HW264008   9.258   4.214   1.927  2.6678 -0.5678  0.6026
21144SOL     OW64009   6.920   6.564   1.463  0.1631 -0.0393  0.4783
21144SOL    HW164010   6.827   6.585   1.476 -0.4495 -2.9045  1.5599
21144SOL    HW264011   6.950   6.533   1.548  2.3024  1.2206  0.2662
21145SOL     OW64012   4.170   2.522   8.153 -0.2619  0.5642 -0.1457
21145SOL    HW164013   4.103   2.529   8.084  0.5242 -2.1771 -1.3432
21145SOL    HW264014   4.122   2.489   8.229 -0.8151  1.8305  0.0801
21146SOL     OW64015   1.396   8.712   2.378  0.2020 -0.8527  0.1283
21146SOL    HW164016   1.344   8.685   2.454  1.4570  0.1163  1.3661
21146SOL    HW264017   1.376   8.646   2.311 -0.8955 -1.7511  1.2934
21147SOL     OW64018   8.080   6.092   6.264  0.4877 -0.1995 -0.0110
21147SOL    HW164019   8.106   6.012   6.218  1.0429 -1.2745  2.0311
21147SOL    HW264020   8.154   6.151   6.253  0.6930 -0.5108 -0.3324
21148SOL     OW64021   3.814   3.370   4.959  0.6069  0.0394  0.9101
21148SOL    HW164022   3.900   3.401   4.986  1.1753 -0.4475 -0.2507
21148SOL    HW264023   3.756   3.445   4.973  1.8029  1.4684 -1.1232
21149SOL     OW64024   1.463   8.549   5.853 -0.0109 -0.0286 -0.4823
21149SOL    HW164025   1.407   8.609   5.903  1.4828 -0.0211  1.2940
21149SOL    HW264026   1.403   8.502   5.796 -1.7969  0.2202  1.0912
21150SOL     OW64027   4.130   7.067   5.093 -0.1194  0.4495  0.2125
21150SOL    HW164028   4.174   7.151   5.108  1.2775 -0.1527 -0.4034
21150SOL    HW264029   4.138   7.052   4.999  2.3360 -1.7502  0.6386
21151SOL     OW64030   2.240   0.748   8.438  0.2722  0.1030 -0.3724
21151SOL    HW164031   2.274   0.732   8.350 -1.4648 -1.4134 -0.8272
21151SOL    HW264032   2.192   0.831   8.430  0.5608  0.2373 -0.7204
21152SOL     OW64033   9.673   5.171   4.082 -0.4438  0.0322 -0.5984
21152SOL    HW164034   9.728   5.242   4.115 -0.0935 -0.8685  0.8392
21152SOL    HW264035   9.731   5.119   4.027 -0.0045 -0.5535  0.3980
21153SOL     OW64036   7.965   8.823   9.311 -0.3537 -0.5009 -0.7556
21153SOL    HW164037   7.979   8.731   9.286 -0.2107 -0.4019 -1.0463
21153SOL    HW264038   7.887   8.821   9.367 -0.5809 -0.7536 -1.0724
21154SOL     OW64039   2.596   7.064   3.991  0.3294  0.0882  0.3238
21154SOL    HW164040   2.512   7.019   3.996 -0.0848  0.4230 -2.2533
21154SOL    HW264041   2.584   7.143   4.043 -1.2815  0.5747 -0.7104
21155SOL     OW64042   3.934   5.825   1.492  0.2403  0.1799 -0.1381
21155SOL    HW164043   3.878   5.759   1.535  0.5061 -0.2450 -0.4376
21155SOL    HW264044   3.997   5.774   1.442 -0.2805  0.6595 -1.3270
21156SOL     OW64045   5.143   7.881   3.676 -0.4901 -0.1918  0.2920
21156SOL    HW164046   5.119   7.954   3.733  1.2729  0.1175  0.6709
21156SOL    HW264047   5.183   7.817   3.735 -1.0147 -1.0007 -0.2091
21157SOL     OW64048   4.524   0.925   2.441 -0.2344 -0.1757 -0.2553
21157SOL    HW164049   4.451   0.949   2.498  1.0333  0.5752  1.1464
21157SOL    HW264050   4.549   1.007   2.397  1.2650  0.1840  1.1437
21158SOL     OW64051   5.604   1.634   3.078 -0.4295 -0.1570 -0.3784
21158SOL    HW164052   5.602   1.627   2.982  0.6972 -0.7353 -0.3731
21158SOL    HW264053   5.512   1.642   3.103 -0.7673 -0.3938 -1.4754
21159SOL     OW64054   4.628   7.857   3.228 -0.0421 -0.4856 -0.3086
21159SOL    HW164055   4.654   7.922   3.293 -1.4499  1.3153 -1.4338
21159SOL    HW264056   4.593   7.785   3.279 -0.6589  0.6684  0.9743
21160SOL     OW64057   8.555   1.656   5.001 -0.2475  0.2395 -0.2592
21160SOL    HW164058   8.555   1.634   5.094 -2.3118  0.2106 -0.2107
21160SOL    HW264059   8.507   1.585   4.959 -1.3154  1.3537 -1.0109
21161SOL     OW64060   0.097   7.948   5.584 -0.1840 -0.4151 -0.7120
21161SOL    HW164061   0.003   7.958   5.600  0.0891  1.5134  0.0645
21161SOL    HW264062   0.108   7.975   5.493 -0.4756 -1.5979 -1.1183
21162SOL     OW64063   9.850   5.612   8.646 -0.0555 -0.0054 -0.8432
21162SOL    HW164064   9.917   5.672   8.613 -0.6626  1.9602  1.2283
21162SOL    HW264065   9.782   5.613   8.578 -0.4688  2.4631 -0.4897
21163SOL     OW64066   4.229   7.187   3.656  0.2927 -0.1074  0.3663
21163SOL    HW164067   4.251   7.252   3.723  0.4399 -0.7020  0.9036
21163SOL    HW264068   4.264   7.224   3.575  0.3719  0.4857  0.6625
21164SOL     OW64069   5.727   9.684   0.953 -0.5098  0.1932 -0.2907
21164SOL    HW164070   5.735   9.650   0.864  0.4318  0.7509 -0.4380
21164SOL    HW264071   5.688   9.613   1.003 -0.0377 -0.5258 -0.9232
21165SOL     OW64072   5.122   0.335   5.219 -0.2175 -0.3528 -0.2479
21165SOL    HW164073   5.052   0.380   5.265  0.5937  0.8422 -0.1305
21165SOL    HW264074   5.140   0.390   5.143  2.1614  0.6942  0.9607
21166SOL     OW64075   4.027   8.215   3.267 -0.0639 -0.1222 -0.4372
21166SOL    HW164076   3.957   8.155   3.240 -0.3490  0.4298 -0.9594
21166SOL    HW264077   4.006   8.237   3.358 -0.6109  0.0813 -0.6083
21167SOL     OW64078   7.569   0.059   4.082 -0.1590 -0.2993 -0.7475
21167SOL    HW164079   7.619   0.107   4.149 -0.0521 -0.0079 -1.0324
21167SOL    HW264080   7.589  -0.033   4.099  0.6478 -0.1802 -0.9836
21168SOL     OW64081   9.611   6.093   4.778 -0.6770  0.0729 -0.0305
21168SOL    HW164082   9.603   6.149   4.855 -0.1331 -1.3781  1.1322
21168SOL    HW264083   9.620   6.004   4.814  3.2464 -0.3507 -1.5443
21169SOL     OW64084   7.009   6.337   0.398  0.2458  0.1215  0.2911
21169SOL    HW164085   6.915   6.350   0.384  0.2757  0.8914  0.7299
21169SOL    HW264086   7.050   6.385   0.326  0.3001 -0.6093 -0.1721
21170SOL     OW64087   7.949   5.533   0.541 -0.3905 -0.3929  0.1695
21170SOL    HW164088   7.966   5.620   0.577  0.4290 -0.8175  0.8435
21170SOL    HW264089   7.910   5.550   0.455  0.5896  0.6384 -0.0937
21171SOL     OW64090   8.081   2.932   7.648 -0.1631  0.8276 -0.2190
21171SOL    HW164091   8.163   2.978   7.630  0.2212  0.0975 -0.3813
21171SOL    HW264092   8.028   2.996   7.696  1.2112  0.7444  1.5438
21172SOL     OW64093   3.888   9.108   3.497  0.3930 -0.1558 -0.1336
21172SOL    HW164094   3.968   9.160   3.485 -0.2586  1.0573  0.6345
21172SOL    HW264095   3.880   9.097   3.592 -0.0469 -0.7908 -0.2364
21173SOL     OW64096   1.468   4.901   8.186  0.1146  0.6599  0.2468
21173SOL    HW164097   1.404   4.891   8.116  2.0075  1.3162 -1.6989
21173SOL    HW264098   1.460   4.993   8.213  0.1002  0.6874  0.1484
21174SOL     OW64099   2.787   0.149   2.166  0.5172  0.1649  0.0324
21174SOL    HW164100   2.726   0.124   2.235 -0.1042  0.2730 -0.4763
21174SOL    HW264101   2.779   0.244   2.159 -0.9797 -0.0409 -1.6148
21175SOL     OW64102   7.533   2.448   9.873  0.0993  0.3462 -0.3556
21175SOL    HW164103   7.533   2.357   9.846  0.1171  0.1840  0.1789
21175SOL    HW264104   7.624   2.477   9.861  0.6830 -0.4163  1.7631
21176SOL     OW64105   1.314   2.572   2.459 -0.2630 -0.2410  0.0639
21176SOL    HW164106   1.358   2.488   2.472 -0.4578 -0.2367  0.8132
21176SOL    HW264107   1.292   2.601   2.548 -1.8071 -0.2557 -0.2845
21177SOL     OW64108   1.336   4.803   4.486  0.5120  0.1200  0.1258
21177SOL    HW164109   1.430   4.794   4.465  1.0286  1.6033  1.6305
21177SOL    HW264110   1.299   4.718   4.463  1.9177 -0.0042 -1.9779
21178SOL     OW64111   2.256   1.667   0.448  0.1517 -0.1497  0.0449
21178SOL    HW164112   2.220   1.753   0.426  1.9019  0.2276 -1.5840
21178SOL    HW264113   2.181   1.607   0.441 -0.5510  0.8477 -1.4865
21179SOL     OW64114   9.060   2.243   9.781  0.6691 -0.5658 -0.2871
21179SOL    HW164115   9.135   2.299   9.764  1.8088 -2.5351 -2.3952
21179SOL    HW264116   9.098   2.158   9.804 -0.9535 -1.0434  0.8112
21180SOL     OW64117   7.397   1.018   4.691 -0.3865  0.2627 -0.0153
21180SOL    HW164118   7.489   0.997   4.702 -0.6385 -0.9097 -0.0411
21180SOL    HW264119   7.351   0.948   4.737 -1.2723  0.5782 -0.3992
21181SOL     OW64120   8.201   1.810   0.936 -0.1606 -0.3196  0.1415
21181SOL    HW164121   8.130   1.821   1.000  1.1431  1.1775  1.4251
21181SOL    HW264122   8.246   1.894   0.937  0.6886 -0.7103 -1.8355
21182SOL     OW64123   5.795   3.462   0.316  0.4992  0.1745 -0.6156
21182SOL    HW164124   5.750   3.545   0.306  1.6336  0.7194 -1.3222
21182SOL    HW264125   5.861   3.461   0.247  0.0405 -1.6320 -1.1011
21183SOL     OW64126   8.618   9.744   5.507 -0.0189  0.3185 -0.3364
21183SOL    HW164127   8.608   9.839   5.501  1.4674  0.5000 -0.1788
21183SOL    HW264128   8.631   9.728   5.601 -1.7150 -0.2212 -0.1545
21184SOL     OW64129   3.209   1.732   8.097 -0.4268  0.3126  0.6509
21184SOL    HW164130   3.202   1.636   8.103  0.1490  0.2257 -0.0316
21184SOL    HW264131   3.220   1.750   8.004 -1.6449  1.1315  0.6332
21185SOL     OW64132   8.219   8.222   8.925 -0.1403  0.3391 -0.4162
21185SOL    HW164133   8.200   8.291   8.861 -1.8257  1.0657  0.7899
21185SOL    HW264134   8.243   8.270   9.004 -2.8119 -0.2962  0.9146
21186SOL     OW64135   3.415   7.916   3.609  0.0264  0.1917 -0.2583
21186SOL    HW164136   3.453   7.969   3.680 -0.2651  0.4113 -0.2611
21186SOL    HW264137   3.472   7.933   3.534  1.9994 -2.1553  0.5577
21187SOL     OW64138   9.228   5.769   7.910  0.1024 -0.2799 -0.3265
21187SOL    HW164139   9.200   5.832   7.976  1.2444  1.9661 -1.8811
21187SOL    HW264140   9.317   5.795   7.887  0.8484 -2.8261 -0.6690
21188SOL     OW64141   3.455   9.502   0.333  0.3321  0.1091  0.2782
21188SOL    HW164142   3.548   9.507   0.353  0.9736 -1.9905 -1.7663
21188SOL    HW264143   3.423   9.592   0.344  1.9139  0.3714  3.7346
21189SOL     OW64144   0.937   8.940   5.371 -1.0154  0.3978 -0.2466
21189SOL    HW164145   1.024   8.977   5.358  0.3270 -3.0919 -2.8488
21189SOL    HW264146   0.946   8.885   5.449 -0.4855 -0.7227 -1.0588
21190SOL     OW64147   7.518   7.736   0.700 -0.1006 -0.3041  0.2929
21190SOL    HW164148   7.484   7.712   0.786 -0.5280 -1.4276 -0.1728
21190SOL    HW264149   7.440   7.743   0.645  0.1684  0.4446 -0.0066
21191SOL     OW64150   2.468   4.678   5.174  0.2497 -0.0873  0.2150
21191SOL    HW164151   2.436   4.587   5.172  1.2627 -0.5098  1.3775
21191SOL    HW264152   2.549   4.675   5.123 -0.1837  0.3889 -0.5195
21192SOL     OW64153   8.975   6.670   7.751  0.4112  0.5019  0.1918
21192SOL    HW164154   9.001   6.757   7.779  1.2615 -0.2445  1.7962
21192SOL    HW264155   9.055   6.630   7.717  0.5663 -0.4525  1.6133
21193SOL     OW64156   2.629   2.173   2.947  0.5224  0.3056 -0.8450
21193SOL    HW164157   2.602   2.241   2.884 -2.7028  0.6171  0.6896
21193SOL    HW264158   2.718   2.199   2.972  0.3243  2.5753 -2.1432
21194SOL     OW64159   5.146   4.726   8.942 -0.2061  0.8564  0.2425
21194SOL    HW164160   5.183   4.736   8.854  1.9336 -0.1193  0.9353
21194SOL    HW264161   5.054   4.748   8.933  0.3330  2.5841 -1.8553
21195SOL     OW64162   9.852   4.759   3.577  0.3625  0.3179  0.3017
21195SOL    HW164163   9.935   4.750   3.623  0.6638  0.5508 -0.1857
21195SOL    HW264164   9.806   4.829   3.623 -0.0799 -0.6147  1.3162
21196SOL     OW64165   2.878   0.926   8.032  0.2066 -0.0577 -0.5854
21196SOL    HW164166   2.835   0.941   8.116  0.8996  1.1132 -0.4121
21196SOL    HW264167   2.830   0.853   7.993 -1.6222  0.8759 -0.1966
21197SOL     OW64168   2.254   6.601   3.823 -0.0708  0.1225 -0.2581
21197SOL    HW164169   2.217   6.515   3.845  0.4229  0.3454  1.6658
21197SOL    HW264170   2.207   6.662   3.881 -0.3119  1.1516 -1.4924
21198SOL     OW64171   3.972   1.322   0.360  0.3032  0.0597  0.0698
21198SOL    HW164172   3.907   1.253   0.346 -0.5272  0.5928  1.0991
21198SOL    HW264173   3.921   1.396   0.392  1.1155  1.3031 -1.3745
21199SOL     OW64174   6.695   2.625   3.590  0.0046 -0.6716 -0.1767
21199SOL    HW164175   6.621   2.597   3.645  0.6965  0.9543  1.6855
21199SOL    HW264176   6.678   2.717   3.573  1.0082 -0.5890 -0.7369
21200SOL     OW64177   4.557   9.003   9.916 -0.6686 -0.4725 -0.3628
21200SOL    HW164178   4.472   9.045   9.929 -1.1241 -1.9674  2.0879
21200SOL    HW264179   4.538   8.920   9.873 -0.7528 -1.6244  1.7579
21201SOL     OW64180   9.536   9.069   6.985 -0.0639 -0.1268  0.1366
21201SOL    HW164181   9.565   9.153   6.950 -0.0703  0.1457  0.7661
21201SOL    HW264182   9.586   9.058   7.066  0.5456 -1.1272 -0.3537
21202SOL     OW64183   6.055   7.380   7.223 -0.5467  0.0714  0.6190
21202SOL    HW164184   5.993   7.389   7.150 -0.7301 -1.7310  0.5025
21202SOL    HW264185   6.025   7.442   7.289 -1.2478  0.6817 -0.2591
21203SOL     OW64186   7.463   6.362   6.223  0.3074  0.0952  0.2332
21203SOL    HW164187   7.547   6.407   6.216  0.5667 -0.5161 -0.8659
21203SOL    HW264188   7.479   6.289   6.283  0.3925  0.3319  0.5014
21204SOL     OW64189   8.313   5.455   9.446 -0.2002 -0.4472  0.1186
21204SOL    HW164190   8.329   5.523   9.379  0.2766 -0.3724  0.3010
21204SOL    HW264191   8.379   5.473   9.514 -0.5685 -0.6323  0.5249
21205SOL     OW64192   5.157   3.945   2.641  1.0422  0.5454 -0.4321
21205SOL    HW164193   5.125   3.981   2.558 -0.5251 -1.9371 -1.0078
21205SOL    HW264194   5.078   3.938   2.695  1.2211 -2.0316 -0.4060
21206SOL     OW64195   6.707   1.075   7.218  0.1560 -0.2077  0.3258
21206SOL    HW164196   6.751   1.010   7.163  0.4452  0.1714  0.1066
21206SOL    HW264197   6.656   1.128   7.157  1.5964  1.1271  0.2118
21207SOL     OW64198   4.611   8.543   9.216 -0.6641 -0.1524 -0.1911
21207SOL    HW164199   4.593   8.520   9.307 -0.0935  0.0293 -0.0345
21207SOL    HW264200   4.606   8.459   9.169  0.6418 -0.5082  0.2603
21208SOL     OW64201   1.734   7.193   8.291 -0.7426 -0.2629 -0.0248
21208SOL    HW164202   1.647   7.212   8.256 -0.5697  1.0374  0.2081
21208SOL    HW264203   1.771   7.128   8.231 -1.9450 -0.9816 -0.0049
21209SOL     OW64204   2.544   8.841   4.320 -0.0462 -0.2640  0.1146
21209SOL    HW164205   2.630   8.879   4.306  0.2429 -0.7303  0.5801
21209SOL    HW264206   2.487   8.915   4.341  0.3437 -0.0125  0.2742
21210SOL     OW64207   9.147   6.344   8.312 -0.0509  0.0188 -0.4194
21210SOL    HW164208   9.154   6.267   8.369 -1.2333  0.4038  0.2670
21210SOL    HW264209   9.164   6.418   8.370  0.9332  0.3140 -1.0477
21211SOL     OW64210   0.542   8.519   4.937 -0.2704  0.1771  0.1861
21211SOL    HW164211   0.569   8.501   4.847 -0.9381 -3.3076  0.5202
21211SOL    HW264212   0.619   8.495   4.990 -0.4975  0.4150  0.6281
21212SOL     OW64213   2.738   0.623   5.045 -0.5313 -0.4348 -0.1373
21212SOL    HW164214   2.815   0.625   5.101 -0.4557  0.9249 -0.2401
21212SOL    HW264215   2.761   0.563   4.974 -0.0223 -0.9346  0.4473
21213SOL     OW64216   1.659   0.828   0.980 -0.0744  0.2372  0.0837
21213SOL    HW164217   1.674   0.778   0.899  0.8480  1.6384 -0.6556
21213SOL    HW264218   1.619   0.765   1.040 -0.5325 -0.9171 -1.3680
21214SOL     OW64219   2.355   3.566   6.911 -0.1593  0.7383  0.4730
21214SOL    HW164220   2.443   3.574   6.872  1.3377 -2.8691  2.5619
21214SOL    HW264221   2.347   3.642   6.968  0.1190  2.8838 -2.1333
21215SOL     OW64222   4.014   6.668   5.208 -0.0313  0.4309  0.3185
21215SOL    HW164223   4.009   6.648   5.301 -0.1057  0.5455  0.3394
21215SOL    HW264224   3.955   6.605   5.166 -1.2786  1.4128  0.5071
21216SOL     OW64225   1.500   8.797   8.091  0.5431  0.4000 -0.1182
21216SOL    HW164226   1.511   8.775   7.998  1.9926 -2.7789  0.6789
21216SOL    HW264227   1.420   8.751   8.117  0.1684  1.2444  0.2595
21217SOL     OW64228   1.264   5.413   9.914  0.9152 -0.6005 -0.1038
21217SOL    HW164229   1.357   5.433   9.900  1.0139 -1.5328 -0.8790
21217SOL    HW264230   1.220   5.452   9.838  0.2345  2.5139  1.7149
21218SOL     OW64231   9.940   3.617   5.239 -0.3392  0.0872  0.0690
21218SOL    HW164232   9.869   3.576   5.190  0.3772 -0.6794 -0.3553
21218SOL    HW264233  10.006   3.548   5.247 -0.3296  0.2605  1.9299
21219SOL     OW64234   2.278   9.257   3.686  0.4796  0.1712  0.0022
21219SOL    HW164235   2.321   9.177   3.658 -0.3292 -0.1733 -0.2675
21219SOL    HW264236   2.275   9.312   3.607 -1.9846 -0.8800 -0.7190
21220SOL     OW64237   1.870   6.194   3.256  0.6385  0.0770  0.0361
21220SOL    HW164238   1.892   6.274   3.208 -2.1842  0.0511 -1.4993
21220SOL    HW264239   1.866   6.126   3.189 -0.8814 -0.5090  0.6709
21221SOL     OW64240   5.739   5.715   3.609  0.3515  0.2708  0.5398
21221SOL    HW164241   5.818   5.722   3.556  1.0397  0.8428  1.6208
21221SOL    HW264242   5.687   5.648   3.564  0.8222  0.8669 -0.9482
21222SOL     OW64243   4.503   4.833   0.718 -0.2353 -0.0353 -0.5656
21222SOL    HW164244   4.456   4.884   0.784 -1.2987 -0.4894 -0.9442
21222SOL    HW264245   4.438   4.772   0.684 -0.5664  2.0497 -4.0878
21223SOL     OW64246   3.835   5.988   2.115  0.3349 -0.0961  0.0668
21223SOL    HW164247   3.869   5.905   2.148 -1.2358 -0.3797  1.1047
21223SOL    HW264248   3.846   5.982   2.020  0.1054 -1.5757  0.1081
21224SOL     OW64249   7.954   4.896   0.896 -0.1412  0.7623  0.2390
21224SOL    HW164250   7.940   4.918   0.989  1.2062 -1.4408  1.0390
21224SOL    HW264251   7.866   4.882   0.862 -0.6261  0.5182  1.5082
21225SOL     OW64252   0.383   6.629   7.978 -0.9598 -0.4419 -0.0640
21225SOL    HW164253   0.400   6.537   7.995  1.2464  0.2062  1.7255
21225SOL    HW264254   0.449   6.655   7.914 -0.3055  0.2949  0.8841
21226SOL     OW64255   1.978   8.976   8.969  0.5747  0.5958  0.1611
21226SOL    HW164256   1.903   8.930   9.005 -0.0279  1.7877  0.4745
21226SOL    HW264257   2.039   8.906   8.944 -0.5004 -0.3762  0.1667
21227SOL     OW64258   8.194   7.199   9.719  0.1026 -0.6749 -0.0820
21227SOL    HW164259   8.157   7.268   9.774 -0.0499 -1.1643  0.4417
21227SOL    HW264260   8.277   7.236   9.689  0.1050 -0.3236  0.3296
21228SOL     OW64261   2.169   9.008   3.461 -0.1538  0.6433 -1.0541
21228SOL    HW164262   2.202   9.085   3.415  0.4880  1.1670  0.2325
21228SOL    HW264263   2.189   9.025   3.553 -0.5243 -0.8128 -0.6858
21229SOL     OW64264   1.098   6.976   2.823  0.1927 -0.5225  0.2284
21229SOL    HW164265   1.019   7.021   2.851  0.9733 -0.2753  2.1846
21229SOL    HW264266   1.093   6.890   2.864  1.4126 -0.1268  1.2629
21230SOL     OW64267   0.320   8.621   0.196 -0.1642  0.0102 -0.1285
21230SOL    HW164268   0.311   8.636   0.290 -0.0378  2.1748 -0.4111
21230SOL    HW264269   0.234   8.590   0.168 -0.7975  1.2042  0.4156
21231SOL     OW64270   6.569   6.577   1.952  0.3017 -0.1570 -0.4439
21231SOL    HW164271   6.476   6.560   1.941  0.1611 -0.3726  0.8586
21231SOL    HW264272   6.599   6.506   2.010  1.5746 -0.8993 -1.9203
21232SOL     OW64273   8.711   8.095   2.649 -0.0032 -0.0996 -0.3067
21232SOL    HW164274   8.732   8.031   2.717 -0.3273 -0.2104 -0.3084
21232SOL    HW264275   8.624   8.127   2.672 -0.1294 -0.1587 -0.6830
21233SOL     OW64276   7.528   8.165   3.113 -0.1073  0.3840 -0.8136
21233SOL    HW164277   7.534   8.083   3.064  0.7309  0.3939 -0.7403
21233SOL    HW264278   7.438   8.194   3.099 -1.0849 -1.5930  0.8339
21234SOL     OW64279   8.539   9.083   3.097  0.1607  0.2571 -0.0168
21234SOL    HW164280   8.536   9.015   3.164  0.6862  1.3666  1.1624
21234SOL    HW264281   8.624   9.071   3.055 -0.9408 -1.6915 -1.8998
21235SOL     OW64282   6.307   0.775   0.304  0.3536  0.2363  0.3624
21235SOL    HW164283   6.391   0.769   0.260 -1.0082  0.2928 -2.4567
21235SOL    HW264284   6.288   0.869   0.309 -0.8830  0.1873 -1.9762
21236SOL     OW64285   4.430   5.425   2.226 -0.2276 -0.0802 -0.0280
21236SOL    HW164286   4.452   5.357   2.289 -1.6439  1.1776  1.9621
21236SOL    HW264287   4.334   5.429   2.228 -0.2021  1.5426 -0.5216
21237SOL     OW64288   0.009   9.564   8.900 -0.0066  0.0181  0.1716
21237SOL    HW164289   0.022   9.492   8.962 -2.6677  0.0424  0.8972
21237SOL    HW264290   0.066   9.634   8.931  1.6497 -1.2956  0.2202
21238SOL     OW64291   2.005   5.060   7.550 -0.1123  0.2888  0.2418
21238SOL    HW164292   2.082   5.042   7.604 -0.0749 -1.9242 -0.4380
21238SOL    HW264293   1.954   5.124   7.601 -0.5395 -2.3019  3.4123
21239SOL     OW64294   0.643   2.284   7.836 -0.1802 -0.7695 -0.9500
21239SOL    HW164295   0.601   2.313   7.755  0.4669 -1.4634 -1.5484
21239SOL    HW264296   0.655   2.190   7.825 -1.1573 -1.0915  0.4670
21240SOL     OW64297   7.601   8.563   7.741 -0.2216 -1.2957 -0.6801
21240SOL    HW164298   7.614   8.626   7.813  3.0984 -1.2543 -1.1760
21240SOL    HW264299   7.594   8.478   7.784  1.3189 -1.2211 -0.2481
21241SOL     OW64300   8.045   3.435   0.209  0.0841  0.0630  0.3733
21241SOL    HW164301   8.033   3.381   0.287 -0.9248  0.1302  0.2704
21241SOL    HW264302   8.030   3.525   0.239  0.1749  0.1347  0.2063
21242SOL     OW64303   3.036   5.772   8.610 -0.3771  0.3901 -0.0169
21242SOL    HW164304   2.958   5.778   8.555 -0.2287  1.0004 -0.1697
21242SOL    HW264305   3.107   5.806   8.555 -0.6792  3.8242  1.4514
21243SOL     OW64306   5.600   5.623   1.709  0.0338  0.2724 -0.3228
21243SOL    HW164307   5.570   5.600   1.797 -0.3108  2.5920  0.2261
21243SOL    HW264308   5.587   5.543   1.658 -1.6982 -0.5280  1.2475
21244SOL     OW64309   2.729   4.830   1.188  0.9688  0.7090  0.1578
21244SOL    HW164310   2.773   4.747   1.204  1.5129  1.3865  2.7440
21244SOL    HW264311   2.656   4.830   1.250  2.2172  2.9524  1.7947
21245SOL     OW64312   0.731   3.344   5.692 -0.0161 -0.2800  0.1861
21245SOL    HW164313   0.637   3.343   5.674 -0.4172  1.9201  1.7484
21245SOL    HW264314   0.763   3.424   5.651  0.8701 -0.1944  1.0032
21246SOL     OW64315   0.110   9.954   0.241 -0.3010 -0.0601 -0.2847
21246SOL    HW164316   0.043   9.943   0.309  1.8884 -0.3017  1.9666
21246SOL    HW264317   0.162  10.028   0.270  1.2299 -0.7050 -1.2653
21247SOL     OW64318   9.488   2.054   3.439 -0.3181  0.0942  0.3118
21247SOL    HW164319   9.540   2.057   3.359  0.1953  0.3397  0.6506
21247SOL    HW264320   9.398   2.042   3.409 -0.1129  0.0589 -0.2949
21248SOL     OW64321   1.122   9.604   3.979  0.2807 -0.7475 -0.2255
21248SOL    HW164322   1.059   9.616   4.050  0.9778 -0.6134  0.3909
21248SOL    HW264323   1.207   9.616   4.021  0.6576  1.7934 -1.5265
21249SOL     OW64324   7.658   1.231   6.260  0.2808 -0.2915 -0.0736
21249SOL    HW164325   7.583   1.221   6.202  0.0311  0.3601  0.1250
21249SOL    HW264326   7.682   1.142   6.285  1.1065 -0.6653 -2.0653
21250SOL     OW64327   7.099   8.957   7.430 -0.3462 -0.0308  0.3414
21250SOL    HW164328   7.070   9.035   7.382 -0.1349 -0.4736 -0.5244
21250SOL    HW264329   7.071   8.973   7.520 -0.7988  0.7971  0.0691
21251SOL     OW64330   9.696   4.973   4.656  0.1055  0.2546  0.4654
21251SOL    HW164331   9.680   5.053   4.605  1.7063  1.4031  1.6508
21251SOL    HW264332   9.724   4.909   4.591  0.7954  1.2865 -0.2999
21252SOL     OW64333   8.666   5.074   3.853 -0.2035 -0.1792  0.1685
21252SOL    HW164334   8.630   5.083   3.941  1.0834 -0.4439  0.7444
21252SOL    HW264335   8.653   4.982   3.830 -3.9126  0.5695 -1.4954
21253SOL     OW64336   7.477   8.002   5.156 -0.5226 -0.0030 -0.2413
21253SOL    HW164337   7.462   7.974   5.247  0.0297  0.4711  0.0043
21253SOL    HW264338   7.490   8.097   5.163 -0.7289  0.0708 -0.8514
21254SOL     OW64339   5.882   8.798   9.116 -0.1501  0.4517 -0.1209
21254SOL    HW164340   5.931   8.777   9.037 -0.4476  0.5271 -0.3265
21254SOL    HW264341   5.949   8.805   9.184  0.3854  2.7250 -0.8000
21255SOL     OW64342   7.752   1.321   6.996  0.1398  0.0170  0.4340
21255SOL    HW164343   7.686   1.266   7.038  0.5273  0.7512  2.0917
21255SOL    HW264344   7.704   1.400   6.972  0.1349  0.0211  0.4575
21256SOL     OW64345   6.187   2.361   6.006  0.3074  0.3851 -0.0719
21256SOL    HW164346   6.276   2.380   5.979  0.1332 -0.2764 -1.1988
21256SOL    HW264347   6.196   2.314   6.089  0.9839  0.6823  0.0222
21257SOL     OW64348   3.126   9.326   3.556  0.3772 -0.0842 -0.3768
21257SOL    HW164349   3.065   9.379   3.607  1.2040  0.2905  0.2649
21257SOL    HW264350   3.076   9.297   3.481 -0.2491  1.2236 -0.5030
21258SOL     OW64351   2.289   0.867   5.413 -0.0491  0.0607  0.2565
21258SOL    HW164352   2.351   0.859   5.485  0.8820  0.2075 -0.5071
21258SOL    HW264353   2.344   0.879   5.335 -1.0621  1.6835 -0.2520
21259SOL     OW64354   6.644   1.147   8.615  0.2829  0.1683  0.3124
21259SOL    HW164355   6.559   1.183   8.593  0.0916 -0.2235  0.3929
21259SOL    HW264356   6.629   1.098   8.697  0.8749  1.2008  1.0610
21260SOL     OW64357   1.049   8.108   1.072  0.7359 -0.9151  0.1965
21260SOL    HW164358   1.084   8.191   1.104 -0.9014  0.0894 -0.4696
21260SOL    HW264359   1.042   8.053   1.149  0.1929  0.2083  0.9821
21261SOL     OW64360   7.964   4.814   4.359 -0.0478 -0.1405  0.1226
21261SOL    HW164361   7.935   4.763   4.284 -1.0386 -0.8907  0.9862
21261SOL    HW264362   8.004   4.892   4.321 -1.8810  0.2343 -1.1574
21262SOL     OW64363   6.230   0.550   1.181 -0.1336  0.5905 -0.1011
21262SOL    HW164364   6.249   0.632   1.135  0.6818 -0.0114 -0.8885
21262SOL    HW264365   6.272   0.483   1.127 -1.4163 -0.4269  0.1262
21263SOL     OW64366   4.889   4.867   3.225 -0.4715  0.1872 -0.6003
21263SOL    HW164367   4.808   4.826   3.255  1.1477 -2.6791  0.1541
21263SOL    HW264368   4.933   4.895   3.305  0.6677 -1.1271 -0.7309
21264SOL     OW64369   5.036   4.346   2.475  0.0032 -0.0224 -0.1320
21264SOL    HW164370   5.106   4.363   2.412 -1.2767 -1.8544 -2.1543
21264SOL    HW264371   4.956   4.373   2.431 -0.8008  0.3097  1.4441
21265SOL     OW64372   4.877   5.053   2.591  0.0668 -0.0655 -0.2936
21265SOL    HW164373   4.859   5.146   2.607  3.0347  0.4263  0.8614
21265SOL    HW264374   4.839   5.008   2.667 -0.4773  0.3085 -0.3380
21266SOL     OW64375   6.126   4.958   0.099  0.4397  0.0364  0.1249
21266SOL    HW164376   6.042   4.944   0.141  0.6509 -2.5124 -0.1432
21266SOL    HW264377   6.175   5.014   0.160 -0.4179 -0.8410  1.6600
21267SOL     OW64378   0.891   1.230   7.224 -0.2781  0.2480 -0.8690
21267SOL    HW164379   0.834   1.238   7.301 -1.6453  0.4980 -1.8636
21267SOL    HW264380   0.979   1.244   7.258 -0.8621  0.5501  0.6179
21268SOL     OW64381   7.757   1.467   2.799  0.0753 -0.0447 -0.0084
21268SOL    HW164382   7.733   1.404   2.731 -0.6702 -1.4274  1.4686
21268SOL    HW264383   7.779   1.547   2.751 -2.3772 -0.3298 -1.7940
21269SOL     OW64384   7.738   9.926   0.613  0.0401  0.3423  0.2587
21269SOL    HW164385   7.669   9.896   0.555 -0.7281 -1.4955  2.0303
21269SOL    HW264386   7.693   9.974   0.682  1.0141  3.3130 -0.9504
21270SOL     OW64387   3.824   1.931   4.189 -0.0692  0.2544 -0.1340
21270SOL    HW164388   3.897   1.991   4.205 -0.3674  0.5490  0.1494
21270SOL    HW264389   3.775   1.973   4.118 -0.8091  0.8410  0.7089
21271SOL     OW64390   2.810   1.399   6.738  0.1912 -0.2087 -0.4976
21271SOL    HW164391   2.715   1.396   6.748  0.3436 -0.3382  1.2293
21271SOL    HW264392   2.838   1.465   6.802  1.1595  0.9848 -2.0732
21272SOL     OW64393   8.741   7.363   2.797  0.4677  0.0400  0.4456
21272SOL    HW164394   8.806   7.318   2.743  0.0898  1.4505 -1.2860
21272SOL    HW264395   8.657   7.343   2.756  0.3088  2.4414 -0.5834
21273SOL     OW64396   3.919   3.977   2.741 -0.0303  0.2078 -0.0145
21273SOL    HW164397   3.825   3.956   2.744 -0.0995  0.5331  0.0802
21273SOL    HW264398   3.959   3.900   2.700 -0.1647 -0.5571  1.2349
21274SOL     OW64399   0.304   8.514   1.370 -0.0072 -0.2664  0.7120
21274SOL    HW164400   0.217   8.548   1.345  0.1188  1.5771  2.5073
21274SOL    HW264401   0.285   8.445   1.433 -0.1911 -0.0479  0.9008
21275SOL     OW64402   2.146   1.696   5.600 -0.3102  0.0132  0.4048
21275SOL    HW164403   2.110   1.760   5.538 -0.3503 -0.1420  0.2691
21275SOL    HW264404   2.240   1.704   5.590 -0.2774  0.8686  1.2092
21276SOL     OW64405   5.066   7.201   6.274 -0.8382 -0.4110 -0.0912
21276SOL    HW164406   5.118   7.195   6.194 -1.2824  1.5184 -0.5639
21276SOL    HW264407   4.975   7.200   6.244 -1.0088  1.3287  0.2580
21277SOL     OW64408   7.271   9.692   2.864  0.3210  0.3263 -0.3517
21277SOL    HW164409   7.267   9.606   2.905  1.2196  0.2853 -0.3233
21277SOL    HW264410   7.205   9.744   2.909  0.0260 -0.2482 -0.1254
21278SOL     OW64411   7.585   9.398   8.691 -0.2183  0.1861 -0.1706
21278SOL    HW164412   7.539   9.368   8.769 -0.4649 -0.0693 -0.4113
21278SOL    HW264413   7.536   9.475   8.662 -0.8835 -0.4551 -0.7889
21279SOL     OW64414   1.829   1.756   6.151  0.2110 -0.2642 -0.0391
21279SOL    HW164415   1.775   1.810   6.093 -1.0498  1.5658  2.6280
21279SOL    HW264416   1.907   1.809   6.168 -0.1489 -0.0740  1.1069
21280SOL     OW64417   7.007   4.801   1.426 -0.2339  0.0150  0.3992
21280SOL    HW164418   6.968   4.779   1.511 -0.2983 -0.1532  0.3269
21280SOL    HW264419   7.096   4.767   1.432 -0.5807 -1.0064 -0.0109
21281SOL     OW64420   7.943   2.104   0.865  0.0390  1.2295 -0.1662
21281SOL    HW164421   7.967   2.175   0.924  1.0059  0.4471  0.4159
21281SOL    HW264422   7.919   2.032   0.923 -0.4819  0.9270 -0.7419
21282SOL     OW64423   5.084   9.777   8.990 -0.1770 -0.0383 -0.0338
21282SOL    HW164424   5.111   9.864   9.021  0.1291 -0.1761  0.0902
21282SOL    HW264425   5.106   9.777   8.897  1.7620 -0.7220  0.3890
21283SOL     OW64426   3.941   4.546   5.933 -0.2280  0.1802 -0.1237
21283SOL    HW164427   3.932   4.518   5.842 -1.4968  0.4100 -0.0926
21283SOL    HW264428   4.019   4.501   5.964  0.3294  0.2340 -1.3716
21284SOL     OW64429   9.767   0.370   5.978  0.6124 -0.2646  0.1638
21284SOL    HW164430   9.813   0.438   6.027  0.1891  1.1564 -1.3243
21284SOL    HW264431   9.674   0.386   5.994  0.2025  2.3783 -3.5124
21285SOL     OW64432   0.977   9.834   1.460  0.0735  0.1809 -0.0918
21285SOL    HW164433   0.966   9.831   1.365 -0.1578  1.7992 -0.1450
21285SOL    HW264434   1.054   9.780   1.477  0.3540  0.1984 -1.2292
21286SOL     OW64435   7.618   2.181   5.248 -0.5391  0.0758 -0.3540
21286SOL    HW164436   7.701   2.141   5.273  0.1382  1.2669 -0.6509
21286SOL    HW264437   7.642   2.260   5.201 -1.8455 -0.0208 -1.2266
21287SOL     OW64438   2.422   5.247   5.047  0.0421 -0.3031 -0.6514
21287SOL    HW164439   2.372   5.328   5.058 -2.5198 -1.8367 -0.2052
21287SOL    HW264440   2.498   5.259   5.103 -1.0525  1.2162  0.6335
21288SOL     OW64441   3.722   9.112   2.983 -0.4506 -0.0881  0.5495
21288SOL    HW164442   3.628   9.124   2.996 -0.4915  1.1093 -0.6383
21288SOL    HW264443   3.762   9.151   3.061 -0.9353 -0.6838  1.0997
21289SOL     OW64444   0.956   9.299   0.767 -0.3901  0.3738 -0.5601
21289SOL    HW164445   0.947   9.393   0.781 -1.3247  0.3961 -1.2446
21289SOL    HW264446   0.936   9.286   0.674 -2.2553 -0.7251 -0.0574
21290SOL     OW64447   2.840   8.102   7.553  0.1664 -0.1703 -0.2074
21290SOL    HW164448   2.877   8.159   7.621 -0.6846  0.5768 -0.3467
21290SOL    HW264449   2.815   8.022   7.600 -0.2911  0.2842  0.3405
21291SOL     OW64450   0.590   7.180   9.821 -0.2953  0.0288 -0.2835
21291SOL    HW164451   0.652   7.241   9.781 -0.1825 -1.2189 -2.1185
21291SOL    HW264452   0.506   7.226   9.817  0.1018  0.8066  0.0981
21292SOL     OW64453   3.102   1.745   2.888 -0.3270  0.1775 -0.1137
21292SOL    HW164454   3.169   1.813   2.882  0.4021 -0.4785  0.2905
21292SOL    HW264455   3.028   1.788   2.931  0.1798  0.6853  0.2770
21293SOL     OW64456   6.096   6.405   0.536  0.0480 -0.0696  0.4119
21293SOL    HW164457   6.078   6.483   0.484 -0.9154  0.0208  0.8624
21293SOL    HW264458   6.032   6.408   0.607  0.4720 -0.8921  0.8401
21294SOL     OW64459   2.416   4.686   6.927 -0.1502 -0.0083 -0.0558
21294SOL    HW164460   2.461   4.700   6.843  0.8550  1.2604  0.6533
21294SOL    HW264461   2.473   4.625   6.974 -1.5314 -2.0118 -0.8701
21295SOL     OW64462   8.892   9.936   6.169  0.1122  0.0740 -0.2891
21295SOL    HW164463   8.828   9.951   6.100  0.2680  0.9145 -0.2577
21295SOL    HW264464   8.977   9.946   6.127  0.2433 -1.1483 -0.3554
21296SOL     OW64465   4.608   1.055   4.007 -0.3306 -0.1371  0.0402
21296SOL    HW164466   4.679   1.016   3.955 -0.8393 -0.9258 -0.0702
21296SOL    HW264467   4.552   0.981   4.031 -1.1269  0.4771  0.1112
21297SOL     OW64468   6.499   2.782   4.771  0.7518  0.1995  0.5200
21297SOL    HW164469   6.495   2.864   4.819 -1.1769  0.3749  0.1435
21297SOL    HW264470   6.422   2.733   4.800  0.5732 -0.4772 -0.9708
21298SOL     OW64471   8.839   7.516   4.899  0.6959  0.6762  0.3812
21298SOL    HW164472   8.863   7.552   4.813 -2.9749 -1.1266 -1.6522
21298SOL    HW264473   8.848   7.421   4.887 -0.5363  0.3621  1.7522
21299SOL     OW64474   2.024   4.070   1.593  0.7913  0.0987  0.1027
21299SOL    HW164475   1.953   4.110   1.643  2.7393  1.4663  1.9575
21299SOL    HW264476   1.992   4.070   1.503 -2.4074 -1.4197  1.0915
21300SOL     OW64477   9.442   4.134   7.220 -0.4208 -0.2526 -0.1450
21300SOL    HW164478   9.360   4.175   7.190  0.0482 -0.3388 -1.6004
21300SOL    HW264479   9.455   4.060   7.161 -0.0907 -1.1806  1.0633
21301SOL     OW64480   5.921   5.880   0.238 -0.1554 -0.0417  0.0028
21301SOL    HW164481   5.841   5.931   0.232 -0.0014  0.2500  0.4424
21301SOL    HW264482   5.897   5.802   0.288 -0.0549  0.2690  0.5423
21302SOL     OW64483   3.146   5.473   4.055  0.0696  0.3672 -1.1048
21302SOL    HW164484   3.197   5.459   3.975 -0.0917 -1.6858 -0.8856
21302SOL    HW264485   3.064   5.511   4.025 -0.0771 -0.5967 -1.9671
21303SOL     OW64486   5.316   4.485   3.277 -0.0061 -0.1825  0.3497
21303SOL    HW164487   5.267   4.480   3.195 -1.6509 -0.8451  1.3240
21303SOL    HW264488   5.315   4.578   3.300  1.6923  0.2282 -1.0452
21304SOL     OW64489   6.481   4.540   3.070  0.2368  0.0705 -0.1275
21304SOL    HW164490   6.499   4.545   3.164  0.6156  0.5662 -0.2278
21304SOL    HW264491   6.398   4.587   3.058  0.8803  1.1863 -0.2379
21305SOL     OW64492   0.674   9.651   3.112  0.6180  0.6499 -0.2462
21305SOL    HW164493   0.705   9.613   3.030 -0.4969 -2.2415  0.5371
21305SOL    HW264494   0.693   9.584   3.178 -1.3114  1.5252  1.2925
21306SOL     OW64495   8.713   3.813   1.677 -0.1736 -0.5780  0.1889
21306SOL    HW164496   8.777   3.778   1.616  1.1395  0.2411  1.0348
21306SOL    HW264497   8.764   3.872   1.734 -1.2272 -1.6331  2.3536
21307SOL     OW64498   7.790   0.832   0.950  0.0631  0.7459 -0.0440
21307SOL    HW164499   7.881   0.809   0.972 -0.2810  0.4705  1.2076
21307SOL    HW264500   7.784   0.820   0.856  1.2406  0.4490 -0.0984
21308SOL     OW64501   2.330   0.251   5.497 -0.0993 -0.2143 -0.3124
21308SOL    HW164502   2.400   0.251   5.563 -0.3061 -0.9115 -0.0799
21308SOL    HW264503   2.284   0.333   5.511  1.7188  1.1173 -1.6078
21309SOL     OW64504   9.724   3.217   1.545  0.1383  0.0480 -0.4449
21309SOL    HW164505   9.790   3.165   1.591  0.8082  1.2015 -0.0706
21309SOL    HW264506   9.772   3.259   1.474  0.1023  1.8645  0.5528
21310SOL     OW64507   1.381   3.029   4.988 -0.3140  0.1675  0.1614
21310SOL    HW164508   1.383   2.953   4.929  1.3180  1.1448 -1.1094
21310SOL    HW264509   1.386   3.104   4.930 -1.1223  1.2611  1.4554
21311SOL     OW64510   8.699   4.568   8.014 -0.4234 -0.1708  0.3645
21311SOL    HW164511   8.642   4.589   7.940  0.1989  0.4601  0.0488
21311SOL    HW264512   8.785   4.552   7.973  0.0939  0.8736  1.0071
21312SOL     OW64513   9.167   8.450   7.806 -0.0461 -0.7689 -0.2668
21312SOL    HW164514   9.138   8.360   7.820  1.9038 -1.2972  0.7737
21312SOL    HW264515   9.262   8.447   7.820  0.2424  1.2311 -1.3761
21313SOL     OW64516   4.549   8.908   6.390 -0.0838  0.1078  0.6803
21313SOL    HW164517   4.594   8.961   6.323 -0.5125 -0.1949  0.1416
21313SOL    HW264518   4.486   8.967   6.430 -0.5423  0.0296  0.0981
21314SOL     OW64519   7.787   1.926   7.579 -0.1763 -0.6011 -0.2000
21314SOL    HW164520   7.845   1.968   7.642  0.5992 -0.4854 -0.9671
21314SOL    HW264521   7.732   1.997   7.546 -0.4497 -0.6257  0.2054
21315SOL     OW64522   3.061   2.159   5.300 -0.1557 -0.4515  0.4236
21315SOL    HW164523   3.132   2.147   5.362  1.1507  0.5205 -0.8147
21315SOL    HW264524   3.055   2.254   5.289 -1.9914 -0.4813  0.8668
21316SOL     OW64525   6.715   4.227   8.706 -0.0139 -0.1652 -0.2374
21316SOL    HW164526   6.650   4.294   8.687  0.8685  1.1641  1.2297
21316SOL    HW264527   6.783   4.239   8.640 -1.3812 -1.8484 -2.0571
21317SOL     OW64528   1.093   0.875   2.040 -0.1150  0.2586  0.5869
21317SOL    HW164529   1.151   0.842   1.972  0.6264  3.7069 -0.6482
21317SOL    HW264530   1.099   0.810   2.110 -0.2348 -3.0032 -2.1793
21318SOL     OW64531   0.002   7.247   3.177  0.4080 -0.2141  0.1707
21318SOL    HW164532   0.093   7.224   3.192  0.9894  1.2651 -0.9272
21318SOL    HW264533  -0.019   7.210   3.091  0.0164 -0.4025  0.3417
21319SOL     OW64534   0.392   0.763   0.447  0.0568 -0.0275  0.3156
21319SOL    HW164535   0.487   0.759   0.448  0.0440 -0.9291 -0.3096
21319SOL    HW264536   0.371   0.856   0.444  0.8966  0.2041  1.3840
21320SOL     OW64537   0.741   1.935   3.032  0.6610 -0.6510 -0.0719
21320SOL    HW164538   0.734   1.908   2.940 -0.7096 -1.1200  0.1498
21320SOL    HW264539   0.742   1.852   3.080  1.1752 -0.3981  0.3621
21321SOL     OW64540   3.826   8.347   7.240  0.5498 -0.0500  0.1456
21321SOL    HW164541   3.845   8.293   7.317 -1.2601  0.1839  0.8048
21321SOL    HW264542   3.801   8.283   7.172  1.1156 -0.1951  0.0714
21322SOL     OW64543   0.658   2.296   1.473 -0.4096  0.1359 -0.1585
21322SOL    HW164544   0.649   2.389   1.453 -0.0187  0.0720 -0.6434
21322SOL    HW264545   0.742   2.289   1.519 -0.0970 -0.0756 -0.7568
21323SOL     OW64546   7.919   4.404   0.267  0.7577  0.1036  0.6948
21323SOL    HW164547   7.872   4.322   0.281 -1.1868  1.1627  0.6501
21323SOL    HW264548   8.010   4.384   0.292  0.5277 -2.2618 -0.1119
21324SOL     OW64549   3.338   6.163   5.217 -0.0448  0.4232 -0.1755
21324SOL    HW164550   3.292   6.092   5.260  1.1995 -0.3699 -0.0964
21324SOL    HW264551   3.426   6.162   5.256  0.6132  0.7248 -1.5719
21325SOL     OW64552   9.221   8.566   5.545  0.2447 -0.0847 -0.3735
21325SOL    HW164553   9.184   8.590   5.630  0.1120  3.0907 -1.2023
21325SOL    HW264554   9.186   8.632   5.484  2.1392 -0.8737 -2.4631
21326SOL     OW64555   2.116   2.515   4.876 -0.1218 -0.4944  0.0950
21326SOL    HW164556   2.031   2.558   4.880 -0.2258 -0.6384 -0.5473
21326SOL    HW264557   2.105   2.436   4.930  0.0818  0.2733  1.3139
21327SOL     OW64558   7.547   5.258   9.131  0.4615  0.2995 -0.1250
21327SOL    HW164559   7.554   5.334   9.073  0.4602 -0.2778 -0.8917
21327SOL    HW264560   7.619   5.201   9.105  1.3060  0.6234  1.3601
21328SOL     OW64561   3.736   6.097   0.779  0.2763  0.8164  0.7466
21328SOL    HW164562   3.710   6.154   0.706  0.0383  0.2724  0.4033
21328SOL    HW264563   3.820   6.132   0.808  0.2609  1.1811  0.3637
21329SOL     OW64564   1.390   7.532   0.785 -0.8481 -0.6796  0.0129
21329SOL    HW164565   1.379   7.444   0.821  1.1126  0.0022  2.5774
21329SOL    HW264566   1.319   7.583   0.824  0.0334 -0.4135  1.3282
21330SOL     OW64567   2.388   5.153   3.220  0.4696  0.1180 -0.6063
21330SOL    HW164568   2.441   5.217   3.268  2.0330 -1.8053  0.3883
21330SOL    HW264569   2.446   5.123   3.150  0.7988 -2.0639  0.5261
21331SOL     OW64570   7.654   8.614   5.768 -0.3235 -0.2291  0.1957
21331SOL    HW164571   7.748   8.618   5.787 -0.5447 -0.6885  1.4566
21331SOL    HW264572   7.644   8.662   5.686  1.2305 -1.4658 -0.7798
21332SOL     OW64573   8.750   2.274   2.889  0.3537 -0.5781  0.2745
21332SOL    HW164574   8.673   2.313   2.849 -0.1564 -2.6695 -0.9115
21332SOL    HW264575   8.764   2.326   2.969 -1.7305  0.3984  0.0819
21333SOL     OW64576   5.719   5.414   0.114  0.2658 -0.1654 -0.4581
21333SOL    HW164577   5.651   5.441   0.176 -0.4986 -1.6509 -0.5848
21333SOL    HW264578   5.673   5.405   0.030  1.0973  0.9261 -1.0633
21334SOL     OW64579   9.043   2.203   0.217  0.3660 -0.0768  0.0737
21334SOL    HW164580   9.031   2.290   0.179  0.9107 -0.1536 -0.2912
21334SOL    HW264581   8.988   2.146   0.163 -0.5883  0.1361  0.7752
21335SOL     OW64582   5.196   9.492   9.887 -0.3958  0.1949 -0.1537
21335SOL    HW164583   5.246   9.422   9.929  0.8604  1.2355  0.1396
21335SOL    HW264584   5.105   9.469   9.904  0.0146  0.1854  2.5990
21336SOL     OW64585   1.101   9.038   1.535  0.5233 -0.3647 -0.2989
21336SOL    HW164586   1.132   9.127   1.553  0.5939 -0.2269 -1.0924
21336SOL    HW264587   1.180   8.989   1.512  0.4937 -0.6528  0.2038
21337SOL     OW64588   3.859   1.870   8.856  0.0881  0.2703 -0.3121
21337SOL    HW164589   3.893   1.912   8.777  2.2719  0.3729  0.5950
21337SOL    HW264590   3.928   1.883   8.921 -0.6836 -1.6824  0.9996
21338SOL     OW64591   9.559   6.878   9.510 -0.1659 -0.2441  0.3040
21338SOL    HW164592   9.564   6.806   9.447 -1.2454  0.1328 -0.2470
21338SOL    HW264593   9.508   6.843   9.583 -0.5573 -0.0915  0.1061
21339SOL     OW64594   7.207   9.493   8.873  0.1066 -0.7805 -0.2899
21339SOL    HW164595   7.113   9.502   8.888  0.1721 -0.5571 -0.0021
21339SOL    HW264596   7.214   9.454   8.786 -0.2575 -1.1581 -0.1515
21340SOL     OW64597   1.167   0.402   6.836 -0.6277  0.1075  0.1200
21340SOL    HW164598   1.147   0.435   6.749 -1.5925 -0.1349  0.2369
21340SOL    HW264599   1.185   0.480   6.888 -1.0366  0.3271 -0.0604
21341SOL     OW64600  -0.004   4.994   6.132 -0.0619  0.2201 -0.6766
21341SOL    HW164601   0.046   5.006   6.052  2.6004 -1.4331  0.5997
21341SOL    HW264602  -0.034   4.903   6.128 -0.6190  0.3672 -0.1396
21342SOL     OW64603   9.161   3.592   4.959  0.0647 -0.2832  0.3021
21342SOL    HW164604   9.246   3.627   4.934  0.5967 -1.6556  0.1399
21342SOL    HW264605   9.120   3.568   4.876  0.6554 -2.1538  0.5062
21343SOL     OW64606   3.268   5.682   9.485  0.2178 -0.3146 -0.1405
21343SOL    HW164607   3.297   5.705   9.397  0.4355 -0.2689 -0.0582
21343SOL    HW264608   3.348   5.655   9.530  0.4604  1.6524  0.6868
21344SOL     OW64609   7.445   8.931   0.705 -0.4294 -0.1302 -0.6606
21344SOL    HW164610   7.464   8.840   0.682  0.7332 -0.7072  2.1515
21344SOL    HW264611   7.529   8.976   0.697  0.1419 -0.4392  2.3324
21345SOL     OW64612   4.479   9.950   5.690  0.2119  0.7742  0.2319
21345SOL    HW164613   4.453   9.946   5.598 -1.1696  2.6870  0.4810
21345SOL    HW264614   4.417   9.893   5.736  2.4783 -2.3386 -0.1918
21346SOL     OW64615   2.566   1.715   4.259 -0.0560  0.3596 -0.0530
21346SOL    HW164616   2.521   1.747   4.181 -0.2397  0.7849  0.2242
21346SOL    HW264617   2.581   1.793   4.311 -0.2514  0.0327  0.5008
21347SOL     OW64618   0.515   0.689   9.711  0.1254 -0.0390  0.1775
21347SOL    HW164619   0.592   0.654   9.667 -0.4308  1.1599 -1.8862
21347SOL    HW264620   0.445   0.626   9.692 -0.1782  0.6160 -0.9423
21348SOL     OW64621   3.693   4.769   5.504  0.4917  0.0007 -0.1894
21348SOL    HW164622   3.788   4.777   5.506  0.4608  0.4196  1.3524
21348SOL    HW264623   3.665   4.803   5.589 -1.1191  0.8807 -1.0276
21349SOL     OW64624   9.236   7.561   3.719  0.3733  0.0272  0.2857
21349SOL    HW164625   9.218   7.632   3.781 -0.2972 -0.6732  0.9067
21349SOL    HW264626   9.318   7.522   3.750  0.5788  0.3261  0.1247
21350SOL     OW64627   9.115   0.703   9.396  0.2201 -0.4728 -0.5392
21350SOL    HW164628   9.143   0.789   9.427 -1.4105  1.0668 -2.9446
21350SOL    HW264629   9.095   0.654   9.476  2.0564  1.0347  0.9381
21351SOL     OW64630   6.481   6.664   6.996 -0.9083  0.6175 -0.0043
21351SOL    HW164631   6.404   6.696   6.949 -1.8263 -1.5733 -0.1144
21351SOL    HW264632   6.498   6.730   7.063 -0.7301  2.8775 -2.1364
21352SOL     OW64633   5.661   7.608   7.180 -0.0383 -0.3807 -0.2282
21352SOL    HW164634   5.731   7.625   7.243 -0.3081  0.6864 -0.1945
21352SOL    HW264635   5.622   7.526   7.210 -0.7091  0.5207  1.5372
21353SOL     OW64636   4.140   6.430   3.061  0.3543 -0.4673 -0.4134
21353SOL    HW164637   4.165   6.339   3.048  1.7408  0.0712 -1.9506
21353SOL    HW264638   4.104   6.433   3.150  1.6813 -2.2213  0.2416
21354SOL     OW64639   3.549   0.966   2.566  0.0214 -0.2481  0.3050
21354SOL    HW164640   3.463   0.962   2.607  0.2124  0.2648  0.7674
21354SOL    HW264641   3.552   1.053   2.525 -0.1760 -0.7579 -0.8299
21355SOL     OW64642   6.555   5.769   1.462  0.7339 -0.3369 -0.2449
21355SOL    HW164643   6.644   5.803   1.457  0.1333  1.4927  0.7359
21355SOL    HW264644   6.524   5.794   1.549 -1.3911  0.8489 -1.2590
21356SOL     OW64645   3.071   8.330   6.525 -0.3489 -0.3250 -0.9301
21356SOL    HW164646   3.053   8.353   6.434 -0.3467 -1.1044 -1.1381
21356SOL    HW264647   3.066   8.234   6.527  2.5853 -0.5694 -0.7758
21357SOL     OW64648   9.338   2.780   8.047 -0.1163  0.0109  0.6530
21357SOL    HW164649   9.340   2.696   8.001 -1.3657 -1.8526  3.6412
21357SOL    HW264650   9.427   2.790   8.081 -0.2535 -0.7783  1.2855
21358SOL     OW64651   8.152   0.730   5.484 -0.1888  0.1029 -0.1353
21358SOL    HW164652   8.247   0.734   5.491 -0.0660 -3.0400  1.8172
21358SOL    HW264653   8.135   0.704   5.394  1.0383 -1.8219  0.1244
21359SOL     OW64654   4.882   2.076   9.390 -0.1630 -0.2394  0.0172
21359SOL    HW164655   4.933   2.101   9.467  1.1146  2.2283 -1.5034
21359SOL    HW264656   4.941   2.020   9.339 -0.8574 -1.5298  0.5925
21360SOL     OW64657   4.807   8.823   3.938 -0.8886 -0.8727  0.6469
21360SOL    HW164658   4.715   8.845   3.923 -0.7718 -0.9602 -0.3015
21360SOL    HW264659   4.853   8.906   3.934 -1.1844 -0.4811  3.6496
21361SOL     OW64660   1.779   7.850   6.770  0.0599  0.0743 -0.4448
21361SOL    HW164661   1.858   7.897   6.741  0.1764 -0.8574 -1.7164
21361SOL    HW264662   1.806   7.758   6.772 -0.5847 -0.1063  0.5830
21362SOL     OW64663   0.174   5.697   7.901  0.0757  0.4228  0.2557
21362SOL    HW164664   0.262   5.708   7.865 -0.1590 -1.5622 -1.0372
21362SOL    HW264665   0.178   5.615   7.950 -1.0234  0.3690  0.2728
21363SOL     OW64666   9.044   2.914   7.106 -0.5281  0.3192 -0.6543
21363SOL    HW164667   8.968   2.861   7.128 -0.9647  1.5665  1.0636
21363SOL    HW264668   9.009   3.002   7.091  0.4955  0.7829 -0.4325
21364SOL     OW64669   5.396   2.660   8.611 -0.3066  1.0939  0.1854
21364SOL    HW164670   5.418   2.614   8.692  1.4401  0.5932 -0.5251
21364SOL    HW264671   5.305   2.686   8.622 -0.7408 -0.7739  1.4644
21365SOL     OW64672   0.937   0.183   2.991 -0.7056 -0.0420 -0.5680
21365SOL    HW164673   0.918   0.218   2.904  0.3690  2.8907  0.2504
21365SOL    HW264674   0.908   0.252   3.051  1.1986 -0.7080  1.2307
21366SOL     OW64675   8.766   5.093   9.655 -0.4673  0.1703  0.1660
21366SOL    HW164676   8.679   5.124   9.681 -0.3867 -0.6562  1.5327
21366SOL    HW264677   8.784   5.020   9.714  1.4369  0.7412  0.3705
21367SOL     OW64678   7.244   2.220   7.490 -0.3754  0.1516  0.2510
21367SOL    HW164679   7.297   2.247   7.415 -1.1948 -0.8735 -0.7377
21367SOL    HW264680   7.298   2.239   7.566  1.2468 -0.5235 -0.6964
21368SOL     OW64681   2.357   9.061   0.011  0.3088 -0.1633  0.0781
21368SOL    HW164682   2.432   9.002   0.009 -0.1147 -0.7111  0.1276
21368SOL    HW264683   2.394   9.147   0.030  0.9802 -0.3355 -0.4353
21369SOL     OW64684   5.778   0.602   5.800  0.3413 -0.2199  0.0370
21369SOL    HW164685   5.807   0.513   5.822 -1.8693 -1.0560 -0.1596
21369SOL    HW264686   5.858   0.653   5.798  1.6447 -2.1152  0.6024
21370SOL     OW64687   9.711   8.661   0.497  0.2868 -0.2991 -0.6296
21370SOL    HW164688   9.687   8.572   0.519  0.0148 -0.3160 -0.9979
21370SOL    HW264689   9.723   8.661   0.402  0.8131 -0.0711 -0.5701
21371SOL     OW64690   2.949   7.682   8.368  0.5085  0.0870  0.1210
21371SOL    HW164691   2.952   7.615   8.437 -1.6923  1.6354  1.8333
21371SOL    HW264692   2.990   7.759   8.407  0.8843  0.4784 -0.9998
21372SOL     OW64693   4.908   4.271   2.703 -0.0269 -0.4118  0.4831
21372SOL    HW164694   4.815   4.275   2.682 -0.3756  0.5991  2.0708
21372SOL    HW264695   4.953   4.283   2.619 -1.3135  1.8814  0.0678
21373SOL     OW64696   7.119   0.849   2.103  0.4010 -0.6062 -0.4164
21373SOL    HW164697   7.036   0.867   2.147  0.1302 -1.7695 -0.4279
21373SOL    HW264698   7.184   0.894   2.156 -0.2186  0.3209 -0.4044
21374SOL     OW64699   0.258   3.628   0.214  0.6208 -0.6797  0.5909
21374SOL    HW164700   0.339   3.623   0.265  0.1177 -0.0564  1.4690
21374SOL    HW264701   0.244   3.721   0.199  0.6842 -0.8371 -0.6110
21375SOL     OW64702   2.774   0.502   2.687 -0.2817  0.5944  0.3315
21375SOL    HW164703   2.800   0.579   2.636 -1.6712  1.3321  0.6991
21375SOL    HW264704   2.804   0.427   2.635  3.7250  1.2947  1.3044
21376SOL     OW64705   2.298   3.680   1.614  0.2673 -0.1166  0.1926
21376SOL    HW164706   2.340   3.633   1.542 -0.2093  0.5665 -0.5428
21376SOL    HW264707   2.264   3.760   1.574 -0.2027  0.1656  1.1340
21377SOL     OW64708   6.582   3.231   5.248 -0.2731  0.0597  0.2691
21377SOL    HW164709   6.637   3.258   5.174  2.6059  1.1043  2.5538
21377SOL    HW264710   6.557   3.141   5.228  2.5959 -0.5996 -0.8581
21378SOL     OW64711   0.431   1.256   1.238 -0.0414  0.0137  0.7684
21378SOL    HW164712   0.376   1.214   1.305  1.4506  0.5445  2.4123
21378SOL    HW264713   0.452   1.342   1.275  0.9879  0.2524 -0.3187
21379SOL     OW64714   4.320   2.511   5.859 -1.0632  0.0169  0.0478
21379SOL    HW164715   4.338   2.468   5.776  0.1717 -1.0882  0.8410
21379SOL    HW264716   4.272   2.446   5.910 -0.6842  0.1968  0.6533
21380SOL     OW64717   2.234   7.686   0.837  0.1329  0.1526 -0.3889
21380SOL    HW164718   2.225   7.591   0.847  3.8742 -0.2854  0.3767
21380SOL    HW264719   2.161   7.722   0.887 -0.7732 -2.3341  0.2425
21381SOL     OW64720   5.656   6.071   9.364 -0.4112 -0.7008  0.0416
21381SOL    HW164721   5.679   6.114   9.446 -0.2829  0.8856 -0.7715
21381SOL    HW264722   5.740   6.059   9.319 -0.5982 -0.2871 -0.4292
21382SOL     OW64723   8.266   5.648   3.064 -1.1731 -0.1373 -0.6081
21382SOL    HW164724   8.212   5.638   3.142  2.8343 -1.6857  2.3160
21382SOL    HW264725   8.310   5.732   3.075  0.0958 -0.7690 -0.6725
21383SOL     OW64726   8.614   2.505   1.044 -0.0165  0.1905  0.1482
21383SOL    HW164727   8.554   2.577   1.025 -1.1811 -0.0167  2.5754
21383SOL    HW264728   8.699   2.535   1.012 -0.8564  1.7660 -0.7249
21384SOL     OW64729   8.037   2.026   6.757  0.2001  0.2793  0.1055
21384SOL    HW164730   7.991   2.007   6.674 -0.8405  2.2252  0.1779
21384SOL    HW264731   8.115   1.970   6.754  0.1497  0.2158 -2.1425
21385SOL     OW64732   4.984   9.338   6.515  0.3252  0.1225  0.0530
21385SOL    HW164733   4.964   9.287   6.593  0.3607 -0.7059 -0.4597
21385SOL    HW264734   5.045   9.283   6.465  0.0320  0.4735 -0.7183
21386SOL     OW64735   4.343   0.597   8.637 -0.2651 -0.0760  0.3131
21386SOL    HW164736   4.369   0.573   8.548 -0.2406 -1.6999  0.7359
21386SOL    HW264737   4.378   0.685   8.649 -0.3669  0.2224 -1.3209
21387SOL     OW64738   3.920   8.774   9.860 -0.1256 -0.6197 -0.0815
21387SOL    HW164739   3.952   8.786   9.770  1.1518 -1.3220  0.2662
21387SOL    HW264740   3.861   8.847   9.874 -1.6395 -1.3650 -2.0633
21388SOL     OW64741   1.039   1.688   6.328 -0.2957 -0.1233  0.3841
21388SOL    HW164742   1.035   1.608   6.382 -1.7170  0.4641  1.2118
21388SOL    HW264743   1.119   1.732   6.358 -0.9977  0.1398  1.9909
21389SOL     OW64744   6.889   7.525   1.981 -0.3776 -0.0976 -0.1511
21389SOL    HW164745   6.807   7.511   1.935 -0.0793 -1.7870 -0.2470
21389SOL    HW264746   6.952   7.469   1.936  0.6592  0.6239  0.3575
21390SOL     OW64747   4.049   2.018   6.578 -0.1048  0.0845  0.1058
21390SOL    HW164748   3.956   2.023   6.601 -0.0438 -0.1534  0.4074
21390SOL    HW264749   4.088   2.097   6.617 -0.4149  0.8847 -1.1554
21391SOL     OW64750   1.062   5.553   8.743  0.0325  0.7854  0.2267
21391SOL    HW164751   1.098   5.494   8.810  0.4848  1.6107  0.7332
21391SOL    HW264752   1.137   5.604   8.714 -0.4655  1.5561  0.2715
21392SOL     OW64753   2.713   2.883   8.317  0.1043  0.5424 -0.2904
21392SOL    HW164754   2.795   2.925   8.343  0.1761  0.9766 -1.1765
21392SOL    HW264755   2.655   2.956   8.294 -0.5513  0.2430  0.3529
21393SOL     OW64756   5.543   2.937   2.593 -0.0239 -0.2061  0.1595
21393SOL    HW164757   5.587   2.983   2.522  0.5757 -0.1536  0.5537
21393SOL    HW264758   5.454   2.973   2.595 -0.1348 -0.4070 -0.7335
21394SOL     OW64759   1.921   1.775   5.061  0.2324  0.2630  0.4873
21394SOL    HW164760   1.913   1.701   5.001 -0.9711  0.8552 -0.1278
21394SOL    HW264761   2.015   1.792   5.068  0.5017 -1.1815  0.4827
21395SOL     OW64762   1.543   2.861   5.262  0.5130 -0.3877  0.0872
21395SOL    HW164763   1.577   2.949   5.245  1.4754 -0.7844 -0.0888
21395SOL    HW264764   1.534   2.822   5.175  0.0981 -0.4702  0.1651
21396SOL     OW64765   2.005   3.426   9.162  0.2315  0.3023 -0.2521
21396SOL    HW164766   2.006   3.367   9.238 -0.4678  0.4730 -0.1039
21396SOL    HW264767   1.937   3.391   9.105  0.9387  0.0157 -0.9453
21397SOL     OW64768   8.429   6.553   1.453 -0.0457 -0.3342  0.0445
21397SOL    HW164769   8.406   6.584   1.540 -1.5591 -2.0746  0.3126
21397SOL    HW264770   8.353   6.575   1.399  0.7282  0.3941 -0.7875
21398SOL     OW64771   0.591   4.628   8.604  0.2795  0.2240  0.0745
21398SOL    HW164772   0.624   4.715   8.628 -0.7402  0.6634 -0.0658
21398SOL    HW264773   0.588   4.630   8.508  1.7263 -0.5354 -0.0080
21399SOL     OW64774   3.925   0.600   0.645 -0.6784  0.3837 -0.7335
21399SOL    HW164775   3.857   0.648   0.692 -0.2859  0.6246 -0.4065
21399SOL    HW264776   4.001   0.658   0.647 -0.1181 -0.3572 -0.1141
21400SOL     OW64777   5.083   8.021   4.603  0.6251  0.3597  0.3023
21400SOL    HW164778   5.015   8.086   4.620  0.8001  0.2383  1.5734
21400SOL    HW264779   5.107   7.989   4.690 -0.4081 -2.3649 -0.3053
21401SOL     OW64780   7.037   3.144   5.142  0.0664  0.1301  0.0600
21401SOL    HW164781   7.087   3.131   5.061 -1.3801  0.2774 -0.9047
21401SOL    HW264782   6.950   3.109   5.122 -1.0697  2.4263  0.6755
21402SOL     OW64783   7.665   5.254   3.502 -0.0035 -0.0278  0.3630
21402SOL    HW164784   7.753   5.274   3.533  0.2858  0.4518 -0.7383
21402SOL    HW264785   7.617   5.336   3.511 -0.1849 -0.1386  0.4205
21403SOL     OW64786   8.032   7.336   2.844 -0.0329 -0.4065 -0.9231
21403SOL    HW164787   8.062   7.289   2.766  1.7259 -0.2896 -0.3505
21403SOL    HW264788   8.100   7.400   2.862 -0.8134  0.1363  0.2436
21404SOL     OW64789   7.481   0.535   4.502  0.3298  0.0312 -0.0422
21404SOL    HW164790   7.468   0.565   4.592  1.2485  0.7270 -0.1258
21404SOL    HW264791   7.468   0.614   4.449  0.5514 -0.2125 -0.4620
21405SOL     OW64792   3.152   6.523   3.512  0.1953  0.0538  0.3292
21405SOL    HW164793   3.247   6.511   3.505 -0.0687 -1.6064 -1.1690
21405SOL    HW264794   3.129   6.576   3.435  0.0446  1.6309  1.4232
21406SOL     OW64795   2.568   3.255   4.507  0.0648  0.0271  0.5264
21406SOL    HW164796   2.625   3.204   4.564 -0.8537 -0.9633  0.5890
21406SOL    HW264797   2.626   3.320   4.467  0.9339  0.0292  1.7305
21407SOL     OW64798   1.067   4.390   1.926 -0.0501  0.3694  0.5687
21407SOL    HW164799   1.128   4.324   1.958  0.1855  0.3897  0.1687
21407SOL    HW264800   0.988   4.341   1.904 -0.2701  0.3769  1.3256
21408SOL     OW64801   3.470   5.839   7.899 -0.1259 -0.0305 -0.7636
21408SOL    HW164802   3.552   5.828   7.946  0.1095 -0.5841 -1.2739
21408SOL    HW264803   3.495   5.834   7.806 -0.6490  0.4585 -0.9374
21409SOL     OW64804   5.207   1.439   6.686  0.2195  0.3197  0.6231
21409SOL    HW164805   5.176   1.353   6.657 -0.5982  0.8778 -0.2188
21409SOL    HW264806   5.139   1.469   6.746  0.5210  0.3758  0.9403
21410SOL     OW64807   2.145   8.408   8.029 -0.0604 -0.4312 -0.0317
21410SOL    HW164808   2.132   8.358   8.109  0.4926 -0.5885 -0.0354
21410SOL    HW264809   2.079   8.477   8.032  1.6891  1.2787  1.9039
21411SOL     OW64810   5.833   1.692   6.970 -0.1888 -0.0376 -0.3204
21411SOL    HW164811   5.889   1.624   6.932  0.3172  1.3094 -2.1048
21411SOL    HW264812   5.755   1.692   6.915 -0.5544  0.2769  0.1874
21412SOL     OW64813   8.781   7.941   2.071 -0.2093  0.0370  0.3429
21412SOL    HW164814   8.716   7.889   2.024  0.8440  0.1970 -1.3777
21412SOL    HW264815   8.810   7.885   2.142 -1.5260 -0.4020  0.5616
21413SOL     OW64816   3.370   7.421   4.146 -0.1995  0.0632  0.5343
21413SOL    HW164817   3.285   7.462   4.165 -0.7931 -0.8179 -0.1192
21413SOL    HW264818   3.363   7.394   4.054  1.2461  1.0345  0.0998
21414SOL     OW64819   4.319   7.373   5.500  0.0639 -0.2330 -0.5162
21414SOL    HW164820   4.226   7.365   5.523  0.7408 -1.7455  2.0522
21414SOL    HW264821   4.346   7.285   5.474  0.8940  0.0876 -0.7872
21415SOL     OW64822   7.155   5.516   9.157  0.1931 -0.1471 -0.8006
21415SOL    HW164823   7.203   5.527   9.239  0.5247  1.1180 -1.1498
21415SOL    HW264824   7.207   5.561   9.092 -2.2910  2.9546 -0.8788
21416SOL     OW64825   9.082   3.558   2.549  0.3462  0.3907 -0.0227
21416SOL    HW164826   9.102   3.603   2.467 -0.2727 -0.3478 -0.5915
21416SOL    HW264827   9.160   3.505   2.566  0.3710  0.3521 -0.2566
21417SOL     OW64828   3.425   9.558   6.681  0.0389  0.3507 -0.2678
21417SOL    HW164829   3.483   9.506   6.625  0.9058  0.8564  0.1356
21417SOL    HW264830   3.337   9.530   6.657  0.4553 -0.6460 -0.6937
21418SOL     OW64831   5.766   2.526   3.495  0.7501  0.3911  0.9052
21418SOL    HW164832   5.737   2.617   3.491 -0.8288 -0.0985  0.4088
21418SOL    HW264833   5.688   2.477   3.521  0.6869 -1.1639 -1.8350
21419SOL     OW64834   5.173   9.647   8.421 -0.5557  0.2972  0.1842
21419SOL    HW164835   5.239   9.578   8.431 -0.8722 -0.0375 -0.0184
21419SOL    HW264836   5.205   9.701   8.349  0.3464  1.1242  1.1687
21420SOL     OW64837   7.802   4.095   0.027  0.3297 -0.4252 -0.4289
21420SOL    HW164838   7.807   4.109   0.121 -1.7228  2.2305 -0.5919
21420SOL    HW264839   7.886   4.125  -0.007  0.8546 -0.8332  0.4829
21421SOL     OW64840   3.171   6.019   3.698 -0.4055  0.2128  0.2690
21421SOL    HW164841   3.158   6.103   3.654 -0.2880  0.0856 -0.0084
21421SOL    HW264842   3.256   5.988   3.667  0.2286  0.6785  1.4821
21422SOL     OW64843   7.801   9.467   2.166 -0.2733 -0.0636  0.1846
21422SOL    HW164844   7.889   9.447   2.198 -0.5258  0.5583  1.3081
21422SOL    HW264845   7.777   9.390   2.115  1.0486 -0.0994 -0.4201
21423SOL     OW64846   2.059   1.213   5.141 -0.0612  0.3424 -0.2598
21423SOL    HW164847   2.057   1.257   5.226 -0.8038  0.8100 -0.5110
21423SOL    HW264848   2.141   1.164   5.141 -0.3450 -0.1836  0.9895
21424SOL     OW64849   1.498   5.620   6.600 -0.0355 -0.3336  0.0323
21424SOL    HW164850   1.452   5.566   6.536  2.3351 -0.0609 -2.0360
21424SOL    HW264851   1.522   5.559   6.670  1.6745 -1.8555 -1.7603
21425SOL     OW64852   5.553   5.092   2.025 -0.1739 -0.1578 -0.3722
21425SOL    HW164853   5.531   5.184   2.036  0.4837 -0.0812  0.3733
21425SOL    HW264854   5.486   5.045   2.075 -0.7014 -0.1176 -1.0173
21426SOL     OW64855   0.257   1.020   1.104 -0.5042  0.1775  0.3568
21426SOL    HW164856   0.347   1.018   1.071 -0.0740  3.3741  1.0123
21426SOL    HW264857   0.211   1.078   1.044 -1.1254  1.5567  2.0644
21427SOL     OW64858   3.047   6.963   1.992 -0.1109  0.3188 -0.0877
21427SOL    HW164859   2.955   6.989   1.990 -0.5471 -1.0773  0.1212
21427SOL    HW264860   3.047   6.874   1.956  1.1194  0.1840  0.2005
21428SOL     OW64861   1.566   1.883   2.833 -0.0180  0.3678  0.0991
21428SOL    HW164862   1.633   1.949   2.846 -2.1903  2.9280 -0.7185
21428SOL    HW264863   1.536   1.861   2.921  1.5368 -0.4827  0.4372
21429SOL     OW64864   4.454   9.135   4.723 -0.1752 -0.0321 -0.5182
21429SOL    HW164865   4.469   9.181   4.806  0.1909  0.1629 -0.6892
21429SOL    HW264866   4.533   9.081   4.711  0.8328  1.6599 -1.8683
21430SOL     OW64867   6.208   2.657   0.741 -0.5554  0.0400  0.1429
21430SOL    HW164868   6.231   2.720   0.671 -0.0598 -2.4560 -2.1077
21430SOL    HW264869   6.283   2.597   0.744 -2.9024 -3.2834 -1.3392
21431SOL     OW64870   2.052   3.580   2.845 -0.3553 -0.8452 -0.3942
21431SOL    HW164871   2.145   3.602   2.837 -0.7820  1.0335 -0.6019
21431SOL    HW264872   2.007   3.643   2.788 -1.5933 -3.6807 -2.8678
21432SOL     OW64873   3.664   5.983   4.182  0.4537 -0.0535 -0.3807
21432SOL    HW164874   3.630   5.981   4.093 -0.8882 -1.7915  0.1015
21432SOL    HW264875   3.588   5.960   4.236  1.5572 -0.3805  1.0819
21433SOL     OW64876   5.504   5.916   5.287  0.1563 -0.2049  0.5016
21433SOL    HW164877   5.574   5.855   5.267 -0.9693 -1.4033  0.0798
21433SOL    HW264878   5.547   6.001   5.292  1.4765 -0.7556 -0.8030
21434SOL     OW64879   4.551   0.824   3.054 -0.2078  0.4115  0.4583
21434SOL    HW164880   4.457   0.816   3.039 -0.1565 -0.0361  0.3660
21434SOL    HW264881   4.581   0.884   2.985 -0.7790  2.4472  1.8634
21435SOL     OW64882   8.966   0.164   2.170 -0.1799  0.3564  0.2488
21435SOL    HW164883   8.968   0.085   2.116  0.6871 -0.4453  1.3851
21435SOL    HW264884   8.938   0.133   2.256 -2.1344  1.7017  0.1480
21436SOL     OW64885   7.772   9.670   2.700 -0.2461 -0.1357 -0.3952
21436SOL    HW164886   7.775   9.618   2.781 -0.1888  1.0294  0.3710
21436SOL    HW264887   7.681   9.698   2.694 -0.5104 -1.1195 -1.3491
21437SOL     OW64888   7.538   3.071   9.662 -0.4580  0.2451 -0.2354
21437SOL    HW164889   7.501   2.983   9.671 -4.6216  1.8562  0.6795
21437SOL    HW264890   7.584   3.085   9.745 -0.5494 -0.7172 -0.0002
21438SOL     OW64891   4.725   1.201   2.386 -0.1585 -0.1648 -0.9393
21438SOL    HW164892   4.771   1.212   2.303  0.3965  0.5977 -0.5363
21438SOL    HW264893   4.695   1.289   2.408  1.0397 -0.0759  0.4400
21439SOL     OW64894   9.142   3.289   0.374 -0.4734 -0.1086 -0.1431
21439SOL    HW164895   9.130   3.201   0.340 -0.0349  0.3650 -1.6027
21439SOL    HW264896   9.217   3.281   0.434 -2.4966 -1.3504  2.4382
21440SOL     OW64897   5.643   3.310   5.378 -0.0845 -0.3331  0.2648
21440SOL    HW164898   5.625   3.246   5.308 -2.0090 -0.5037  0.8525
21440SOL    HW264899   5.665   3.256   5.454 -2.1724 -0.3780  0.8883
21441SOL     OW64900   2.677   2.853   6.031  0.4910 -0.8294  0.0973
21441SOL    HW164901   2.625   2.811   6.100  0.9779 -0.8440  0.4626
21441SOL    HW264902   2.695   2.782   5.969  3.0274 -1.7182  1.7132
21442SOL     OW64903   4.285   7.124   4.539 -0.7784 -0.1872 -0.2745
21442SOL    HW164904   4.282   7.152   4.448  1.9218 -2.8723 -1.3750
21442SOL    HW264905   4.332   7.194   4.585 -1.5523  0.8662 -1.0440
21443SOL     OW64906   2.779   0.564   7.243  0.2008 -0.0531  0.3565
21443SOL    HW164907   2.829   0.646   7.232  0.9021 -0.4197  0.7457
21443SOL    HW264908   2.837   0.497   7.207  0.6174 -0.6774  2.0929
21444SOL     OW64909   2.895   3.706   0.817  0.4426 -0.3430 -0.1652
21444SOL    HW164910   2.816   3.760   0.822  1.8452  1.7257  1.1388
21444SOL    HW264911   2.909   3.692   0.724  1.1697  3.4779 -0.8032
21445SOL     OW64912   0.116   8.325   9.121 -0.1705  0.2107 -0.3167
21445SOL    HW164913   0.135   8.248   9.068  0.5370 -0.4781  0.8787
21445SOL    HW264914   0.200   8.371   9.128 -0.4575  0.7779 -0.5289
21446SOL     OW64915   9.561   4.409   2.013  0.0431  0.3765 -0.0638
21446SOL    HW164916   9.513   4.411   1.930  0.6182  2.2162 -0.3871
21446SOL    HW264917   9.515   4.342   2.065 -1.5645  0.5991 -1.1178
21447SOL     OW64918   6.968   7.400   9.532  0.0734 -0.2918  0.1030
21447SOL    HW164919   7.005   7.323   9.575  1.3832 -0.9674 -2.0868
21447SOL    HW264920   7.041   7.440   9.486 -0.5966  2.2474  1.0498
21448SOL     OW64921   1.188   9.554   0.177  0.1097 -0.3761  0.0346
21448SOL    HW164922   1.150   9.471   0.148 -0.7498 -0.1550  0.4733
21448SOL    HW264923   1.207   9.540   0.270 -0.3448  0.0124  0.1911
21449SOL     OW64924   5.270   1.831   6.948 -0.4337 -0.2999 -0.7522
21449SOL    HW164925   5.202   1.890   6.981  0.2035 -0.7817  1.6038
21449SOL    HW264926   5.285   1.769   7.019  3.2282  0.4445 -0.6677
21450SOL     OW64927   5.322   7.106   4.780 -0.3542 -0.1803 -0.3989
21450SOL    HW164928   5.327   7.010   4.779 -0.4058 -0.2085  0.6075
21450SOL    HW264929   5.302   7.130   4.690 -1.9206 -1.2017 -0.3569
21451SOL     OW64930   6.552   3.536   4.151  0.0747  0.2618  0.0712
21451SOL    HW164931   6.548   3.623   4.191  0.7994  0.5076 -0.3826
21451SOL    HW264932   6.621   3.490   4.200 -0.1441  0.0196  0.1549
21452SOL     OW64933   1.274   7.552   6.299 -0.0098 -0.1461 -1.2108
21452SOL    HW164934   1.262   7.457   6.297  0.0190 -0.1530 -1.0558
21452SOL    HW264935   1.218   7.582   6.371  2.7747 -0.4515  1.3033
21453SOL     OW64936   6.740   8.257   6.224  0.4658  0.3589  0.3035
21453SOL    HW164937   6.726   8.196   6.296 -1.1819 -0.7359 -0.8734
21453SOL    HW264938   6.829   8.239   6.194 -0.6384 -3.1157 -1.3840
21454SOL     OW64939   2.548   6.278   7.999 -0.1458 -0.8824 -0.1141
21454SOL    HW164940   2.622   6.338   8.009  0.5224 -1.5411 -0.9430
21454SOL    HW264941   2.587   6.191   8.006 -0.5856 -1.2698 -1.8718
21455SOL     OW64942   8.518   8.652   2.057  0.0938 -0.7554  0.2186
21455SOL    HW164943   8.439   8.607   2.086  0.8820 -1.9498  0.6231
21455SOL    HW264944   8.523   8.634   1.963 -0.1497 -0.6172  0.1786
21456SOL     OW64945   0.888   6.648   6.248  0.6721 -0.3200 -0.2872
21456SOL    HW164946   0.834   6.723   6.222  2.3281  0.5051 -1.5600
21456SOL    HW264947   0.881   6.587   6.174  0.3223 -0.8851  0.2025
21457SOL     OW64948   3.595   6.010   1.114 -0.2769 -0.2129 -0.2227
21457SOL    HW164949   3.594   6.087   1.057  4.0784  0.0694 -0.2162
21457SOL    HW264950   3.592   5.935   1.054  0.9096  0.0545 -0.6299
21458SOL     OW64951   8.441   2.007   8.967  0.2817  0.5103  0.1800
21458SOL    HW164952   8.517   1.950   8.973  0.5441  0.9556  1.5365
21458SOL    HW264953   8.370   1.950   8.938  0.7223 -0.3188  0.6955
21459SOL     OW64954   6.385   3.848   7.159  0.2691 -0.0052  0.0836
21459SOL    HW164955   6.380   3.754   7.174 -0.9571  0.2918  1.8665
21459SOL    HW264956   6.472   3.873   7.191  0.5491 -0.5041 -0.2818
21460SOL     OW64957   7.116   8.191   2.644 -0.3555 -0.1556 -0.4423
21460SOL    HW164958   7.080   8.258   2.702  0.3414 -0.3424  0.2305
21460SOL    HW264959   7.146   8.240   2.567  0.4972  0.3755  0.2057
21461SOL     OW64960   6.649   2.200   7.997  0.5277  0.3054  0.1911
21461SOL    HW164961   6.705   2.122   7.998 -0.1881 -0.2199 -0.1735
21461SOL    HW264962   6.691   2.259   7.934 -0.9571 -1.3299 -2.4878
21462SOL     OW64963   4.926   0.751   7.861  0.2817  0.3600 -0.2452
21462SOL    HW164964   4.978   0.717   7.788 -0.2432  0.6200 -0.7509
21462SOL    HW264965   4.837   0.754   7.827  0.0784  0.7853  0.3069
21463SOL     OW64966   8.734   2.516   5.468  0.2548  0.1349  0.7176
21463SOL    HW164967   8.731   2.475   5.555  1.8765 -1.9644 -0.1173
21463SOL    HW264968   8.642   2.532   5.446 -0.4235 -2.1184  1.5854
21464SOL     OW64969   7.522   9.221   8.311 -0.3003  0.1490  0.1268
21464SOL    HW164970   7.554   9.135   8.282 -0.7653  0.1418 -0.4012
21464SOL    HW264971   7.600   9.269   8.337 -0.0514 -0.4890  0.5624
21465SOL     OW64972   5.843   6.509   6.246  0.1711  0.3404 -0.2259
21465SOL    HW164973   5.790   6.431   6.229  1.6789 -1.2449  1.8088
21465SOL    HW264974   5.797   6.580   6.201 -3.3128 -1.0280  0.8342
21466SOL     OW64975   2.311   7.206   8.336  0.8226  0.0423 -0.2323
21466SOL    HW164976   2.303   7.111   8.329  0.0240  0.1436 -0.8921
21466SOL    HW264977   2.402   7.221   8.359  1.1192 -0.8585 -0.7751
21467SOL     OW64978   6.415   6.187   1.946  0.2453  0.0593  0.0089
21467SOL    HW164979   6.431   6.189   2.040 -0.6822  1.1092  0.1621
21467SOL    HW264980   6.501   6.201   1.907  0.9528 -2.1595  0.6358
21468SOL     OW64981   5.269   3.658   9.009  0.1857 -0.7343  0.0998
21468SOL    HW164982   5.333   3.678   9.077  0.9255 -1.0546 -0.4748
21468SOL    HW264983   5.219   3.584   9.044  0.1594 -0.5148  0.5322
21469SOL     OW64984   3.038   2.335   9.528 -0.1763  0.3372  0.0494
21469SOL    HW164985   3.124   2.361   9.562 -0.6786  1.1339  0.7590
21469SOL    HW264986   3.047   2.341   9.433  1.1078 -1.4395  0.0232
21470SOL     OW64987   0.389   9.095   2.990  0.1545 -0.2868  0.0257
21470SOL    HW164988   0.464   9.095   2.930 -0.1219 -1.0598 -0.3357
21470SOL    HW264989   0.321   9.144   2.943 -0.1988 -1.2449 -0.4863
21471SOL     OW64990   4.410   9.781   4.911 -0.0551  0.0138 -0.3010
21471SOL    HW164991   4.466   9.709   4.882 -0.3153  0.1552 -1.2083
21471SOL    HW264992   4.321   9.748   4.902 -0.1519 -0.6706  2.3728
21472SOL     OW64993   9.247   1.837   1.291  0.1148 -0.4306 -0.1619
21472SOL    HW164994   9.310   1.797   1.233 -1.4865 -2.7734 -0.4363
21472SOL    HW264995   9.194   1.893   1.235  0.9091  0.2545 -0.2327
21473SOL     OW64996   9.876   4.079   0.111 -0.1824 -0.1644  0.1099
21473SOL    HW164997   9.849   4.170   0.115  1.8608  0.5319 -0.6016
21473SOL    HW264998   9.972   4.082   0.115  0.0542 -2.1159 -2.0265
21474SOL     OW64999   4.938   9.233   2.051 -0.3250  0.1489 -0.1608
21474SOL    HW165000   4.908   9.313   2.093  0.0113 -0.9044  2.2330
21474SOL    HW265001   4.995   9.192   2.115  0.4951 -1.4212 -1.8079
21475SOL     OW65002   6.565   0.586   6.316  0.2669 -0.6796  0.1047
21475SOL    HW165003   6.608   0.536   6.247  0.7203  0.2751 -0.3327
21475SOL    HW265004   6.630   0.591   6.386 -0.8386 -3.2005  1.4058
21476SOL     OW65005   3.255   0.495   8.958  0.2084 -0.3123  0.1218
21476SOL    HW165006   3.297   0.488   8.872  0.0362  0.6057 -0.0486
21476SOL    HW265007   3.165   0.466   8.943 -0.6637  2.4769 -0.7046
21477SOL     OW65008   0.246   7.263   0.652  0.4010 -0.0440 -0.5335
21477SOL    HW165009   0.285   7.329   0.709  1.7845 -0.7072 -0.6942
21477SOL    HW265010   0.163   7.240   0.695  0.6274  0.6807  0.3156
21478SOL     OW65011   5.362   3.273   5.241  0.1323  0.3466 -0.1619
21478SOL    HW165012   5.439   3.311   5.282 -0.4074  0.8352  0.4101
21478SOL    HW265013   5.314   3.231   5.312  0.3537 -0.8250 -0.6649
21479SOL     OW65014   8.647   5.349   1.386 -0.2957  0.1849  0.1215
21479SOL    HW165015   8.619   5.392   1.305 -1.0778  0.3757  0.4930
21479SOL    HW265016   8.663   5.420   1.447  1.5225  0.1233 -0.2241
21480SOL     OW65017   4.946   3.789   8.985 -0.4956  0.5021  0.1628
21480SOL    HW165018   4.975   3.833   9.065 -0.5196  1.8746 -0.5600
21480SOL    HW265019   4.875   3.843   8.951 -2.7049 -1.7696  0.8663
21481SOL     OW65020   4.499   9.588   9.004  0.5786 -0.5554 -0.1868
21481SOL    HW165021   4.503   9.494   9.024  0.0406 -0.3214  1.1339
21481SOL    HW265022   4.426   9.621   9.056  0.7446  0.6057 -0.6462
21482SOL     OW65023   7.323   8.092   4.654  0.3243  0.7271  0.1028
21482SOL    HW165024   7.379   8.135   4.588 -1.0562  1.3759 -0.6827
21482SOL    HW265025   7.264   8.037   4.603 -0.8130  1.2846  0.7939
21483SOL     OW65026   3.460   1.834   9.236 -0.1147  0.2803 -0.5831
21483SOL    HW165027   3.499   1.916   9.205 -0.3608  0.2927 -0.8735
21483SOL    HW265028   3.483   1.829   9.329  0.1912  0.5068 -0.6467
21484SOL     OW65029   1.091   7.960   1.294  0.1303  0.4438  0.4122
21484SOL    HW165030   1.124   7.872   1.280  2.6900  1.0346  2.0618
21484SOL    HW265031   1.022   7.949   1.360 -2.2153 -0.6287 -2.0133
21485SOL     OW65032   3.405   9.686   6.057  0.2202 -0.1174 -0.4177
21485SOL    HW165033   3.491   9.667   6.094 -0.5202 -1.2696  0.8118
21485SOL    HW265034   3.370   9.600   6.034 -1.8927 -0.0864  2.1585
21486SOL     OW65035   1.461   2.125   3.914  0.7638 -0.0227 -0.6493
21486SOL    HW165036   1.380   2.164   3.949  1.7104 -0.6743  2.6395
21486SOL    HW265037   1.501   2.196   3.863 -2.0967  0.1134 -2.9898
21487SOL     OW65038   8.665   9.697   5.775  0.4302  0.0069 -0.5110
21487SOL    HW165039   8.611   9.699   5.855 -0.2650 -2.1851 -0.8638
21487SOL    HW265040   8.741   9.645   5.799  1.4074  1.3364 -0.6346
21488SOL     OW65041   1.694   8.988   0.660  0.0452 -0.0787  0.0948
21488SOL    HW165042   1.702   8.976   0.755  0.7890 -1.1170 -0.0836
21488SOL    HW265043   1.643   8.913   0.631 -1.8146  1.2173 -0.1118
21489SOL     OW65044   1.900   9.947   4.901  0.3612 -0.2434 -0.1806
21489SOL    HW165045   1.990   9.917   4.912  0.2345 -0.7663 -0.5424
21489SOL    HW265046   1.890  10.018   4.965  0.2238 -1.9577  1.8101
21490SOL     OW65047   0.774   1.274   3.482 -0.3095  0.0884  0.2410
21490SOL    HW165048   0.811   1.245   3.566  0.6678 -1.2163 -0.5984
21490SOL    HW265049   0.759   1.193   3.433  0.6866  0.8737 -1.4719
21491SOL     OW65050   8.697   2.692   2.220 -0.2747 -0.3066  0.6138
21491SOL    HW165051   8.754   2.641   2.278 -0.6643 -0.8943  0.4984
21491SOL    HW265052   8.699   2.781   2.255  0.3470 -0.4227  0.8792
21492SOL     OW65053   3.186   6.832   9.556 -0.6156  0.0299  0.4740
21492SOL    HW165054   3.269   6.853   9.598 -0.1466  0.2957 -0.5605
21492SOL    HW265055   3.143   6.772   9.617  0.3806 -0.2025  0.9707
21493SOL     OW65056   1.520   6.633   8.665 -0.3073 -0.4917 -0.2436
21493SOL    HW165057   1.426   6.616   8.658 -0.6096  1.2556 -0.7165
21493SOL    HW265058   1.554   6.622   8.576 -0.1983 -0.3627 -0.2183
21494SOL     OW65059   6.217   0.384   4.075 -0.6326  0.5241  0.0274
21494SOL    HW165060   6.160   0.307   4.066  1.8039 -1.3116 -0.7642
21494SOL    HW265061   6.266   0.368   4.156  2.9469 -1.0971 -2.2172
21495SOL     OW65062   5.887   0.753   0.681  0.5084  0.2000  0.3486
21495SOL    HW165063   5.945   0.824   0.651 -3.7435  3.7978 -0.3726
21495SOL    HW265064   5.881   0.694   0.606  0.7089  1.5782 -0.8037
21496SOL     OW65065   8.437   1.121   0.092 -0.2338  0.1635  0.2523
21496SOL    HW165066   8.378   1.110   0.018  0.0499 -0.8119  0.1635
21496SOL    HW265067   8.383   1.101   0.169  0.7461 -4.4634  0.0250
21497SOL     OW65068   8.476   1.065   6.529 -0.5837  0.5171 -0.3768
21497SOL    HW165069   8.398   1.018   6.501  0.6357 -1.6225 -0.4002
21497SOL    HW265070   8.483   1.139   6.468 -1.6723 -0.1939 -1.4075
21498SOL     OW65071   7.823   0.768   5.113  0.0821 -0.6141  0.7530
21498SOL    HW165072   7.789   0.856   5.095  1.7826  0.0890  0.8613
21498SOL    HW265073   7.752   0.709   5.086 -0.6041  0.7317 -0.4823
21499SOL     OW65074   9.243   1.407   3.142  0.0677 -0.1988 -0.3555
21499SOL    HW165075   9.224   1.327   3.092  0.5768  0.2690 -1.3380
21499SOL    HW265076   9.161   1.428   3.185 -0.0120 -1.3830  0.1264
21500SOL     OW65077   9.338   8.831   3.001  0.0640 -0.3234 -0.1545
21500SOL    HW165078   9.334   8.874   3.087  1.6906  1.3636 -0.8530
21500SOL    HW265079   9.371   8.743   3.020  3.9291  1.1057  0.7809
21501SOL     OW65080   6.022   6.253   2.890  0.5752  0.1608 -0.2526
21501SOL    HW165081   5.969   6.264   2.968  0.5200 -1.0554 -0.1024
21501SOL    HW265082   5.993   6.170   2.852  0.9874  0.4606 -1.2537
21502SOL     OW65083   3.875   7.473   2.030 -0.2355  0.9097 -0.9115
21502SOL    HW165084   3.807   7.431   1.978  0.0008  1.3933 -1.6280
21502SOL    HW265085   3.952   7.472   1.973  1.2160 -2.1497  0.8323
21503SOL     OW65086   9.310   7.307   0.117  1.0741  0.2674 -0.6188
21503SOL    HW165087   9.404   7.321   0.108  1.0703 -0.2096 -1.4684
21503SOL    HW265088   9.272   7.345   0.038  0.7214 -1.0815 -1.1307
21504SOL     OW65089   6.935   5.788   3.708 -0.3724  0.3407  0.3251
21504SOL    HW165090   6.989   5.840   3.768  1.5494 -0.1852 -0.8368
21504SOL    HW265091   6.983   5.705   3.699 -0.2668  0.5975 -2.2936
21505SOL     OW65092   3.373   0.986   0.489  0.7350  0.0667 -0.3572
21505SOL    HW165093   3.344   0.917   0.549  0.7835 -0.5835 -1.0663
21505SOL    HW265094   3.468   0.976   0.485  0.7052 -0.0882 -0.7593
21506SOL     OW65095   9.203   7.673   6.351  0.0712  0.5840  0.2072
21506SOL    HW165096   9.168   7.588   6.326 -1.8638  1.5426 -0.5782
21506SOL    HW265097   9.274   7.690   6.288  0.4303 -0.3943  0.3358
21507SOL     OW65098   0.572   9.801   1.696 -0.0227  0.5177 -0.3011
21507SOL    HW165099   0.642   9.780   1.759  1.0653  0.1992 -1.5827
21507SOL    HW265100   0.504   9.735   1.714  0.8735 -0.4521 -0.3693
21508SOL     OW65101   2.070   7.453   0.866 -0.1448  0.2093 -0.3254
21508SOL    HW165102   2.019   7.420   0.793 -1.2626  2.1320 -0.4871
21508SOL    HW265103   2.019   7.527   0.900  3.2951  3.5826 -1.7103
21509SOL     OW65104   8.086   0.305   5.306  1.3317  0.0696  0.5498
21509SOL    HW165105   8.076   0.396   5.335  4.1268  0.5890  0.2454
21509SOL    HW265106   8.104   0.256   5.386 -0.5447 -0.3219  0.7591
21510SOL     OW65107   0.769   1.496   1.666 -0.3558  0.0994 -0.4323
21510SOL    HW165108   0.682   1.479   1.704  0.2630 -0.6155  0.7041
21510SOL    HW265109   0.780   1.591   1.673 -0.8804  0.1488 -0.2241
21511SOL     OW65110   5.430   5.984   0.355  0.2503 -0.0250  0.1629
21511SOL    HW165111   5.389   6.068   0.334  1.3838  1.0806  2.0677
21511SOL    HW265112   5.507   5.980   0.297  1.1604  1.1250  1.2296
21512SOL     OW65113   2.302   0.148   3.475 -0.2067  0.4876  0.0353
21512SOL    HW165114   2.331   0.059   3.456 -0.7648  0.3475 -0.2035
21512SOL    HW265115   2.318   0.196   3.394 -0.7520  0.3736 -0.1484
21513SOL     OW65116   6.549   9.511   3.375  0.0806  0.2306  0.3554
21513SOL    HW165117   6.622   9.449   3.381 -0.9885 -0.9409  1.8984
21513SOL    HW265118   6.492   9.488   3.448 -1.3970  1.7078 -0.2829
21514SOL     OW65119   6.827   4.351   1.954  0.1663  0.0648 -0.0130
21514SOL    HW165120   6.740   4.320   1.929 -1.3147  1.8271  2.5934
21514SOL    HW265121   6.882   4.272   1.951 -1.4596 -1.0936 -1.6520
21515SOL     OW65122   5.253   0.245   4.183 -0.2881 -0.5167 -0.5274
21515SOL    HW165123   5.232   0.314   4.120  0.0797 -0.5896 -0.7373
21515SOL    HW265124   5.171   0.199   4.198 -0.2101 -1.0730 -1.6518
21516SOL     OW65125   6.864   7.342   6.320 -0.3640  0.4253  0.3018
21516SOL    HW165126   6.792   7.372   6.265  1.1923  3.8620 -0.1729
21516SOL    HW265127   6.894   7.422   6.365  2.4150 -1.0345  1.2894
21517SOL     OW65128   8.892   5.839   3.424  0.3242  0.5342 -0.1188
21517SOL    HW165129   8.940   5.791   3.355 -0.8803 -0.3633 -0.3631
21517SOL    HW265130   8.804   5.851   3.388  0.1191  1.4526  0.6478
21518SOL     OW65131   6.783   8.385   8.710  0.0959 -0.3614  0.4980
21518SOL    HW165132   6.838   8.395   8.787 -0.3262 -0.1758  0.7776
21518SOL    HW265133   6.825   8.439   8.643 -0.3563  0.6806  1.0359
21519SOL     OW65134   2.266   6.439   2.929  0.7618  0.6284  0.0789
21519SOL    HW165135   2.305   6.423   3.015  0.1680  1.1129  0.4485
21519SOL    HW265136   2.326   6.499   2.886  0.5651  1.1579  0.5403
21520SOL     OW65137   5.725   1.931   3.100 -0.3416 -0.0839  0.2329
21520SOL    HW165138   5.682   1.995   3.157  1.1358 -0.6928  2.1606
21520SOL    HW265139   5.665   1.857   3.097 -1.6655  0.9913 -1.3064
21521SOL     OW65140   8.236   9.057   9.513 -0.1742 -0.0823  0.4036
21521SOL    HW165141   8.238   9.014   9.599 -0.7923  1.0019  0.9728
21521SOL    HW265142   8.215   8.986   9.452 -0.1521 -0.7852  1.1878
21522SOL     OW65143   4.869   7.634   8.387  0.0136  0.1797 -0.3638
21522SOL    HW165144   4.829   7.554   8.352  1.3633 -0.1176 -1.2920
21522SOL    HW265145   4.928   7.603   8.456 -0.2643  0.4747  0.0078
21523SOL     OW65146   2.387   4.672   8.523  0.1663 -0.0820 -0.2449
21523SOL    HW165147   2.471   4.677   8.570 -0.5914 -0.3906  1.2292
21523SOL    HW265148   2.409   4.634   8.438  1.4849 -0.4577  0.2379
21524SOL     OW65149   3.143   3.873   1.186  0.2012 -0.3163 -0.2548
21524SOL    HW165150   3.126   3.783   1.157  0.9824 -0.7832  0.6492
21524SOL    HW265151   3.225   3.867   1.235 -0.0494  0.7831  0.3388
21525SOL     OW65152   7.641   2.776   9.689  0.0205 -0.2320 -0.8903
21525SOL    HW165153   7.546   2.771   9.703  0.2626  0.9199  1.8958
21525SOL    HW265154   7.676   2.695   9.726  0.2238  0.1489 -0.2211
21526SOL     OW65155   0.858   7.114   2.808  0.8022 -0.1597 -0.1031
21526SOL    HW165156   0.804   7.191   2.793  1.6746  0.2119 -1.4931
21526SOL    HW265157   0.831   7.082   2.894 -3.5235 -1.5680 -1.7071
21527SOL     OW65158   0.239   9.548   6.064  0.8052  0.1445  0.1479
21527SOL    HW165159   0.293   9.616   6.024  0.9546  0.3869  0.7482
21527SOL    HW265160   0.293   9.469   6.062  0.1140 -0.3424 -1.8395
21528SOL     OW65161   2.588   2.840   3.434 -0.6159 -0.3912  0.1647
21528SOL    HW165162   2.633   2.799   3.508 -0.8565 -0.7128  0.1340
21528SOL    HW265163   2.618   2.790   3.358  1.7706  1.6141 -0.3426
21529SOL     OW65164   4.682   3.497   3.101 -0.0005 -0.1313 -0.3605
21529SOL    HW165165   4.657   3.524   3.012  0.1528 -1.0254 -0.6811
21529SOL    HW265166   4.635   3.559   3.158 -1.4692 -0.5875 -1.0094
21530SOL     OW65167   8.327   3.297   5.561 -0.5738  0.2921  0.1618
21530SOL    HW165168   8.348   3.368   5.621  0.1287 -0.1736  0.4769
21530SOL    HW265169   8.412   3.268   5.528 -0.6846 -1.6483  1.4701
21531SOL     OW65170   3.510   8.646   0.478 -0.0620  0.5598  0.2070
21531SOL    HW165171   3.503   8.667   0.571 -0.8486  0.6298  0.1397
21531SOL    HW265172   3.566   8.568   0.476  0.0773  0.6379  0.7214
21532SOL     OW65173   2.552   2.396   3.315 -0.1401  0.2253 -0.1936
21532SOL    HW165174   2.462   2.400   3.283 -0.9271 -2.8449  1.3134
21532SOL    HW265175   2.603   2.445   3.250 -2.4950 -0.3020 -2.5854
21533SOL     OW65176   7.604   6.061   6.884 -0.0857  0.7732  0.1679
21533SOL    HW165177   7.509   6.055   6.889 -0.1237 -0.2998 -1.1070
21533SOL    HW265178   7.628   5.996   6.818  1.4559  1.7488 -0.2686
21534SOL     OW65179   7.989   7.632   3.333  0.7373 -0.2290  0.2839
21534SOL    HW165180   7.921   7.693   3.361  2.6188  2.1206  0.0787
21534SOL    HW265181   8.005   7.576   3.410 -0.0669  0.4570  0.9641
21535SOL     OW65182   7.536   4.649   9.574 -0.5557 -0.8463  0.6229
21535SOL    HW165183   7.544   4.615   9.485 -0.8514  1.2547 -0.2477
21535SOL    HW265184   7.442   4.665   9.585 -0.4896 -0.8327  1.2321
21536SOL     OW65185   6.552   6.737   1.647  0.4760  0.2731  0.0644
21536SOL    HW165186   6.464   6.758   1.678  0.8777  0.6045  1.0186
21536SOL    HW265187   6.553   6.766   1.556  0.1897  2.0282  0.5876
21537SOL     OW65188   7.554   3.025   7.669  0.2793 -0.1147  0.1235
21537SOL    HW165189   7.523   3.100   7.720  1.5537 -0.4576  1.4395
21537SOL    HW265190   7.590   2.965   7.734 -1.0167 -2.0538 -0.8625
21538SOL     OW65191   5.166   2.284   8.746  0.3405 -0.4044 -0.6675
21538SOL    HW165192   5.163   2.193   8.776 -0.4375 -0.4773 -0.9347
21538SOL    HW265193   5.149   2.336   8.825  0.1804 -0.5196 -0.6246
21539SOL     OW65194   1.984   4.710   0.315  0.8431  0.1580  0.1877
21539SOL    HW165195   2.003   4.659   0.236 -1.9502 -0.6868 -0.0753
21539SOL    HW265196   1.984   4.801   0.286  0.7721 -0.0818 -0.5764
21540SOL     OW65197   0.751   5.101   0.242 -0.8869 -0.3060 -0.5451
21540SOL    HW165198   0.760   5.161   0.167  0.8488 -1.6216 -1.4657
21540SOL    HW265199   0.710   5.154   0.310 -0.8985  1.4568 -1.8458
21541SOL     OW65200   9.939   6.445   2.074 -0.4689 -0.2482 -0.0057
21541SOL    HW165201   9.880   6.511   2.036 -0.6762 -1.1493 -1.3132
21541SOL    HW265202   9.946   6.470   2.166 -0.7154  1.4709 -0.4079
21542SOL     OW65203   6.964   9.540   1.204 -0.8895  0.3818 -0.0585
21542SOL    HW165204   7.036   9.545   1.140  0.9269 -0.9074  1.7313
21542SOL    HW265205   6.892   9.500   1.156  0.6752 -1.2870 -1.1528
21543SOL     OW65206   6.670   4.795   5.359 -0.1590 -0.7273 -0.2390
21543SOL    HW165207   6.724   4.719   5.381  0.3806 -0.4963 -0.7374
21543SOL    HW265208   6.585   4.778   5.400  0.8222 -0.2613  2.1352
21544SOL     OW65209   0.183   2.375   4.000  0.0386  0.6368 -0.1079
21544SOL    HW165210   0.105   2.361   4.053  0.3191  2.3866  0.8355
21544SOL    HW265211   0.221   2.456   4.033  0.9480  1.1143 -2.1518
21545SOL     OW65212   2.489   1.289   5.832  0.2143  0.4610  0.5360
21545SOL    HW165213   2.470   1.310   5.924  0.7585 -2.0274  1.2838
21545SOL    HW265214   2.555   1.220   5.836  0.6341  0.6467 -1.7719
21546SOL     OW65215   6.480   7.989   6.534  0.1350 -0.6194  0.5064
21546SOL    HW165216   6.516   7.912   6.488  0.4269  0.6081 -1.4394
21546SOL    HW265217   6.394   8.003   6.493 -0.7394 -0.9428  2.1236
21547SOL     OW65218   6.648   4.426   1.737  0.0472 -0.2128  0.0574
21547SOL    HW165219   6.600   4.500   1.774 -0.5796 -0.6682  0.1614
21547SOL    HW265220   6.609   4.413   1.651 -0.2248 -0.7763  0.2627
21548SOL     OW65221   6.205   7.025   0.465 -0.5235 -0.0319  0.5046
21548SOL    HW165222   6.253   7.105   0.446 -2.3662  0.8953 -0.5942
21548SOL    HW265223   6.269   6.955   0.457  0.3523  0.9682 -2.5151
21549SOL     OW65224   2.508   2.524   2.424  0.5423  0.2119  1.3235
21549SOL    HW165225   2.526   2.615   2.400  0.3969 -0.1228 -0.1180
21549SOL    HW265226   2.595   2.486   2.441  0.8728 -0.1179 -0.8794
21550SOL     OW65227   8.278   7.561   8.881  0.2940 -0.1409  0.2496
21550SOL    HW165228   8.299   7.471   8.855 -0.6810 -0.2476 -0.2299
21550SOL    HW265229   8.256   7.604   8.799 -0.1059  0.2944  0.5841
21551SOL     OW65230   6.226   4.662   0.901  0.2382  0.0047  0.1463
21551SOL    HW165231   6.169   4.585   0.903 -1.1535  1.0015  0.2671
21551SOL    HW265232   6.195   4.714   0.827  1.9007 -0.0671 -0.6448
21552SOL     OW65233   2.412   1.920   6.620 -0.0379  0.1210  0.1934
21552SOL    HW165234   2.449   1.936   6.533 -0.7914 -0.9391 -0.3438
21552SOL    HW265235   2.462   1.977   6.678  0.7398  0.5639 -0.8763
21553SOL     OW65236   1.848   6.017   2.991 -0.4871  0.2103  0.3866
21553SOL    HW165237   1.865   6.062   2.908 -0.2558 -0.1378  0.2438
21553SOL    HW265238   1.909   5.943   2.991  0.3295  0.8586  1.3849
21554SOL     OW65239   1.648   6.052   6.743  0.2459 -0.1693 -0.3176
21554SOL    HW165240   1.644   6.119   6.811 -0.2359  1.4228 -1.8421
21554SOL    HW265241   1.728   6.071   6.694 -1.2962  1.2204 -2.5398
21555SOL     OW65242   1.406   9.450   3.742 -0.0668 -0.2871  0.1868
21555SOL    HW165243   1.400   9.522   3.679 -0.3464 -0.0664  0.4610
21555SOL    HW265244   1.489   9.464   3.788 -0.9879  0.9889  1.5771
21556SOL     OW65245   3.986   5.551   2.041 -0.6354 -0.0921  0.0437
21556SOL    HW165246   4.021   5.562   1.952 -1.8114  0.3831 -0.3798
21556SOL    HW265247   3.937   5.631   2.058 -0.3301 -0.1260  1.1801
21557SOL     OW65248   5.742   4.592   9.693 -0.1284 -0.2910  0.4756
21557SOL    HW165249   5.722   4.524   9.757  0.8635  0.0803  1.2024
21557SOL    HW265250   5.708   4.557   9.610 -1.7554 -0.6177  1.2458
21558SOL     OW65251   9.386   2.171   0.916 -0.8095  0.7896  0.3212
21558SOL    HW165252   9.367   2.240   0.853  0.4023  2.2052  1.4297
21558SOL    HW265253   9.324   2.186   0.988  0.5846  1.8398  1.3430
21559SOL     OW65254   1.579   3.168   4.552 -0.6738  0.0869  0.4975
21559SOL    HW165255   1.513   3.231   4.523 -0.8216 -0.0581  0.5153
21559SOL    HW265256   1.652   3.179   4.491 -0.9332 -0.1316  0.1410
21560SOL     OW65257   2.612   3.185   2.321 -0.0652 -0.6039 -0.5045
21560SOL    HW165258   2.584   3.250   2.257  1.1740  0.4954  0.0379
21560SOL    HW265259   2.651   3.115   2.268  0.7552  0.1976 -0.9817
21561SOL     OW65260   7.793   0.845   5.384  0.4175 -0.9737 -0.1238
21561SOL    HW165261   7.712   0.795   5.384 -0.1119 -0.1514  0.1413
21561SOL    HW265262   7.825   0.840   5.294  0.3212 -1.6983 -0.1166
21562SOL     OW65263   3.707   6.701   7.819  0.1760  0.1857  0.1964
21562SOL    HW165264   3.788   6.737   7.782  0.0766  0.9197  0.6620
21562SOL    HW265265   3.659   6.666   7.744  0.3364  0.9304 -0.2616
21563SOL     OW65266   3.430   0.321   4.280  0.4162  0.2515  0.0240
21563SOL    HW165267   3.472   0.406   4.294 -1.0997  0.7762  1.8051
21563SOL    HW265268   3.498   0.257   4.304  0.7325  1.0446  1.3870
21564SOL     OW65269   3.849   3.459   7.832  0.1179 -0.1542  0.3436
21564SOL    HW165270   3.882   3.519   7.898  1.8617  0.4991 -1.0527
21564SOL    HW265271   3.900   3.478   7.753 -0.9874 -1.7803 -0.8503
21565SOL     OW65272   1.874   9.296   8.495  0.2999  0.4195 -0.0206
21565SOL    HW165273   1.871   9.315   8.402 -1.9926 -0.3100 -0.1640
21565SOL    HW265274   1.793   9.248   8.512  1.1396 -0.3387  2.1627
21566SOL     OW65275   5.327   3.906   2.297  0.1719  0.4896 -0.0093
21566SOL    HW165276   5.320   3.817   2.332  1.1323  0.5012  0.2556
21566SOL    HW265277   5.391   3.949   2.354  0.5639  0.9966 -0.8119
21567SOL     OW65278   0.542   4.584   6.248 -0.1481 -0.1355 -0.3603
21567SOL    HW165279   0.527   4.492   6.230 -1.7830 -0.1490  0.8900
21567SOL    HW265280   0.514   4.629   6.167  1.6600 -0.7369 -1.3871
21568SOL     OW65281   5.298   9.153   0.527  0.4415  0.4933  0.2082
21568SOL    HW165282   5.365   9.109   0.475  0.1790 -1.4804  1.4527
21568SOL    HW265283   5.347   9.213   0.583  0.9939  0.2886 -0.0522
21569SOL     OW65284   0.713   5.258   3.449 -0.4632  0.2432 -0.0290
21569SOL    HW165285   0.805   5.240   3.470 -0.6256  0.6006  1.0163
21569SOL    HW265286   0.667   5.178   3.475 -0.2581 -0.6911 -2.2449
21570SOL     OW65287   4.434   6.762   4.334  0.6239  0.0223  0.0664
21570SOL    HW165288   4.432   6.777   4.428  2.3536 -0.8024  0.2756
21570SOL    HW265289   4.407   6.671   4.323 -0.1150  0.2753 -0.3047
21571SOL     OW65290   3.576   3.694   7.122 -0.0066 -0.1768 -0.0889
21571SOL    HW165291   3.643   3.626   7.130  0.8013  0.4037 -1.5413
21571SOL    HW265292   3.622   3.775   7.145  0.1723  0.3914 -2.2217
21572SOL     OW65293   7.601   8.033   1.345  0.1426 -0.0889  0.0706
21572SOL    HW165294   7.634   8.123   1.338 -1.3655  0.3591 -3.4358
21572SOL    HW265295   7.679   7.979   1.331  0.8249  0.6966  0.7120
21573SOL     OW65296   9.326   5.556   7.483  0.2602 -0.8864 -0.0580
21573SOL    HW165297   9.252   5.526   7.431  0.1980 -0.1676 -0.4018
21573SOL    HW265298   9.288   5.580   7.568  0.1305 -0.7198 -0.1618
21574SOL     OW65299   5.776   3.149   6.114  0.6347 -0.3570 -0.6018
21574SOL    HW165300   5.697   3.128   6.164  0.2068 -0.0793 -1.1365
21574SOL    HW265301   5.812   3.226   6.156  0.7635 -0.6390 -0.1965
21575SOL     OW65302   9.194   7.006   8.636 -0.4038 -0.9011  0.6280
21575SOL    HW165303   9.211   7.095   8.667  3.2098 -1.1481 -0.2465
21575SOL    HW265304   9.174   7.016   8.543  0.2323 -1.0061  0.4775
21576SOL     OW65305   9.353   7.920   0.839  0.2119  0.0370 -0.2913
21576SOL    HW165306   9.437   7.879   0.860 -0.7379 -2.3018 -0.7997
21576SOL    HW265307   9.305   7.920   0.922  0.6504  1.3131 -0.0157
21577SOL     OW65308   2.084   1.901   0.430  0.3252  0.1478 -0.1302
21577SOL    HW165309   2.004   1.851   0.418 -0.5214  1.2198  0.7996
21577SOL    HW265310   2.055   1.984   0.470  1.9450  0.2706  0.8995
21578SOL     OW65311   0.326   8.303   6.668  0.7726 -0.4551  0.3308
21578SOL    HW165312   0.238   8.300   6.707  0.3965 -1.6032 -0.5543
21578SOL    HW265313   0.351   8.396   6.673 -0.2355 -0.1998  1.1213
21579SOL     OW65314   2.352   9.247   9.008  0.2101  0.5728 -0.2566
21579SOL    HW165315   2.388   9.262   8.921  1.6236 -1.7769 -0.1638
21579SOL    HW265316   2.263   9.213   8.993  1.3052 -2.2314 -1.0090
21580SOL     OW65317   3.682   1.673   7.531  0.1032 -0.1666  0.3603
21580SOL    HW165318   3.740   1.661   7.606  0.6954 -1.9514 -0.3381
21580SOL    HW265319   3.600   1.631   7.557  0.5551 -1.4626 -0.2439
21581SOL     OW65320   7.266   4.613   2.174 -0.2430 -0.0040 -0.3597
21581SOL    HW165321   7.260   4.702   2.209 -1.9701  0.5092 -1.7850
21581SOL    HW265322   7.217   4.617   2.092 -0.4031 -2.2896 -0.4311
21582SOL     OW65323   3.953   6.400   9.032 -0.2789 -0.1429  0.7718
21582SOL    HW165324   3.951   6.423   8.939 -1.8144 -2.3540  0.1728
21582SOL    HW265325   4.004   6.319   9.036  2.1717  1.3361  2.3286
21583SOL     OW65326   3.908   4.058   6.577 -0.1666  0.4977 -0.1946
21583SOL    HW165327   3.837   4.036   6.517 -0.5440 -0.6563  0.6450
21583SOL    HW265328   3.880   4.139   6.620 -0.4249  0.6929 -0.7246
21584SOL     OW65329   4.628   2.789   9.246  0.3057 -0.0515  0.0579
21584SOL    HW165330   4.622   2.740   9.328 -2.6944 -0.3451 -0.2270
21584SOL    HW265331   4.720   2.818   9.242  1.5294 -3.2414  1.5907
21585SOL     OW65332   7.956   4.525   8.317  0.0393 -0.4371  0.1186
21585SOL    HW165333   7.960   4.474   8.235 -0.3139  0.1244 -0.2585
21585SOL    HW265334   8.020   4.595   8.304 -2.1053  1.4483 -0.9602
21586SOL     OW65335   9.301   8.549   4.784 -0.7741 -0.0728 -0.0465
21586SOL    HW165336   9.326   8.614   4.849 -1.2609 -0.3386  0.4066
21586SOL    HW265337   9.261   8.599   4.713  2.7361  0.6504 -1.7533
21587SOL     OW65338   5.965   1.914   5.418 -0.1098 -0.0365  0.0106
21587SOL    HW165339   5.905   1.929   5.491  0.1224 -2.2028  0.7325
21587SOL    HW265340   5.910   1.876   5.350  0.3093 -1.6146  0.5134
21588SOL     OW65341   1.146   1.824   6.095 -0.3856 -0.2584 -0.2144
21588SOL    HW165342   1.072   1.885   6.101  0.1846  0.2853  2.2187
21588SOL    HW265343   1.116   1.746   6.141  0.0970 -0.5443 -0.3848
21589SOL     OW65344   0.864   2.869   5.110 -0.3262  0.1255 -0.9481
21589SOL    HW165345   0.943   2.820   5.084 -1.8438 -1.7087 -2.3686
21589SOL    HW265346   0.805   2.802   5.143 -1.1223  1.5577  0.6841
21590SOL     OW65347   0.492   2.742   6.131 -0.3266  0.3746  0.7724
21590SOL    HW165348   0.548   2.771   6.203  0.6822  0.6599 -0.1103
21590SOL    HW265349   0.470   2.651   6.153 -2.1065  1.1638  2.6909
21591SOL     OW65350   4.818   9.544   3.116  0.1864 -0.8043 -0.0859
21591SOL    HW165351   4.897   9.532   3.063  0.2838  1.4235 -0.5313
21591SOL    HW265352   4.852   9.572   3.202 -0.1045 -0.1761 -0.1745
21592SOL     OW65353   0.103   0.554   7.348 -0.7111  0.1554 -0.6101
21592SOL    HW165354   0.016   0.593   7.345 -0.8423 -0.1632 -1.0161
21592SOL    HW265355   0.156   0.607   7.289 -0.1001  1.5845  1.1122
21593SOL     OW65356   6.998   6.009   3.311 -0.3869 -0.3355  0.2078
21593SOL    HW165357   7.037   5.930   3.274  0.2388  1.0280 -2.1978
21593SOL    HW265358   7.060   6.037   3.378  0.8636 -0.3208 -0.9195
21594SOL     OW65359   6.192   1.345   1.530 -0.0665 -0.0782 -0.3972
21594SOL    HW165360   6.113   1.377   1.574  0.7809 -0.4919  1.5656
21594SOL    HW265361   6.264   1.391   1.574  0.8669 -0.9538 -0.9662
21595SOL     OW65362   2.451   4.081   1.542 -0.1593 -0.0509  0.5302
21595SOL    HW165363   2.483   4.069   1.452  0.8270 -0.1612  0.8864
21595SOL    HW265364   2.472   3.999   1.586 -1.1784 -0.2201  0.7123
21596SOL     OW65365   6.966   1.346   6.030  0.4460 -0.4183 -0.5858
21596SOL    HW165366   7.010   1.413   5.977 -2.3653  2.3641  0.2892
21596SOL    HW265367   6.926   1.287   5.966  1.4633 -0.2104 -1.4302
21597SOL     OW65368   7.059   1.554   5.049  0.5170 -0.1318  0.0423
21597SOL    HW165369   6.971   1.517   5.064  0.5094  0.3106  1.1574
21597SOL    HW265370   7.104   1.487   4.999  0.4452 -1.6366  1.8704
21598SOL     OW65371   2.867   5.449   8.885 -0.0867 -0.1747 -0.6727
21598SOL    HW165372   2.937   5.513   8.870 -0.8794  0.8303 -0.2404
21598SOL    HW265373   2.886   5.412   8.971  1.2977 -1.7797 -1.6120
21599SOL     OW65374   1.570   5.835   3.755  0.1078 -0.4038  0.4068
21599SOL    HW165375   1.541   5.863   3.842  1.6349 -0.7589  1.0670
21599SOL    HW265376   1.624   5.907   3.724 -1.6968  0.4262 -0.9733
21600SOL     OW65377   7.469   0.683   5.042  0.2516  0.2217  0.5651
21600SOL    HW165378   7.460   0.736   5.121 -0.6803 -0.0435  0.6538
21600SOL    HW265379   7.525   0.610   5.068 -1.8780 -1.1426  1.7199
21601SOL     OW65380   9.084   7.760   6.977 -0.6135 -0.9228  0.2271
21601SOL    HW165381   9.096   7.854   6.985 -0.8708 -0.6697 -1.8767
21601SOL    HW265382   9.024   7.737   7.049 -1.6905  0.7581 -0.0815
21602SOL     OW65383   1.926   4.033   3.782 -0.1775  0.1345  0.0062
21602SOL    HW165384   1.976   4.098   3.733  2.0317 -1.1871  0.3669
21602SOL    HW265385   1.991   3.988   3.835 -1.7914 -1.6407  0.5884
21603SOL     OW65386   8.484   1.328   2.024 -0.4595 -0.4340 -0.2278
21603SOL    HW165387   8.415   1.286   1.973 -1.0805  0.0737  0.1740
21603SOL    HW265388   8.438   1.368   2.098  0.3332 -0.5696  0.3594
21604SOL     OW65389   8.533   3.425   0.005 -0.4486 -0.6683  0.1697
21604SOL    HW165390   8.578   3.375   0.073 -0.9007 -2.0832 -0.5484
21604SOL    HW265391   8.466   3.474   0.053 -2.6501 -3.7524  0.5511
21605SOL     OW65392   4.095   9.853   9.512  0.6609  0.1902  0.2039
21605SOL    HW165393   4.044   9.791   9.460 -0.9844 -0.6451  2.6548
21605SOL    HW265394   4.115   9.924   9.452  0.3367 -1.4670 -1.9943
21606SOL     OW65395   0.913   2.919   9.580 -0.4704  0.0074  0.4260
21606SOL    HW165396   0.924   2.829   9.549 -1.4253 -0.1245  0.4236
21606SOL    HW265397   0.961   2.972   9.518  2.6832 -0.7002  2.0703
21607SOL     OW65398   7.317   8.322   5.032  0.0484  0.1526  0.2421
21607SOL    HW165399   7.378   8.358   5.096  0.6028 -0.4348  0.0459
21607SOL    HW265400   7.253   8.274   5.084  0.3573 -0.1185  0.3694
21608SOL     OW65401   7.210   8.233   5.961  0.6336 -0.1668 -0.1555
21608SOL    HW165402   7.256   8.304   6.005  1.0019 -0.2669 -0.3745
21608SOL    HW265403   7.256   8.154   5.988 -0.1077 -0.3747  0.5077
21609SOL     OW65404   8.169   8.175   2.866 -0.1583  0.6496  0.0733
21609SOL    HW165405   8.219   8.093   2.872  1.2931  1.2483 -2.3142
21609SOL    HW265406   8.214   8.235   2.926  1.0386  0.7018 -0.8442
21610SOL     OW65407   1.979   4.369   3.023  0.3628  0.1667  0.8289
21610SOL    HW165408   2.050   4.304   3.017  1.0202  0.8662  0.8821
21610SOL    HW265409   1.928   4.340   3.099  0.0073 -0.9014  0.2011
21611SOL     OW65410   8.885   8.244   4.452  0.4871 -0.7716  0.0862
21611SOL    HW165411   8.807   8.225   4.399  0.4344  0.8888 -0.4804
21611SOL    HW265412   8.956   8.199   4.406  0.0348 -1.4495  0.0359
21612SOL     OW65413   2.325   6.598   1.574 -0.0509 -0.6589 -0.0212
21612SOL    HW165414   2.305   6.673   1.630  1.4152 -1.1254  1.2013
21612SOL    HW265415   2.400   6.627   1.521 -0.0050 -0.9829 -0.1392
21613SOL     OW65416   6.889   0.027   7.214 -0.1738  0.4121 -0.0600
21613SOL    HW165417   6.824  -0.038   7.239  1.2261 -0.3745  1.8021
21613SOL    HW265418   6.889   0.026   7.118 -2.3798 -0.0141 -0.1036
21614SOL     OW65419   5.784   8.921   7.188 -0.0201  0.2069 -0.2792
21614SOL    HW165420   5.785   8.857   7.117  1.3651 -2.0438  1.6194
21614SOL    HW265421   5.876   8.929   7.215 -0.2739  2.3526  0.1399
21615SOL     OW65422   4.312   3.994   5.210 -0.3161 -0.5121 -0.0470
21615SOL    HW165423   4.358   3.993   5.126 -0.9907  1.0349 -0.4847
21615SOL    HW265424   4.244   4.061   5.199 -0.3356 -0.1740  1.7731
21616SOL     OW65425   4.500   8.868   7.295 -0.4265  0.3978 -0.2026
21616SOL    HW165426   4.484   8.905   7.382 -2.2640  0.3106 -0.4551
21616SOL    HW265427   4.549   8.788   7.312 -0.4985  0.5351  0.7276
21617SOL     OW65428   4.333   0.648   7.344 -0.0481 -0.2764 -0.2777
21617SOL    HW165429   4.310   0.653   7.437 -2.4266 -2.1259 -0.6812
21617SOL    HW265430   4.253   0.673   7.298  0.3676 -1.6423 -1.8218
21618SOL     OW65431   6.605   5.840   7.797 -0.1754 -0.7314  0.0351
21618SOL    HW165432   6.554   5.909   7.753  0.5877 -0.4390 -0.4174
21618SOL    HW265433   6.601   5.863   7.890  0.9287  0.5402 -0.1947
21619SOL     OW65434   9.354   8.174   1.431  0.0156  0.2325 -0.3588
21619SOL    HW165435   9.285   8.224   1.388 -0.8065  2.5781  3.1907
21619SOL    HW265436   9.435   8.223   1.413 -0.3477  1.2901  0.7306
21620SOL     OW65437   0.315   1.739   5.542  0.0859 -0.7592  0.4892
21620SOL    HW165438   0.238   1.697   5.580 -0.7724  0.4083  0.1116
21620SOL    HW265439   0.360   1.669   5.495 -2.1922 -0.9915 -1.5609
21621SOL     OW65440   9.343   6.485   9.203  0.5517  0.1557 -0.4647
21621SOL    HW165441   9.264   6.537   9.185  0.6613  0.4552 -0.0934
21621SOL    HW265442   9.411   6.550   9.218  0.4665 -0.0729  1.0265
21622SOL     OW65443   2.210   4.856   3.138 -0.1950 -0.3434  0.4859
21622SOL    HW165444   2.198   4.931   3.196 -1.1312  0.0471 -0.1698
21622SOL    HW265445   2.226   4.782   3.196  2.5288  0.6268  1.1070
21623SOL     OW65446   9.348   2.711   6.672  0.4545  0.3025 -0.1944
21623SOL    HW165447   9.354   2.681   6.763 -0.6732 -0.8994 -0.4854
21623SOL    HW265448   9.254   2.723   6.657  0.4880 -0.9155 -1.6018
21624SOL     OW65449   3.640   2.657   6.156 -0.2067 -0.2999 -0.2399
21624SOL    HW165450   3.560   2.702   6.130 -0.0519 -1.0170 -2.1513
21624SOL    HW265451   3.698   2.666   6.080  1.9990  1.1986  1.5004
21625SOL     OW65452   9.626   3.721   6.242 -0.2434  0.7248  0.4210
21625SOL    HW165453   9.589   3.654   6.185  0.6100  0.3318  0.3260
21625SOL    HW265454   9.709   3.744   6.201  1.3401 -0.9488  2.4995
21626SOL     OW65455   8.425   9.828   3.380 -0.3355 -0.3867 -0.6575
21626SOL    HW165456   8.454   9.827   3.471 -0.2664 -0.8748 -0.6793
21626SOL    HW265457   8.383   9.742   3.368 -0.6920 -0.1695 -0.9724
21627SOL     OW65458   9.839   7.129   1.835  0.0145 -0.1144  0.0111
21627SOL    HW165459   9.774   7.144   1.903 -1.5818  0.9709 -1.6461
21627SOL    HW265460   9.921   7.112   1.882 -0.7231  1.8434  2.1729
21628SOL     OW65461   6.317   2.168   7.484 -0.2065 -0.9550 -0.2168
21628SOL    HW165462   6.402   2.190   7.446 -1.1792 -1.0228 -2.5804
21628SOL    HW265463   6.259   2.238   7.456 -0.8442 -0.5742  1.8940
21629SOL     OW65464   9.755   4.142   0.643  0.4333  0.2908  0.8338
21629SOL    HW165465   9.810   4.107   0.573  1.0670 -1.7388  2.2469
21629SOL    HW265466   9.728   4.228   0.612 -3.1379 -2.0731 -4.0485
21630SOL     OW65467   8.138   3.451   5.052  0.2289 -0.0382 -0.6345
21630SOL    HW165468   8.158   3.481   5.140 -1.3769 -0.9033  0.0632
21630SOL    HW265469   8.057   3.497   5.028  0.2188 -0.3983 -1.3418
21631SOL     OW65470   1.139   2.679   1.792 -0.8725  0.1083 -0.7219
21631SOL    HW165471   1.178   2.696   1.706 -1.4873  0.6260 -0.9059
21631SOL    HW265472   1.162   2.757   1.844  0.0572 -0.4870 -0.1986
21632SOL     OW65473   6.405   9.322   4.061  0.1908  0.2437  0.0087
21632SOL    HW165474   6.477   9.285   4.111  1.3611 -0.1304 -1.8395
21632SOL    HW265475   6.448   9.368   3.988 -1.3992  1.0823 -0.4470
21633SOL     OW65476   9.221   9.920   8.004  0.1269 -0.1028  1.0148
21633SOL    HW165477   9.181  10.007   8.006  1.5283  0.5669  1.5182
21633SOL    HW265478   9.269   9.914   8.087  2.3462 -0.1952 -0.1780
21634SOL     OW65479   6.129   2.739   0.046  0.0313  0.1597  0.0837
21634SOL    HW165480   6.079   2.733  -0.036 -2.0441  1.4586  1.1691
21634SOL    HW265481   6.079   2.686   0.108  0.2768  1.1016  1.0950
21635SOL     OW65482   1.725   9.003   7.404 -0.0840  0.4726 -0.0635
21635SOL    HW165483   1.742   8.914   7.372 -0.4995  0.7193 -0.9968
21635SOL    HW265484   1.650   8.994   7.463 -0.8688  0.3693 -1.0588
21636SOL     OW65485   7.619   1.015   3.684  0.4421 -0.2502  0.1910
21636SOL    HW165486   7.605   1.107   3.662 -2.0628 -0.0762  2.1018
21636SOL    HW265487   7.545   0.969   3.645  0.9775 -1.2721  0.3497
21637SOL     OW65488   5.417   3.208   6.806 -0.4017 -0.1851 -0.1650
21637SOL    HW165489   5.324   3.209   6.785 -0.3825  0.6977 -0.2448
21637SOL    HW265490   5.446   3.120   6.783 -0.7608  0.1784 -2.2523
21638SOL     OW65491   6.352   4.164   7.440  0.0374  0.8476  0.0508
21638SOL    HW165492   6.443   4.193   7.441  0.4882 -0.3683 -1.3579
21638SOL    HW265493   6.336   4.141   7.348 -1.4700  0.3792  0.4142
21639SOL     OW65494   9.317   9.260   3.367 -0.4101 -0.4189 -0.0906
21639SOL    HW165495   9.409   9.266   3.392 -0.6510 -0.9270  0.9369
21639SOL    HW265496   9.307   9.327   3.299  0.4692  0.3850  0.5389
21640SOL     OW65497   1.669   5.252   3.492 -0.3618 -0.0593  0.0472
21640SOL    HW165498   1.650   5.203   3.573 -0.9184 -0.7527 -0.4912
21640SOL    HW265499   1.721   5.192   3.439 -1.3650 -0.2455 -0.7757
21641SOL     OW65500   5.008   6.971   7.795  0.4915  0.6332 -0.4482
21641SOL    HW165501   5.024   6.928   7.711 -0.0448 -0.7587  0.1333
21641SOL    HW265502   4.925   6.935   7.825  0.3396  1.6306  0.3715
21642SOL     OW65503   8.975   0.367   0.078  0.2983 -0.3344  0.2492
21642SOL    HW165504   9.023   0.328   0.151 -0.1555  0.4600  0.9897
21642SOL    HW265505   8.933   0.445   0.115 -0.4410 -0.2524 -0.7097
21643SOL     OW65506   5.831   9.001   2.249 -0.3454 -0.6116  0.5517
21643SOL    HW165507   5.875   9.026   2.330 -1.9978 -1.4556  1.7813
21643SOL    HW265508   5.770   8.932   2.276 -0.6887 -1.1594 -1.4863
21644SOL     OW65509   1.355   8.112   4.736 -0.1355  0.5271  0.2590
21644SOL    HW165510   1.327   8.181   4.797 -0.4714  1.4949 -0.9587
21644SOL    HW265511   1.438   8.145   4.701 -0.2948  0.3026 -0.3257
21645SOL     OW65512   5.410   8.785   3.161 -0.5519  0.2088 -0.6000
21645SOL    HW165513   5.427   8.874   3.189  0.0207  0.0787 -0.5232
21645SOL    HW265514   5.336   8.756   3.215 -0.1587  0.3308  0.0132
21646SOL     OW65515   7.496   9.579   1.638  1.1460 -0.5797  0.1788
21646SOL    HW165516   7.539   9.606   1.557  0.1964  0.1168 -0.1102
21646SOL    HW265517   7.476   9.486   1.625  0.0209 -0.2226 -0.8576
21647SOL     OW65518   5.899   5.832   8.020  0.2327  0.1623  0.0396
21647SOL    HW165519   5.982   5.787   8.036  1.6344  3.1797  2.3150
21647SOL    HW265520   5.833   5.764   8.028  2.3116 -1.9108  0.7694
21648SOL     OW65521   4.324   3.606   3.315 -0.1066 -0.4979  0.5590
21648SOL    HW165522   4.417   3.614   3.334 -0.0863 -1.2583  0.8186
21648SOL    HW265523   4.288   3.693   3.331  0.6679 -0.0256 -0.2001
21649SOL     OW65524   6.123   1.256   7.118 -0.1024 -0.2536  0.1258
21649SOL    HW165525   6.179   1.208   7.057 -0.0819 -1.5022  1.0990
21649SOL    HW265526   6.180   1.277   7.192 -0.2238  0.9333 -0.0907
21650SOL     OW65527   7.173   2.217   0.556 -0.2004 -0.0952  0.0471
21650SOL    HW165528   7.160   2.237   0.648 -1.0432  0.2770 -0.1388
21650SOL    HW265529   7.220   2.293   0.521 -0.3079 -0.0178  0.0707
21651SOL     OW65530   8.264   8.310   9.577  0.1027 -0.0190  0.3185
21651SOL    HW165531   8.312   8.290   9.497  0.6007 -1.0571  0.8425
21651SOL    HW265532   8.181   8.347   9.548  0.1613 -0.6511 -0.6817
21652SOL     OW65533   4.785   2.654   2.157  0.1094 -0.0249 -0.1820
21652SOL    HW165534   4.697   2.627   2.182 -0.1160 -0.2794 -1.1864
21652SOL    HW265535   4.842   2.622   2.227 -0.4280 -1.1066 -0.2262
21653SOL     OW65536   5.884   2.090   2.291  0.1946 -0.3797 -0.0972
21653SOL    HW165537   5.826   2.014   2.290 -0.0435 -0.1972 -1.2443
21653SOL    HW265538   5.971   2.054   2.275 -0.0593 -0.3221 -1.7545
21654SOL     OW65539   8.563   4.288   9.053  0.1217 -0.3218 -0.1091
21654SOL    HW165540   8.645   4.307   9.099 -0.6219  0.8004  0.7998
21654SOL    HW265541   8.551   4.194   9.064  1.2268 -0.4878 -0.1708
21655SOL     OW65542   8.046   9.352   7.962  0.2546  0.4630 -0.3174
21655SOL    HW165543   8.043   9.257   7.972  0.2001  0.5007  0.0479
21655SOL    HW265544   8.071   9.384   8.049 -0.5526  0.8288 -0.2095
21656SOL     OW65545   9.588   7.406   0.065 -0.2124 -0.5997  0.6614
21656SOL    HW165546   9.535   7.485   0.055 -1.8604 -1.7596 -0.2852
21656SOL    HW265547   9.667   7.424   0.014 -0.3656  0.6041  0.8283
21657SOL     OW65548   9.724   9.840   0.036  0.0900 -0.0640  0.3247
21657SOL    HW165549   9.678   9.802  -0.039 -1.0054 -1.0458  1.4389
21657SOL    HW265550   9.681   9.924   0.051  0.8682  0.5336 -0.6201
21658SOL     OW65551   9.160   7.718   4.763  0.0213  0.2445  0.3432
21658SOL    HW165552   9.074   7.715   4.721 -1.1710  0.1927  2.6843
21658SOL    HW265553   9.164   7.804   4.804  0.3258 -0.4132  1.7526
21659SOL     OW65554   0.051   6.879   4.358  0.3144 -0.2232  0.1710
21659SOL    HW165555   0.142   6.904   4.344  0.7123 -2.2294 -1.3834
21659SOL    HW265556   0.054   6.817   4.431  0.0122  0.6171  0.9046
21660SOL     OW65557   2.676   7.751   5.274  0.0347  0.1016 -0.1404
21660SOL    HW165558   2.670   7.744   5.179 -0.1614  1.2625 -0.2227
21660SOL    HW265559   2.741   7.685   5.299  1.5336  1.0785 -1.2786
21661SOL     OW65560   3.356   2.090   5.897  0.1184 -0.2253  0.1233
21661SOL    HW165561   3.428   2.063   5.841  2.0501  1.8551  1.4523
21661SOL    HW265562   3.301   2.146   5.842 -1.1882 -2.6249 -1.1928
21662SOL     OW65563   2.971   4.857   3.423 -0.2157  0.0133 -0.2107
21662SOL    HW165564   2.990   4.767   3.398 -0.5913  0.3280 -1.7371
21662SOL    HW265565   2.876   4.866   3.409 -0.9510 -0.4148  3.5443
21663SOL     OW65566   1.877   6.622   7.720 -0.1606 -0.2638 -0.3560
21663SOL    HW165567   1.904   6.638   7.630 -0.6919 -0.7460 -0.6033
21663SOL    HW265568   1.956   6.591   7.764 -0.0132 -0.4821 -0.7729
21664SOL     OW65569   2.030   1.611   0.736  0.3675  0.1417 -0.3989
21664SOL    HW165570   2.046   1.530   0.688 -1.5738 -1.9235  2.1107
21664SOL    HW265571   1.946   1.642   0.703 -0.5609 -0.8278  0.9251
21665SOL     OW65572   6.505   4.385   5.435 -0.5036  0.2067  0.2128
21665SOL    HW165573   6.486   4.291   5.438 -0.2011  0.1187 -0.5005
21665SOL    HW265574   6.438   4.421   5.378 -0.5410  0.4087  0.3844
21666SOL     OW65575   0.464   7.020   0.088  0.2716  0.0292 -0.4675
21666SOL    HW165576   0.484   7.060   0.003  0.3630 -0.6013 -0.7549
21666SOL    HW265577   0.530   6.951   0.097  1.0137  0.8499  0.6679
21667SOL     OW65578   6.432   8.678   2.091 -0.5579 -0.2248  0.2023
21667SOL    HW165579   6.493   8.604   2.088  1.3230  1.2519 -2.9741
21667SOL    HW265580   6.433   8.705   2.183  2.4964 -1.2123  0.5993
21668SOL     OW65581   4.454   6.555   5.657  0.1593 -0.0037 -0.3391
21668SOL    HW165582   4.403   6.486   5.700  0.8744  0.6962  1.7521
21668SOL    HW265583   4.438   6.633   5.711  1.6440  0.7639 -0.9684
21669SOL     OW65584   4.588   6.753   8.422 -0.2068  0.3539  0.6173
21669SOL    HW165585   4.526   6.734   8.352 -1.7827  0.6690  1.8573
21669SOL    HW265586   4.588   6.675   8.476  1.9706 -0.3996 -0.3363
21670SOL     OW65587   6.134   4.388   9.141  0.1567  0.0783  0.2249
21670SOL    HW165588   6.206   4.348   9.190 -0.0916  0.1979  0.6888
21670SOL    HW265589   6.177   4.432   9.067  0.6200  0.6718  0.8366
21671SOL     OW65590   2.473   9.093   8.372 -0.3556 -0.0354 -0.0038
21671SOL    HW165591   2.476   9.080   8.277  0.6380  1.3696 -0.2100
21671SOL    HW265592   2.388   9.135   8.387  0.5850  2.3070 -0.7138
21672SOL     OW65593   1.977   2.633   1.129 -0.3609 -0.1034  0.1265
21672SOL    HW165594   2.023   2.636   1.213  1.9384 -0.0772 -1.0328
21672SOL    HW265595   1.988   2.720   1.092 -2.8897  0.4392  0.4826
21673SOL     OW65596   2.269   9.303   9.300 -0.2996  0.4544 -0.0058
21673SOL    HW165597   2.191   9.248   9.314  0.6208 -0.5816  1.3616
21673SOL    HW265598   2.314   9.262   9.226  0.3540 -0.6537  0.9740
21674SOL     OW65599   9.471   4.827   6.275 -0.0041  0.0284 -0.0153
21674SOL    HW165600   9.564   4.846   6.260  0.8128 -3.5624 -0.4350
21674SOL    HW265601   9.457   4.848   6.367  1.8523 -1.2682  0.6282
21675SOL     OW65602   3.637   1.810   8.649  0.3983 -0.7227 -0.5705
21675SOL    HW165603   3.605   1.806   8.739  0.8249 -1.3897 -0.4367
21675SOL    HW265604   3.727   1.778   8.655  1.0507  0.9342 -0.9549
21676SOL     OW65605   8.696   5.308   5.664  0.0767 -0.0743  0.1154
21676SOL    HW165606   8.621   5.362   5.643 -0.5558  0.8254  3.9261
21676SOL    HW265607   8.670   5.258   5.742  2.1523 -2.6358 -0.6547
21677SOL     OW65608   5.467   2.436   1.511  0.3244  0.0322 -0.4427
21677SOL    HW165609   5.442   2.498   1.580  0.4022 -1.6726  1.1920
21677SOL    HW265610   5.383   2.402   1.479  0.3214 -0.2392 -0.1544
21678SOL     OW65611   0.886   3.895   3.120  0.1920  0.4327  0.4796
21678SOL    HW165612   0.944   3.823   3.145 -0.4083  0.3387  1.6847
21678SOL    HW265613   0.804   3.852   3.095  0.5590  0.5716 -1.0729
21679SOL     OW65614   6.202   4.189   6.040  0.0928 -0.4391  0.4502
21679SOL    HW165615   6.192   4.144   5.956  2.6260  0.4765 -0.4467
21679SOL    HW265616   6.113   4.199   6.073 -0.8741 -2.0131 -1.4725
21680SOL     OW65617   6.786   1.332   9.869 -0.0957 -0.0558  0.2162
21680SOL    HW165618   6.732   1.339   9.948 -0.2767  0.5651  0.0417
21680SOL    HW265619   6.762   1.248   9.831  0.9143 -0.9508  1.4983
21681SOL     OW65620   1.446   9.863   5.144  0.3320  0.4044 -0.0010
21681SOL    HW165621   1.485   9.938   5.099  1.4015 -0.3089 -0.3182
21681SOL    HW265622   1.521   9.806   5.165 -0.4229 -0.4632  0.4312
21682SOL     OW65623   1.611   7.458   7.181  0.7070  0.8256 -0.0695
21682SOL    HW165624   1.669   7.525   7.145  1.4960  0.0571 -0.2367
21682SOL    HW265625   1.667   7.404   7.237 -0.4967  2.0843  2.5322
21683SOL     OW65626   5.774   4.761   8.799  0.6674 -0.6115  0.4165
21683SOL    HW165627   5.826   4.736   8.723  1.6165  1.4719  0.3157
21683SOL    HW265628   5.824   4.832   8.840  0.3900 -1.9049  3.2424
21684SOL     OW65629   3.858   4.838   1.789  0.2806 -0.4063  0.5210
21684SOL    HW165630   3.917   4.857   1.863  1.1443 -5.2810  1.4841
21684SOL    HW265631   3.785   4.790   1.829 -0.8821 -0.4007 -1.4772
21685SOL     OW65632   2.942   3.186   1.908  0.2742  0.2922  0.2472
21685SOL    HW165633   2.892   3.104   1.910  1.0626 -0.1878  1.7592
21685SOL    HW265634   2.914   3.234   1.986  1.2412  0.5776  0.4358
21686SOL     OW65635   3.578   7.185   0.919 -0.1385  0.4093 -0.0029
21686SOL    HW165636   3.661   7.188   0.872  0.4768  2.6200  1.0704
21686SOL    HW265637   3.517   7.143   0.858  1.5888 -0.6426 -1.0700
21687SOL     OW65638   9.069   6.555   9.587 -0.0925  0.4512  0.1446
21687SOL    HW165639   9.099   6.607   9.512 -0.3159 -1.0238 -1.0194
21687SOL    HW265640   9.146   6.506   9.615 -0.2290  0.3028  0.2693
21688SOL     OW65641   8.003   4.051   8.819  0.0392 -0.0101 -0.3568
21688SOL    HW165642   8.082   4.093   8.854  0.0810 -1.3038  1.2393
21688SOL    HW265643   8.036   3.980   8.763  0.0244 -0.3577  0.0671
21689SOL     OW65644   9.911   1.336   6.044  0.0934  0.2898 -0.2682
21689SOL    HW165645   9.891   1.296   5.959 -1.3149  2.3740 -0.9815
21689SOL    HW265646   9.882   1.426   6.036  2.0361  1.1898  1.6865
21690SOL     OW65647   2.885   6.868   0.775 -0.1573  0.4953  0.1081
21690SOL    HW165648   2.945   6.793   0.784 -0.7120 -0.1306 -1.1833
21690SOL    HW265649   2.833   6.865   0.856  0.1114 -0.2611  0.2710
21691SOL     OW65650   8.780   1.792   8.156 -0.0391 -0.0749 -0.0512
21691SOL    HW165651   8.716   1.817   8.090 -0.0921 -1.6543 -0.6373
21691SOL    HW265652   8.775   1.862   8.222 -1.0973  0.7198 -0.9394
21692SOL     OW65653   0.979   5.587   5.167 -0.0407  0.1928 -0.0641
21692SOL    HW165654   0.896   5.633   5.178 -0.3940 -0.5844  0.5776
21692SOL    HW265655   0.955   5.496   5.150  0.6673  0.0542 -0.3640
21693SOL     OW65656   8.540   3.507   3.856  0.3475  0.1794 -0.0310
21693SOL    HW165657   8.461   3.558   3.843 -0.4242 -0.3900  2.0274
21693SOL    HW265658   8.608   3.572   3.874  0.2551  0.6361 -1.2227
21694SOL     OW65659   6.179   9.686   8.069  0.4648  0.2621  0.0313
21694SOL    HW165660   6.224   9.609   8.105  0.0506 -1.1284 -2.2192
21694SOL    HW265661   6.249   9.747   8.049  0.9751 -0.2180  0.3080
21695SOL     OW65662   5.675   8.791   9.493 -0.8451 -0.0706  0.2126
21695SOL    HW165663   5.659   8.885   9.500 -0.4367 -0.0707  1.3944
21695SOL    HW265664   5.705   8.765   9.580  0.6556 -0.9936 -0.5339
21696SOL     OW65665   6.850   4.797   1.963 -0.4505  0.4021  0.0456
21696SOL    HW165666   6.821   4.850   2.037 -3.0678 -1.8885  0.8267
21696SOL    HW265667   6.889   4.719   2.003  0.8194  0.4397 -1.0418
21697SOL     OW65668   8.061   7.226   5.156  0.0717 -0.1413  0.1203
21697SOL    HW165669   8.008   7.174   5.096  1.1484 -0.8362 -0.2547
21697SOL    HW265670   8.106   7.162   5.212 -1.0027  0.4907  1.7893
21698SOL     OW65671   0.112   3.652   4.680 -0.1149 -0.3346  0.1927
21698SOL    HW165672   0.082   3.564   4.701  0.5707 -0.7941 -0.6880
21698SOL    HW265673   0.115   3.654   4.584  1.8249 -0.0487  0.2154
21699SOL     OW65674   7.089   3.649   7.849 -0.0894 -0.7599 -0.0543
21699SOL    HW165675   7.065   3.574   7.793 -2.0371 -0.7659  0.7016
21699SOL    HW265676   7.028   3.718   7.823 -0.0395 -0.2888  1.0250
21700SOL     OW65677   9.685   3.595   4.002  0.4170  0.0675  0.1866
21700SOL    HW165678   9.636   3.514   3.985 -0.0362  0.4458 -0.3454
21700SOL    HW265679   9.743   3.573   4.075 -1.2455 -0.1069  1.5183
21701SOL     OW65680   0.574   6.146   8.764 -0.3475 -0.1116 -0.0907
21701SOL    HW165681   0.500   6.089   8.742 -1.1289 -0.0465  2.1039
21701SOL    HW265682   0.648   6.086   8.775 -0.6434 -0.4591  0.0358
21702SOL     OW65683   7.569   2.693   3.422 -0.0227  0.2456  0.2206
21702SOL    HW165684   7.587   2.709   3.514  1.3126 -0.1820  0.0547
21702SOL    HW265685   7.530   2.774   3.390  0.2048  0.6627  0.9801
21703SOL     OW65686   3.633   4.069   7.031 -0.1199  0.2666 -0.5574
21703SOL    HW165687   3.648   4.112   7.115 -1.1058 -1.9436  0.8329
21703SOL    HW265688   3.711   4.016   7.016 -0.6470 -0.6425 -0.1639
21704SOL     OW65689   0.793   3.138   1.216  0.4905  0.2153 -0.2313
21704SOL    HW165690   0.885   3.111   1.215 -0.0880 -2.0744 -2.5218
21704SOL    HW265691   0.759   3.104   1.299  0.9891 -2.0288 -0.8629
21705SOL     OW65692   3.619   9.519   7.422  0.0179 -0.2351  0.3773
21705SOL    HW165693   3.691   9.475   7.377  0.7238  1.7672 -0.5483
21705SOL    HW265694   3.544   9.509   7.364 -0.0224 -0.8104  0.5200
21706SOL     OW65695   2.744   2.653   2.766  0.5926 -0.5283 -0.0540
21706SOL    HW165696   2.821   2.670   2.821 -0.6153  1.1108  1.2627
21706SOL    HW265697   2.680   2.718   2.796 -1.0823 -1.4332 -1.5454
21707SOL     OW65698   0.324   5.823   3.010 -0.2519 -0.1515  0.1757
21707SOL    HW165699   0.355   5.796   2.924  0.8071 -1.6220  0.9719
21707SOL    HW265700   0.366   5.763   3.071 -0.6521  1.1040  1.7720
21708SOL     OW65701   7.224   4.658   8.687  0.5775 -0.2106 -0.3410
21708SOL    HW165702   7.254   4.578   8.643  0.5571 -0.9653  0.9741
21708SOL    HW265703   7.195   4.715   8.615 -1.3435 -2.1658 -1.2365
21709SOL     OW65704   0.828   5.540   8.299 -0.0948  0.6081  0.1117
21709SOL    HW165705   0.787   5.533   8.213 -1.6309 -0.3263  0.8789
21709SOL    HW265706   0.760   5.515   8.361  1.8560 -1.9661  1.4441
21710SOL     OW65707   1.760   0.711   4.885 -1.4018  0.2638 -0.1360
21710SOL    HW165708   1.679   0.668   4.858 -1.2480  0.3065 -0.6798
21710SOL    HW265709   1.737   0.803   4.895 -1.3037  0.3645 -0.8038
21711SOL     OW65710   9.725   3.768   9.096 -0.0409  0.2596 -0.4078
21711SOL    HW165711   9.710   3.860   9.114  0.0810  0.0308  0.9587
21711SOL    HW265712   9.820   3.757   9.097  0.0003  0.3257 -1.7525
21712SOL     OW65713   3.395   5.212   4.502 -0.3196  0.0217 -0.9623
21712SOL    HW165714   3.362   5.301   4.517  1.0372  0.3701  0.1101
21712SOL    HW265715   3.486   5.224   4.475 -0.0568 -1.0490 -0.6033
21713SOL     OW65716   4.979   2.546   0.305  0.4657 -0.0086  0.1688
21713SOL    HW165717   5.036   2.524   0.231 -0.6754 -3.6686  0.1453
21713SOL    HW265718   5.037   2.582   0.371  2.0736  0.2520 -1.3061
21714SOL     OW65719   1.482   7.567   8.819 -0.0359  0.1250 -0.1937
21714SOL    HW165720   1.478   7.486   8.870 -0.1584 -0.7988 -1.6171
21714SOL    HW265721   1.572   7.598   8.828  0.3823 -0.8984 -0.6884
21715SOL     OW65722   7.963   6.681   0.268 -0.6432  0.5059  0.4053
21715SOL    HW165723   7.998   6.663   0.181 -2.4266  0.3284 -0.3232
21715SOL    HW265724   8.033   6.654   0.328  0.3950  0.0784 -0.9451
21716SOL     OW65725   9.628   4.739   0.403 -0.2684 -0.0165 -0.5680
21716SOL    HW165726   9.709   4.790   0.405 -0.4198  0.2551 -1.0741
21716SOL    HW265727   9.637   4.684   0.325  0.1953 -1.2854  0.3545
21717SOL     OW65728   5.364   5.295   9.539  0.3896  0.7111  0.2080
21717SOL    HW165729   5.312   5.304   9.619  0.2944  2.3403 -0.0066
21717SOL    HW265730   5.308   5.248   9.478 -0.2386  1.0917  0.4873
21718SOL     OW65731   4.775   9.355   2.714 -0.2510 -0.5405 -0.1139
21718SOL    HW165732   4.856   9.381   2.758 -1.0653 -0.3029  1.3339
21718SOL    HW265733   4.785   9.261   2.699  0.2160 -0.5554  0.2491
21719SOL     OW65734   1.503   4.499   8.026  0.1612  0.1215  0.2996
21719SOL    HW165735   1.442   4.546   8.083  1.0484  1.9246 -0.1492
21719SOL    HW265736   1.527   4.563   7.959 -0.7462 -1.8931 -2.0745
21720SOL     OW65737   9.628   6.552   6.830  0.0331  0.2146 -0.1278
21720SOL    HW165738   9.687   6.607   6.882  0.4201  0.7259 -1.0789
21720SOL    HW265739   9.640   6.464   6.865  0.3127  0.5415  0.6180
21721SOL     OW65740   0.253   0.204   5.509 -0.4774 -0.4676  0.2802
21721SOL    HW165741   0.237   0.111   5.490  1.3178 -0.7034 -0.2886
21721SOL    HW265742   0.340   0.205   5.550 -0.1721  1.0301 -0.3470
21722SOL     OW65743   6.326   3.047   6.050  0.7399  0.4086 -0.0499
21722SOL    HW165744   6.316   3.135   6.086  0.0846  0.0041  0.7712
21722SOL    HW265745   6.376   3.060   5.969 -0.0478  1.6174 -0.3568
21723SOL     OW65746   9.121   9.869   7.611 -0.4274 -0.1486 -0.3688
21723SOL    HW165747   9.198   9.842   7.661 -1.4980 -0.7957  0.9825
21723SOL    HW265748   9.058   9.897   7.677 -1.7815 -0.7489 -1.3707
21724SOL     OW65749   1.867   8.777   9.764  0.6583 -0.5080 -0.5925
21724SOL    HW165750   1.923   8.855   9.760  0.8954 -0.5731  0.8088
21724SOL    HW265751   1.790   8.799   9.712  1.3575  0.1216 -1.3769
21725SOL     OW65752   6.311   7.286   6.045  0.1315 -0.3009 -0.1117
21725SOL    HW165753   6.266   7.203   6.028 -1.0004 -0.0970  1.5530
21725SOL    HW265754   6.280   7.312   6.132  0.9093  1.5849 -0.3492
21726SOL     OW65755   5.781   6.347   5.631 -0.6209  0.4311  0.0858
21726SOL    HW165756   5.855   6.335   5.572 -1.0995 -0.9760 -0.2527
21726SOL    HW265757   5.810   6.311   5.714 -0.8427  0.0632  0.0074
21727SOL     OW65758   1.353   2.264   7.899 -0.2956  0.6565  0.1828
21727SOL    HW165759   1.374   2.223   7.815  2.1247  0.2796  0.8814
21727SOL    HW265760   1.303   2.342   7.876 -0.0760  0.3210 -1.5693
21728SOL     OW65761   7.025   1.927   3.360 -0.0812 -0.0601 -0.1660
21728SOL    HW165762   6.980   1.998   3.408 -0.7544 -0.4335 -0.2333
21728SOL    HW265763   7.118   1.948   3.369 -0.0458 -0.9900  2.7618
21729SOL     OW65764   8.407   2.675   5.827 -0.4804  0.0661  0.5845
21729SOL    HW165765   8.387   2.616   5.900  0.2299 -0.8154  0.0757
21729SOL    HW265766   8.325   2.680   5.778 -0.4358 -0.8287  0.4049
21730SOL     OW65767   4.535   4.823   3.386 -0.1928  0.2399 -0.8115
21730SOL    HW165768   4.573   4.870   3.312 -1.1379 -0.1242 -1.5515
21730SOL    HW265769   4.473   4.885   3.424  1.8082  1.2173  1.0379
21731SOL     OW65770   8.655   8.295   3.311  0.0326  0.2551  0.2743
21731SOL    HW165771   8.737   8.320   3.352  1.1230  0.6315 -1.9621
21731SOL    HW265772   8.618   8.228   3.369  1.6396  0.4537  1.5907
21732SOL     OW65773   6.019   7.880   0.664 -0.5201  0.0495  0.7003
21732SOL    HW165774   6.059   7.794   0.648  0.9723  0.7221  0.6847
21732SOL    HW265775   6.044   7.901   0.754  0.1882  1.0234  0.2850
21733SOL     OW65776   1.264   1.138   9.795  0.3005 -0.6915  0.1987
21733SOL    HW165777   1.226   1.163   9.880  0.0107  0.1547 -0.1729
21733SOL    HW265778   1.354   1.114   9.816  0.0920 -0.9777  0.8216
21734SOL     OW65779   2.391   1.006   6.203  0.0114  0.2143  0.2383
21734SOL    HW165780   2.455   0.994   6.133 -0.3614 -1.8338  0.1847
21734SOL    HW265781   2.328   1.069   6.168  0.9510  0.8108 -0.4312
21735SOL     OW65782   6.537   3.863   8.387 -0.9877  0.4883  0.1175
21735SOL    HW165783   6.454   3.816   8.400 -0.9009  0.2898 -0.0289
21735SOL    HW265784   6.529   3.942   8.441 -2.4509  1.9527 -2.0825
21736SOL     OW65785   9.519   2.728   5.233 -0.2523  0.0871 -0.3377
21736SOL    HW165786   9.464   2.737   5.155  0.0157 -0.9512 -0.6680
21736SOL    HW265787   9.458   2.737   5.307 -0.4135  1.6905 -0.6327
21737SOL     OW65788   8.434   5.464   3.278  0.2662 -0.3679  0.1368
21737SOL    HW165789   8.530   5.464   3.277  0.3077 -0.5797 -1.9664
21737SOL    HW265790   8.410   5.556   3.287  0.5772 -0.4603  2.5935
21738SOL     OW65791   7.528   2.102   6.168  0.2174  0.4326  0.5246
21738SOL    HW165792   7.532   2.167   6.098  1.9112  0.0180  0.1891
21738SOL    HW265793   7.436   2.078   6.174 -0.1701  1.5836 -0.5265
21739SOL     OW65794   5.091   6.633   9.739  0.3511  0.6448 -0.0219
21739SOL    HW165795   5.173   6.596   9.706  0.6625  0.6730  0.7065
21739SOL    HW265796   5.026   6.609   9.673  0.6078 -0.9150  0.2620
21740SOL     OW65797   1.693   5.775   5.661 -0.9803  0.5746  0.3518
21740SOL    HW165798   1.710   5.797   5.753 -0.8813  0.4786  0.3563
21740SOL    HW265799   1.647   5.852   5.627 -4.7430 -0.9172  1.5115
21741SOL     OW65800   4.180   9.123   5.013 -0.1419 -0.1321  0.2082
21741SOL    HW165801   4.222   9.133   5.099  1.7277  0.3244 -0.7011
21741SOL    HW265802   4.243   9.072   4.962 -1.2987 -0.5325 -0.8631
21742SOL     OW65803   7.433   3.903   7.537  0.1963  0.4423 -0.0387
21742SOL    HW165804   7.374   3.938   7.470  0.1926 -0.3767 -0.4860
21742SOL    HW265805   7.445   3.975   7.599  0.1856  1.2161 -0.9155
21743SOL     OW65806   9.185   3.673   1.321  0.2989 -0.4010  0.3884
21743SOL    HW165807   9.262   3.671   1.378  0.6564  1.5973  0.0375
21743SOL    HW265808   9.140   3.591   1.340  1.3551 -0.6176  2.2310
21744SOL     OW65809   3.611   8.231   1.302 -0.1567  1.4017 -0.0512
21744SOL    HW165810   3.643   8.282   1.376  1.3089 -0.3167  0.5561
21744SOL    HW265811   3.688   8.184   1.270 -1.5746 -1.1981  0.0721
21745SOL     OW65812   9.907   1.873   9.714 -0.1629 -0.0128 -0.0083
21745SOL    HW165813   9.922   1.838   9.626  0.4180 -1.1869  0.5348
21745SOL    HW265814   9.882   1.797   9.766 -0.9382  0.7469  0.7558
21746SOL     OW65815   3.770   3.141   7.690 -0.1770  0.8995  0.1136
21746SOL    HW165816   3.710   3.120   7.761  1.3905  2.1335  1.8746
21746SOL    HW265817   3.781   3.236   7.694  0.5630  0.9085 -1.2815
21747SOL     OW65818   3.086   8.803   8.470  0.1976 -0.0061 -0.0178
21747SOL    HW165819   3.145   8.826   8.542 -0.1084  0.3736  0.1132
21747SOL    HW265820   3.095   8.875   8.408  0.5222 -0.3737 -0.3996
21748SOL     OW65821   2.469   8.078   6.884 -0.0663  0.3677  0.0634
21748SOL    HW165822   2.414   8.122   6.820  0.5526  0.6643 -0.2744
21748SOL    HW265823   2.558   8.105   6.862  0.2817 -0.6495  0.1751
21749SOL     OW65824   1.052   4.826   1.768 -0.5100 -0.5931  0.2946
21749SOL    HW165825   1.083   4.737   1.754 -0.1224 -0.8818  2.5046
21749SOL    HW265826   0.957   4.819   1.769 -0.4783 -1.3461  2.1164
21750SOL     OW65827   2.678   1.057   1.333 -0.4778 -0.4267  0.4945
21750SOL    HW165828   2.701   1.142   1.297  0.0517 -1.1797 -1.0379
21750SOL    HW265829   2.725   1.051   1.415  0.3498  0.3238  0.0805
21751SOL     OW65830   0.533   6.713   1.499 -0.2982  0.4051 -0.1057
21751SOL    HW165831   0.560   6.766   1.424 -0.7086  2.0695  0.8658
21751SOL    HW265832   0.500   6.776   1.562  3.4096 -0.4608  3.0665
21752SOL     OW65833   9.147   3.515   5.619  0.2555  0.0769 -0.1741
21752SOL    HW165834   9.076   3.451   5.612 -1.3514  1.6890  0.6240
21752SOL    HW265835   9.129   3.579   5.551  1.2415  0.2643 -0.2761
21753SOL     OW65836   7.152   9.530   4.567  0.4920 -0.2025 -0.1285
21753SOL    HW165837   7.143   9.535   4.472 -2.1392 -1.2151 -0.0226
21753SOL    HW265838   7.137   9.619   4.597  0.3977 -0.0567 -0.5966
21754SOL     OW65839   0.751   7.139   4.009  0.4624  0.1487 -0.2429
21754SOL    HW165840   0.835   7.094   4.014  0.0941 -0.8600 -2.2216
21754SOL    HW265841   0.758   7.197   3.933 -0.6403 -0.0093 -0.4950
21755SOL     OW65842   9.853   0.366   8.279  0.1441  0.2964  0.6366
21755SOL    HW165843   9.849   0.350   8.373  0.3590 -1.2204  0.4046
21755SOL    HW265844   9.897   0.289   8.243 -2.3208 -0.4651 -1.0276
21756SOL     OW65845   7.878   6.335   2.730 -0.7670 -0.4803  0.8879
21756SOL    HW165846   7.874   6.422   2.690  0.6464 -0.4945  0.6532
21756SOL    HW265847   7.829   6.279   2.669 -0.9060 -0.0139  0.5645
21757SOL     OW65848   0.775   4.684   6.999  0.2195  0.3857  0.4493
21757SOL    HW165849   0.734   4.602   7.024  1.1933  0.0324  0.9520
21757SOL    HW265850   0.723   4.751   7.043 -1.0363  0.1090 -0.5730
21758SOL     OW65851   2.209   9.119   8.444  0.1620 -0.4783  0.1986
21758SOL    HW165852   2.137   9.074   8.400 -2.1145  1.5818  1.6120
21758SOL    HW265853   2.219   9.073   8.527 -0.2927 -0.1007  0.4668
21759SOL     OW65854   4.427   9.286   8.678  0.5137  0.8050 -0.1337
21759SOL    HW165855   4.461   9.375   8.665  2.0481  0.2172 -0.3401
21759SOL    HW265856   4.449   9.264   8.768  1.7983  0.0056 -0.5968
21760SOL     OW65857   1.171   9.814   1.008 -0.3024 -0.0145  0.2071
21760SOL    HW165858   1.247   9.831   1.064 -1.8861 -0.7036  2.7364
21760SOL    HW265859   1.192   9.857   0.925  1.4135  2.7211  1.9172
21761SOL     OW65860   8.712   1.114   9.742 -0.8388 -0.3150  0.9434
21761SOL    HW165861   8.748   1.029   9.768  0.8879  0.4912  1.3849
21761SOL    HW265862   8.779   1.177   9.769 -0.3846  0.9089 -2.4554
21762SOL     OW65863   8.693   9.183   5.032  0.0342  0.1171  0.4658
21762SOL    HW165864   8.756   9.228   4.976  1.2388  0.1812  1.8078
21762SOL    HW265865   8.735   9.181   5.118 -1.8171  0.1691  1.4205
21763SOL     OW65866   6.092   0.628   1.704  0.3158  0.1593  0.4889
21763SOL    HW165867   6.014   0.612   1.756 -1.1098 -1.9601 -2.0598
21763SOL    HW265868   6.154   0.560   1.731 -0.8873 -1.7528 -1.2631
21764SOL     OW65869   8.692   2.997   8.909  0.4920  0.0304  0.1167
21764SOL    HW165870   8.678   2.912   8.951 -0.0199  0.1723  0.2432
21764SOL    HW265871   8.784   2.996   8.882  0.2486 -0.9414 -0.7445
21765SOL     OW65872   3.233   8.730   3.932 -0.4554  0.0527  0.3120
21765SOL    HW165873   3.298   8.684   3.984 -0.0098  0.9381  0.5610
21765SOL    HW265874   3.209   8.668   3.863  0.6780 -0.2857  0.1973
21766SOL     OW65875   9.048   9.119   3.971  0.2870  0.0598  0.6959
21766SOL    HW165876   9.124   9.083   4.016 -0.0803  1.4220  2.5322
21766SOL    HW265877   8.979   9.054   3.983  0.1387  0.4870  2.3652
21767SOL     OW65878   5.598   7.413   3.399  0.2735 -0.5920  0.8969
21767SOL    HW165879   5.562   7.422   3.487 -1.2240  0.0172  0.2538
21767SOL    HW265880   5.602   7.503   3.366  0.4683 -0.8498  0.2048
21768SOL     OW65881   6.456   4.320   5.088 -0.0607 -0.0802 -0.4372
21768SOL    HW165882   6.414   4.306   5.173  0.2007 -0.0879 -0.3088
21768SOL    HW265883   6.523   4.386   5.105  2.4341 -2.5848  0.1686
21769SOL     OW65884   7.110   6.191   3.662 -0.3001 -0.0876 -0.4934
21769SOL    HW165885   7.179   6.257   3.662 -1.6205  1.3836 -1.5813
21769SOL    HW265886   7.036   6.234   3.705 -1.2017 -0.8357 -1.2495
21770SOL     OW65887   3.002   8.030   3.390 -0.0109  0.1213  0.7573
21770SOL    HW165888   3.009   8.122   3.366 -1.8034 -0.1367 -1.0114
21770SOL    HW265889   2.912   8.006   3.368 -0.4752 -1.3825  3.7777
21771SOL     OW65890   1.659   1.139   8.134 -0.3209 -0.2737  0.5278
21771SOL    HW165891   1.726   1.188   8.183  0.8907 -2.7539  1.5337
21771SOL    HW265892   1.679   1.157   8.042  0.6114  0.4566  0.8512
21772SOL     OW65893   2.753   8.256   8.035  0.6984 -0.4499  0.1815
21772SOL    HW165894   2.752   8.329   8.097  0.9302 -1.2243  1.1202
21772SOL    HW265895   2.661   8.234   8.023  0.5530  0.6833 -0.9608
21773SOL     OW65896   6.010   2.527   0.931 -0.0596  0.0242  0.1789
21773SOL    HW165897   6.051   2.543   1.016 -0.6139  3.0196 -0.0108
21773SOL    HW265898   6.065   2.574   0.868 -1.1002  0.0729 -0.7313
21774SOL     OW65899   5.015   5.431   0.568 -0.2899 -0.3341 -0.1362
21774SOL    HW165900   4.949   5.477   0.516 -0.2195 -0.5984 -0.4670
21774SOL    HW265901   5.047   5.363   0.509 -1.0302 -1.3884  0.6589
21775SOL     OW65902   7.517   6.192   4.522 -0.7175 -0.0305 -0.3604
21775SOL    HW165903   7.513   6.259   4.590 -3.8882  1.5883 -1.8975
21775SOL    HW265904   7.581   6.224   4.460 -1.5482  1.1839 -0.6283
21776SOL     OW65905   4.095   3.196   5.938  0.1528 -0.5779  0.1324
21776SOL    HW165906   4.106   3.221   6.030  1.7457 -1.3849  0.2068
21776SOL    HW265907   4.050   3.111   5.941 -2.9082  0.9039 -0.0241
21777SOL     OW65908   8.063   4.476   5.527  0.4373 -0.1389 -0.2520
21777SOL    HW165909   8.014   4.419   5.586 -1.7372  1.1424 -0.6946
21777SOL    HW265910   8.098   4.545   5.583 -0.3606  0.2638 -0.2367
21778SOL     OW65911   3.144   2.623   1.054 -0.4006 -0.0726 -0.1964
21778SOL    HW165912   3.057   2.660   1.068  0.1040  0.8648  0.5265
21778SOL    HW265913   3.168   2.653   0.966  0.7552  2.9835  1.0354
21779SOL     OW65914   3.252   0.950   2.636  0.3853  0.1551  0.0192
21779SOL    HW165915   3.169   0.937   2.681  1.2043 -3.1332  0.7919
21779SOL    HW265916   3.232   0.935   2.544 -0.4317  2.6290 -0.2795
21780SOL     OW65917   6.318   2.655   1.647 -0.2733  0.1016 -0.5611
21780SOL    HW165918   6.402   2.678   1.687 -0.0052 -1.9336  0.1723
21780SOL    HW265919   6.253   2.680   1.712 -0.0291 -0.6788  0.0002
21781SOL     OW65920   5.959   7.856   0.339 -0.5502 -0.0197 -0.1153
21781SOL    HW165921   5.941   7.775   0.292  0.4423 -0.2116 -0.1814
21781SOL    HW265922   5.914   7.846   0.423 -1.0392 -0.3228 -0.4095
21782SOL     OW65923   7.684   3.348   5.326 -0.0539  0.0593 -0.2924
21782SOL    HW165924   7.670   3.275   5.265  0.9730 -0.2792 -0.1371
21782SOL    HW265925   7.737   3.410   5.276 -0.3754  0.4154 -0.1983
21783SOL     OW65926   3.820   7.808   3.727 -0.0824  0.0344 -0.2378
21783SOL    HW165927   3.829   7.878   3.662  0.8091  0.6504  0.5164
21783SOL    HW265928   3.780   7.735   3.679  0.4303  0.5191 -1.4426
21784SOL     OW65929   0.258   6.134   6.225  0.0733 -0.2052 -0.5249
21784SOL    HW165930   0.223   6.170   6.144 -0.6555 -1.0429 -0.6002
21784SOL    HW265931   0.210   6.052   6.238  2.3503 -1.6913 -0.8730
21785SOL     OW65932   4.402   2.518   0.602  0.2532  0.3963  0.2786
21785SOL    HW165933   4.412   2.593   0.661  1.2813  0.4045  0.1061
21785SOL    HW265934   4.476   2.524   0.542 -1.7814  1.5439 -2.3639
21786SOL     OW65935   6.370   3.887   0.307  0.2665 -0.1959 -0.5559
21786SOL    HW165936   6.336   3.948   0.372 -0.9140 -0.5890 -0.7775
21786SOL    HW265937   6.378   3.939   0.227 -0.0830 -0.1658 -0.5720
21787SOL     OW65938   1.470   2.858   9.913 -0.6695 -0.4257 -0.1905
21787SOL    HW165939   1.441   2.949   9.905 -0.1290 -0.1164  0.9928
21787SOL    HW265940   1.561   2.860   9.882  0.2018  0.0207  2.1464
21788SOL     OW65941   6.944   2.114   2.932 -0.1196  0.6934 -0.1032
21788SOL    HW165942   7.026   2.106   2.980  1.0301  0.9621 -1.9678
21788SOL    HW265943   6.877   2.111   3.001  1.4095  0.3989  1.4555
21789SOL     OW65944   7.602   0.626   2.616 -0.0037  0.0312  0.4736
21789SOL    HW165945   7.578   0.598   2.527  0.0483 -1.6928  0.9754
21789SOL    HW265946   7.520   0.654   2.656 -0.0889  0.4344  0.0294
21790SOL     OW65947   6.379   0.992   0.692 -0.3757  0.5767 -0.0224
21790SOL    HW165948   6.345   0.976   0.780  1.6914 -3.2359  0.3003
21790SOL    HW265949   6.391   1.087   0.688 -1.5290  1.0154  3.3828
21791SOL     OW65950   1.610   2.987   1.828  0.1835 -0.1690  0.2663
21791SOL    HW165951   1.679   3.052   1.835  1.2696 -1.3413  0.8237
21791SOL    HW265952   1.553   3.002   1.904  0.8187 -0.3089  0.7733
21792SOL     OW65953   7.835   5.386   2.909 -0.3263 -0.1455 -0.3830
21792SOL    HW165954   7.920   5.342   2.908  0.6451  1.6586 -0.5916
21792SOL    HW265955   7.782   5.333   2.969  1.4832 -0.3491  1.1379
21793SOL     OW65956   1.895   1.030   5.051  0.0894  0.1338  0.0804
21793SOL    HW165957   1.929   1.110   5.090  1.5526 -0.3120 -0.1988
21793SOL    HW265958   1.964   0.965   5.066 -1.1711 -1.1528  0.5442
21794SOL     OW65959   8.288   0.165   2.674 -0.5058  0.0883  0.2462
21794SOL    HW165960   8.356   0.135   2.734 -0.6365  0.9702  0.8397
21794SOL    HW265961   8.246   0.239   2.718 -0.4756  0.8839 -0.9993
21795SOL     OW65962   2.279   8.144   6.446  0.6152 -0.1525  0.6846
21795SOL    HW165963   2.243   8.168   6.361  1.8280 -0.6759 -0.0116
21795SOL    HW265964   2.259   8.051   6.456 -2.0524  0.4862  2.3292
21796SOL     OW65965   6.710   1.465   5.601 -0.7588 -0.0484  0.8850
21796SOL    HW165966   6.733   1.388   5.550  0.1111  0.6756  0.1514
21796SOL    HW265967   6.623   1.490   5.569 -1.5850 -1.3891  1.9686
21797SOL     OW65968   5.841   2.961   7.288  0.0095 -0.0588  0.4149
21797SOL    HW165969   5.870   3.043   7.329 -1.7835  0.4521  0.7115
21797SOL    HW265970   5.783   2.989   7.217  1.0243 -1.0303 -0.8655
21798SOL     OW65971   0.736   2.289   3.350  0.5051  0.3263  0.8103
21798SOL    HW165972   0.808   2.339   3.389  1.5031 -1.0563  0.8088
21798SOL    HW265973   0.660   2.311   3.404  0.9524  1.6402  0.9531
21799SOL     OW65974   8.508   8.922   9.362 -0.2146 -0.4996  0.3109
21799SOL    HW165975   8.476   8.903   9.274  2.0475 -0.4950 -0.5775
21799SOL    HW265976   8.468   9.006   9.384  0.9536  0.6460 -1.6822
21800SOL     OW65977   7.229   2.069   4.494  0.0966 -0.3280  0.1111
21800SOL    HW165978   7.258   1.980   4.516 -1.1227 -0.3305  1.9069
21800SOL    HW265979   7.137   2.071   4.520  0.1433  1.5114  0.2423
21801SOL     OW65980   2.263   6.615   7.420  0.2312  0.3781 -0.3411
21801SOL    HW165981   2.268   6.612   7.515  1.4327 -0.5472 -0.4132
21801SOL    HW265982   2.258   6.708   7.399  0.3673  0.6056  0.6064
21802SOL     OW65983   2.354   4.670   2.827  0.4630  0.4403 -0.3700
21802SOL    HW165984   2.271   4.659   2.875  0.9035  0.7401  0.4876
21802SOL    HW265985   2.342   4.749   2.775  1.5154  2.8708  2.7381
21803SOL     OW65986   2.779   6.031   5.532  0.0392  0.0259 -0.2606
21803SOL    HW165987   2.758   5.939   5.549 -0.9691 -0.0481 -1.7784
21803SOL    HW265988   2.795   6.035   5.438  1.8540  1.0913  0.0438
21804SOL     OW65989   3.345   0.165   0.441 -0.0328  0.2601 -0.2728
21804SOL    HW165990   3.311   0.099   0.381  1.0223  0.7610 -1.4655
21804SOL    HW265991   3.292   0.242   0.425  1.5744  1.0569 -2.1686
21805SOL     OW65992   1.469   1.465   4.421 -0.5505  0.2301  0.1924
21805SOL    HW165993   1.397   1.468   4.484 -1.1814 -0.2270 -0.5034
21805SOL    HW265994   1.454   1.386   4.370  0.8835 -0.2937  0.5473
21806SOL     OW65995   8.906   4.702   2.362 -0.0641  0.4847 -0.0184
21806SOL    HW165996   8.986   4.700   2.416 -0.3134  0.7709  0.3731
21806SOL    HW265997   8.927   4.648   2.286  0.0267 -0.6074  0.7500
21807SOL     OW65998   5.723   9.862   2.743 -0.8911  0.4764  0.0312
21807SOL    HW165999   5.784   9.868   2.670 -0.4756 -0.1426  0.3215
21807SOL    HW266000   5.644   9.907   2.713 -0.9532 -0.3132 -1.0209
21808SOL     OW66001   4.106   0.175   3.839  0.5558 -0.2410 -0.2209
21808SOL    HW166002   4.096   0.270   3.837 -1.0698 -0.3872 -0.2884
21808SOL    HW266003   4.044   0.143   3.773  0.0089 -1.4145  0.8124
21809SOL     OW66004   8.103   5.874   6.097  0.0736  0.2604  0.2266
21809SOL    HW166005   8.146   5.849   6.016  1.9885  0.5410  1.0903
21809SOL    HW266006   8.092   5.792   6.145 -1.4016  0.0426 -0.4269
21810SOL     OW66007   6.164   8.044   3.033 -0.4889 -0.0451  0.2282
21810SOL    HW166008   6.122   8.036   2.947 -1.8719 -0.6651  0.9409
21810SOL    HW266009   6.104   8.001   3.093  0.4084  0.4888  1.5419
21811SOL     OW66010   3.887   1.475   8.852  0.1911 -0.4016 -0.2615
21811SOL    HW166011   3.889   1.514   8.939  0.5989  0.8896 -0.8282
21811SOL    HW266012   3.968   1.505   8.810 -0.7492  0.3184 -1.6301
21812SOL     OW66013   4.087   2.152   5.083 -0.2320 -0.3362 -0.1712
21812SOL    HW166014   4.099   2.215   5.154 -0.9448  1.0569 -1.2180
21812SOL    HW266015   4.150   2.179   5.016 -1.8765  0.5562 -1.4386
21813SOL     OW66016   3.267   5.603   0.556 -0.3857  0.8027 -0.3498
21813SOL    HW166017   3.237   5.668   0.619  0.6954  0.3964  0.5963
21813SOL    HW266018   3.297   5.654   0.481  1.4330  1.4805  0.7944
21814SOL     OW66019   0.428   9.877   2.485  0.6082 -0.1976 -0.8796
21814SOL    HW166020   0.436   9.822   2.407  0.5995 -0.0196 -1.0059
21814SOL    HW266021   0.411   9.965   2.451 -1.6575 -0.4865 -0.6244
21815SOL     OW66022   7.490   1.687   2.932  0.2566 -0.1651  0.2103
21815SOL    HW166023   7.522   1.632   2.861  0.8168 -1.6039  1.5244
21815SOL    HW266024   7.522   1.645   3.011 -2.1295  0.1874  1.4487
21816SOL     OW66025   6.236   2.230   4.694  0.0341 -0.3651 -0.3024
21816SOL    HW166026   6.241   2.291   4.620 -0.4370 -0.8946 -0.7832
21816SOL    HW266027   6.322   2.188   4.696  0.3034  0.1974 -0.0712
21817SOL     OW66028   7.940   3.789   3.105 -0.3928  0.0623  0.0917
21817SOL    HW166029   7.962   3.704   3.067 -0.4853  0.2210 -0.3293
21817SOL    HW266030   8.016   3.844   3.087 -0.5928  0.2468 -0.2131
21818SOL     OW66031   3.598   3.993   4.608 -0.1892 -0.3508 -0.2405
21818SOL    HW166032   3.567   4.082   4.625 -1.6607 -1.0206  0.7940
21818SOL    HW266033   3.561   3.971   4.522 -0.4355 -0.2079 -0.1731
21819SOL     OW66034   1.556   3.154   5.234  0.2908 -0.8181  0.4251
21819SOL    HW166035   1.495   3.173   5.164 -0.0394 -0.5415  0.7857
21819SOL    HW266036   1.639   3.135   5.189 -0.0883 -1.3262 -0.0655
21820SOL     OW66037   3.946   7.049   0.911  0.3179 -0.1268 -0.0977
21820SOL    HW166038   3.916   7.134   0.944 -0.2828 -0.1350 -0.5980
21820SOL    HW266039   4.038   7.063   0.890  0.4404  0.1648  0.5940
21821SOL     OW66040   3.683   6.740   3.904 -0.0814 -0.8305 -0.0444
21821SOL    HW166041   3.704   6.787   3.985 -0.8009 -1.0640  0.2847
21821SOL    HW266042   3.767   6.707   3.873  0.3269  0.0590  0.1056
21822SOL     OW66043   4.731   8.785   0.323  0.3636 -0.0016  0.2698
21822SOL    HW166044   4.729   8.781   0.227  1.5908  0.2170  0.2176
21822SOL    HW266045   4.820   8.759   0.346 -0.4865 -2.1750  1.4812
21823SOL     OW66046   8.455   6.273   8.849  0.2823  0.2182  0.7879
21823SOL    HW166047   8.424   6.340   8.911 -2.9270 -0.3713  0.0067
21823SOL    HW266048   8.467   6.320   8.767  0.5978  0.2980  0.8798
21824SOL     OW66049   2.290   9.417   8.455  0.0946 -0.2797  0.5765
21824SOL    HW166050   2.281   9.417   8.360 -0.2411  0.1487  0.6028
21824SOL    HW266051   2.248   9.337   8.484  2.1167 -1.5586  0.2076
21825SOL     OW66052   0.271   5.534   9.956  0.5106  0.2404 -0.1202
21825SOL    HW166053   0.246   5.514  10.046 -3.9692 -0.9554 -1.3942
21825SOL    HW266054   0.322   5.458   9.928 -1.1383 -1.1318  0.4277
21826SOL     OW66055   3.442   5.167   2.552  0.4173  0.4167  0.3605
21826SOL    HW166056   3.518   5.156   2.608  0.1983  0.7599  0.7344
21826SOL    HW266057   3.437   5.262   2.536  0.1147  0.3900  0.2826
21827SOL     OW66058   1.487   8.038   5.252 -0.0787 -0.1326 -0.0514
21827SOL    HW166059   1.417   8.080   5.202 -0.0184  1.8041  1.3873
21827SOL    HW266060   1.475   8.070   5.341  3.2385  1.1259  0.0683
21828SOL     OW66061   1.010   2.152   9.788  1.0332 -0.4567 -0.5337
21828SOL    HW166062   1.068   2.107   9.849  0.7183 -1.0616 -0.6765
21828SOL    HW266063   0.952   2.203   9.845  1.0734 -0.6158 -0.3470
21829SOL     OW66064   9.349   9.156   8.701  0.0811  0.1240 -0.0271
21829SOL    HW166065   9.350   9.241   8.746  0.9860 -0.0238  0.2324
21829SOL    HW266066   9.428   9.156   8.648 -1.3057  0.5968 -2.2321
21830SOL     OW66067   0.144   0.473   0.651  0.2675  0.2058 -0.4257
21830SOL    HW166068   0.078   0.442   0.714  1.4504  0.0475  0.8002
21830SOL    HW266069   0.110   0.556   0.620 -0.7174 -0.0752 -0.1466
21831SOL     OW66070   5.537   6.936   9.591 -0.2293 -0.0055  0.4115
21831SOL    HW166071   5.630   6.916   9.606  0.2517  1.1176 -0.8052
21831SOL    HW266072   5.511   6.986   9.668  0.8370  1.5522 -0.1566
21832SOL     OW66073   2.270   3.205   1.889  0.1521  0.1015 -0.2051
21832SOL    HW166074   2.221   3.135   1.933 -0.1208 -0.1574 -0.9172
21832SOL    HW266075   2.361   3.175   1.890 -0.2214 -1.2560 -2.3340
21833SOL     OW66076   5.340   8.570   9.012 -0.0337  0.1765 -0.2074
21833SOL    HW166077   5.308   8.656   8.984 -1.1443  0.5142  1.8922
21833SOL    HW266078   5.431   8.567   8.983  0.4746  2.6944  0.8785
21834SOL     OW66079   8.471   8.905   2.656 -0.3820 -0.2882  0.4390
21834SOL    HW166080   8.538   8.973   2.644 -0.7808 -0.0462 -0.5524
21834SOL    HW266081   8.519   8.831   2.693 -0.2525  1.0625  3.2337
21835SOL     OW66082   8.069   3.254   0.464 -0.5898  0.1917 -0.2971
21835SOL    HW166083   8.124   3.275   0.540 -1.0613  0.2987  0.0229
21835SOL    HW266084   8.130   3.224   0.397 -0.1893 -0.1618  0.2196
21836SOL     OW66085   1.472   0.597   1.569 -1.1680  0.1311  0.0576
21836SOL    HW166086   1.414   0.535   1.525 -3.6103  2.1225  0.1924
21836SOL    HW266087   1.494   0.554   1.652 -2.0090 -0.9352 -0.2397
21837SOL     OW66088   8.830   8.329   2.226  0.1484 -0.5684  0.2438
21837SOL    HW166089   8.764   8.328   2.295 -3.1115 -3.5071 -2.5609
21837SOL    HW266090   8.813   8.409   2.177 -0.1869 -0.4956  0.4762
21838SOL     OW66091   6.753   2.352   7.065 -0.1507  0.3160 -0.3072
21838SOL    HW166092   6.725   2.439   7.038  1.4645  0.4350 -1.7971
21838SOL    HW266093   6.671   2.303   7.078 -1.0641  1.6492 -0.8111
21839SOL     OW66094   8.866   4.879   5.979  0.3336 -0.0474  0.1291
21839SOL    HW166095   8.881   4.801   5.925  0.7140  0.9615 -1.2711
21839SOL    HW266096   8.952   4.918   5.990  0.2761 -0.2853  1.5944
21840SOL     OW66097   0.757   7.644   0.337 -0.2359  0.0542  0.1575
21840SOL    HW166098   0.676   7.644   0.388 -1.2354  1.3632 -1.3158
21840SOL    HW266099   0.758   7.560   0.292 -2.1163  0.9084 -1.6784
21841SOL     OW66100   5.885   1.026   7.673  0.1968  0.0155  0.0439
21841SOL    HW166101   5.911   0.962   7.606  0.7072  1.6395 -1.3799
21841SOL    HW266102   5.809   0.987   7.715  0.4459 -1.4926 -0.8162
21842SOL     OW66103   8.949   9.483   5.733 -0.0396 -0.5112 -0.4315
21842SOL    HW166104   8.936   9.542   5.807 -1.5014 -3.3963  1.8226
21842SOL    HW266105   9.042   9.461   5.736  0.0916  0.0653  0.0013
21843SOL     OW66106   5.003   8.122   1.040 -0.0368  0.1672 -0.1739
21843SOL    HW166107   4.974   8.039   1.078 -0.6559  0.5219  0.1456
21843SOL    HW266108   5.086   8.101   0.997  0.0243 -0.5258  0.2649
21844SOL     OW66109   7.254   3.677   2.789  0.1969 -0.3105  0.0460
21844SOL    HW166110   7.343   3.643   2.781  1.1947  2.4388 -2.1812
21844SOL    HW266111   7.209   3.648   2.710 -0.5765 -0.7802  0.6424
21845SOL     OW66112   1.579   5.930   2.114 -0.2237  0.3323  0.3923
21845SOL    HW166113   1.595   5.958   2.204  0.0583  0.0518  0.4307
21845SOL    HW266114   1.607   6.004   2.061 -1.9514  1.1772  0.5908
21846SOL     OW66115   2.058   1.008   8.909  0.4404  0.4537 -0.7112
21846SOL    HW166116   2.084   1.097   8.883  2.2455 -0.1656 -1.1504
21846SOL    HW266117   1.989   0.984   8.848 -0.1404  1.5908 -0.5267
21847SOL     OW66118   9.958   5.763   7.453  0.7971  1.0700 -0.4526
21847SOL    HW166119   9.881   5.819   7.467  1.1835  2.2417 -2.5617
21847SOL    HW266120   9.949   5.694   7.518 -2.1054  1.1005 -0.6733
21848SOL     OW66121   2.495   8.488   8.563  0.2911  0.4369  0.2602
21848SOL    HW166122   2.486   8.401   8.523 -0.7316 -0.0182  1.4121
21848SOL    HW266123   2.445   8.546   8.504 -0.2748 -0.0254  0.2720
21849SOL     OW66124   5.593   9.278   1.488 -0.3979 -0.2356 -0.2431
21849SOL    HW166125   5.650   9.312   1.556 -2.7893 -0.1175  1.8591
21849SOL    HW266126   5.608   9.183   1.489  1.5047 -0.0041 -1.5197
21850SOL     OW66127   1.818   0.670   1.895 -0.0870 -0.0205  0.4588
21850SOL    HW166128   1.878   0.673   1.970  0.0471  0.8379  0.3246
21850SOL    HW266129   1.820   0.759   1.860  0.9196 -0.7308 -1.4112
21851SOL     OW66130   9.537   0.053   5.167 -0.0310 -0.0513 -0.1017
21851SOL    HW166131   9.623   0.094   5.153 -0.6581  1.0666 -0.8354
21851SOL    HW266132   9.507   0.031   5.079 -0.5870 -0.2580  0.1392
21852SOL     OW66133   3.476   7.702   9.897 -0.3193 -0.4996  0.0961
21852SOL    HW166134   3.426   7.633   9.941 -0.2649 -1.3269 -1.0910
21852SOL    HW266135   3.553   7.656   9.862  1.0055  0.6250  1.3707
21853SOL     OW66136   0.733   0.636   9.211  0.5645  0.4385  0.6386
21853SOL    HW166137   0.812   0.683   9.183 -0.3379  2.2944  1.0336
21853SOL    HW266138   0.761   0.545   9.218  2.5312  0.9549  0.2678
21854SOL     OW66139   4.853   6.326   3.592  0.2786  0.3939  0.2040
21854SOL    HW166140   4.908   6.248   3.602  0.3354  0.3416 -0.4963
21854SOL    HW266141   4.905   6.396   3.632  0.8006  0.3166 -0.3149
21855SOL     OW66142   7.859   4.716   5.049  0.2518 -0.5857  0.1589
21855SOL    HW166143   7.778   4.748   5.089 -0.2812 -1.4720 -0.1792
21855SOL    HW266144   7.917   4.700   5.123 -0.5361 -1.6921  0.5682
21856SOL     OW66145   1.772   1.341   8.676  0.0099 -0.5700  0.0104
21856SOL    HW166146   1.699   1.295   8.634 -2.7335  1.7523  1.9500
21856SOL    HW266147   1.762   1.323   8.769  0.7187  1.4073  0.5123
21857SOL     OW66148   4.175   9.149   9.395  0.2800  0.3859 -0.1074
21857SOL    HW166149   4.223   9.111   9.322  0.3375 -0.6993  0.4682
21857SOL    HW266150   4.106   9.202   9.355  0.8404  0.4981 -0.9331
21858SOL     OW66151   7.455   1.734   7.295 -0.0565 -0.3466 -0.4349
21858SOL    HW166152   7.527   1.683   7.334  1.2764  0.2669 -1.9581
21858SOL    HW266153   7.388   1.669   7.273 -0.3810 -0.8233  1.8159
21859SOL     OW66154   8.308   3.178   2.735 -0.4896 -0.2356  0.1282
21859SOL    HW166155   8.283   3.092   2.770 -1.2073  0.4369  1.3383
21859SOL    HW266156   8.226   3.213   2.699 -0.3140  0.1475  0.1043
21860SOL     OW66157   2.871   4.481   8.672 -0.0483 -0.6623 -0.4449
21860SOL    HW166158   2.885   4.517   8.759 -2.4767  0.0278 -0.2842
21860SOL    HW266159   2.959   4.460   8.641  1.0045  0.5154  1.5410
21861SOL     OW66160   8.329   8.907   6.231  0.2483 -0.0173 -0.3225
21861SOL    HW166161   8.273   8.852   6.177 -0.4968  0.4940 -0.0945
21861SOL    HW266162   8.410   8.915   6.182 -0.8397  1.4427 -1.9904
21862SOL     OW66163   5.536   2.018   1.792  0.3973 -0.4512 -0.5455
21862SOL    HW166164   5.553   1.976   1.876  1.1149 -1.1285 -1.0128
21862SOL    HW266165   5.455   2.068   1.806  0.7123 -0.2449  0.6465
21863SOL     OW66166   2.302   8.517   3.202  0.0590 -0.0286  0.1650
21863SOL    HW166167   2.218   8.544   3.163 -0.1239 -0.9563 -0.1131
21863SOL    HW266168   2.359   8.594   3.192 -1.4020  1.4704  2.4212
21864SOL     OW66169   3.540   1.933   1.279 -0.5636 -0.1931 -0.0814
21864SOL    HW166170   3.603   1.929   1.206 -0.2955 -1.9723  0.2124
21864SOL    HW266171   3.539   2.026   1.303  1.8263 -0.0510 -0.2115
21865SOL     OW66172   8.732   9.621   7.677 -0.2368 -0.6257 -0.3975
21865SOL    HW166173   8.717   9.691   7.740  0.1502 -0.0188 -0.9801
21865SOL    HW266174   8.775   9.663   7.603 -1.5288 -1.1515 -1.4797
21866SOL     OW66175   7.227   5.797   6.945 -0.6507  0.4984  0.2515
21866SOL    HW166176   7.139   5.793   6.909 -0.2388 -0.0639 -0.7155
21866SOL    HW266177   7.273   5.724   6.904  1.0275  2.3412 -1.3163
21867SOL     OW66178   7.432   5.963   7.143  0.1190  0.2996  0.0817
21867SOL    HW166179   7.446   6.050   7.178 -1.3749  0.1803  1.0712
21867SOL    HW266180   7.350   5.969   7.095 -0.2528 -0.6539  0.5586
21868SOL     OW66181   3.244   3.376   7.229  0.2309  0.2052 -0.2956
21868SOL    HW166182   3.270   3.439   7.296  0.1087  1.4919 -1.4153
21868SOL    HW266183   3.303   3.303   7.240  1.0631  0.9659  0.3866
21869SOL     OW66184   9.196   8.644   5.811 -0.2188 -0.3164  0.2363
21869SOL    HW166185   9.117   8.592   5.828 -0.0041 -0.2349  1.6446
21869SOL    HW266186   9.175   8.730   5.847  0.4955 -0.2863  0.5904
21870SOL     OW66187   6.045   3.268   8.989 -0.2424 -0.3671 -0.1472
21870SOL    HW166188   6.045   3.323   8.910 -0.2613 -0.6872 -0.3680
21870SOL    HW266189   5.991   3.192   8.966  2.8140 -2.3897 -1.1723
21871SOL     OW66190   8.120   0.164   4.570  0.1653  0.3150 -0.9299
21871SOL    HW166191   8.111   0.068   4.566  1.5983  0.1648 -0.9991
21871SOL    HW266192   8.140   0.190   4.480  0.7691  0.5637 -0.7268
21872SOL     OW66193   3.918   1.360   7.778  0.6900 -0.1336  0.2310
21872SOL    HW166194   3.993   1.415   7.800 -0.1566  1.5309 -0.8012
21872SOL    HW266195   3.929   1.341   7.684 -0.1023  0.0158  0.1021
21873SOL     OW66196   2.036   6.780   8.026 -0.2328 -0.0389  0.1804
21873SOL    HW166197   2.120   6.739   8.045  0.0238 -0.0935 -1.0107
21873SOL    HW266198   2.035   6.789   7.930 -1.2558  0.6459  0.2458
21874SOL     OW66199   9.793   7.747   8.274 -0.2129  0.0486 -0.1297
21874SOL    HW166200   9.878   7.713   8.302 -1.1347 -0.6745  1.9461
21874SOL    HW266201   9.798   7.841   8.291 -0.6267 -0.3231  2.3106
21875SOL     OW66202   5.034   4.168   5.752  0.3040 -0.3641 -0.2480
21875SOL    HW166203   5.024   4.238   5.816  0.4420  0.1236 -0.7440
21875SOL    HW266204   5.085   4.101   5.797  1.8185  0.6686 -0.3575
21876SOL     OW66205   8.254   2.797   9.261  0.1634  0.3719  0.0980
21876SOL    HW166206   8.161   2.779   9.271  0.0263  1.3309  0.6951
21876SOL    HW266207   8.292   2.714   9.232 -0.8680 -0.0264 -0.1471
21877SOL     OW66208   6.376   1.970   2.066  0.2716 -0.2048 -0.1973
21877SOL    HW166209   6.413   1.927   2.143  0.7019 -0.4821 -0.5565
21877SOL    HW266210   6.396   1.911   1.993 -0.1274  0.0579 -0.5238
21878SOL     OW66211   0.425   5.863   0.234  0.2748  0.2365 -0.0484
21878SOL    HW166212   0.494   5.803   0.264  0.7426  0.5684 -0.4407
21878SOL    HW266213   0.390   5.822   0.155 -0.5394 -0.3329  0.5877
21879SOL     OW66214   4.729   3.082   4.228 -0.3844  0.2191 -0.0733
21879SOL    HW166215   4.716   3.048   4.317  1.1873  1.6274  0.7513
21879SOL    HW266216   4.773   3.011   4.181  0.3692  0.0804  0.8090
21880SOL     OW66217   0.139   1.277   9.159 -0.1397  0.1284 -0.3731
21880SOL    HW166218   0.134   1.252   9.251  0.8063  1.1265 -0.0368
21880SOL    HW266219   0.073   1.222   9.116 -0.8767 -0.0592  0.9470
21881SOL     OW66220   7.164   8.503   8.488 -0.0659  0.0453  0.2557
21881SOL    HW166221   7.237   8.559   8.514  0.4298 -0.1519 -0.6658
21881SOL    HW266222   7.167   8.503   8.392 -1.5342  0.3639  0.1840
21882SOL     OW66223   4.036   9.532   3.496  0.5294 -0.0289  0.6983
21882SOL    HW166224   3.999   9.520   3.408 -3.1894  0.7361  1.9706
21882SOL    HW266225   4.130   9.534   3.482  0.1102  0.6692 -3.3413
21883SOL     OW66226   3.062   5.677   8.896 -0.3709  0.5210  0.0813
21883SOL    HW166227   3.058   5.761   8.941 -0.8529  0.8487 -0.5501
21883SOL    HW266228   3.082   5.700   8.805  0.6360 -0.1315  0.1261
21884SOL     OW66229   9.718   2.928   1.227 -0.1158  0.5822  0.0734
21884SOL    HW166230   9.653   2.998   1.236  1.3126  1.8954  0.6377
21884SOL    HW266231   9.760   2.922   1.313  0.7803  0.0441 -0.3799
21885SOL     OW66232   1.993   6.191   5.796  0.0543 -0.3921 -0.4325
21885SOL    HW166233   2.084   6.175   5.770  1.1036  2.7135  0.8729
21885SOL    HW266234   1.955   6.240   5.723 -0.6348 -1.6730 -0.9715
21886SOL     OW66235   1.941   1.043   5.550 -0.0160  0.1793 -0.2920
21886SOL    HW166236   1.972   1.100   5.480  1.2647 -0.0308  0.0896
21886SOL    HW266237   1.983   0.959   5.534 -0.8778 -0.3046 -0.1027
21887SOL     OW66238   4.410   3.918   3.135  0.3304 -0.1332  0.5474
21887SOL    HW166239   4.392   4.012   3.135  0.0866 -0.0993 -2.2058
21887SOL    HW266240   4.349   3.882   3.200 -1.3946  1.3490 -0.1538
21888SOL     OW66241   9.390   8.241   1.114  0.1293  0.3076 -0.3202
21888SOL    HW166242   9.322   8.271   1.173 -0.0302  1.1159 -0.8996
21888SOL    HW266243   9.359   8.265   1.027  0.8883  0.1830 -0.6356
21889SOL     OW66244   5.253   5.013   3.785  0.3234  0.1563  0.4054
21889SOL    HW166245   5.193   5.063   3.840 -0.0966  0.1836 -0.0658
21889SOL    HW266246   5.235   5.043   3.696  1.6249  0.7630  0.3240
21890SOL     OW66247   8.314   3.975   8.144 -0.1892  0.0163  0.0796
21890SOL    HW166248   8.365   3.901   8.177  1.8130  0.3490 -1.9887
21890SOL    HW266249   8.233   3.935   8.111  1.0430 -1.4116 -1.4102
21891SOL     OW66250   1.333   4.818   9.848  0.0600 -0.1869 -0.3697
21891SOL    HW166251   1.365   4.736   9.811  1.9409 -0.0077  0.7547
21891SOL    HW266252   1.239   4.802   9.864  0.1195 -1.6632 -1.3109
21892SOL     OW66253   3.764   2.798   4.592  0.1673 -0.0042 -0.0991
21892SOL    HW166254   3.772   2.787   4.498 -1.2742  1.7346 -0.4790
21892SOL    HW266255   3.739   2.711   4.624 -2.4622  0.0189 -1.7685
21893SOL     OW66256   2.144   9.948   2.518 -0.5898  0.0240 -0.0108
21893SOL    HW166257   2.141  10.040   2.545  1.4197 -0.0375  0.5847
21893SOL    HW266258   2.181   9.950   2.430 -0.6670 -0.1931 -0.0469
21894SOL     OW66259   2.332   5.315   8.733 -0.2576 -0.2033  0.5530
21894SOL    HW166260   2.288   5.382   8.680  3.3450 -0.5448 -3.4478
21894SOL    HW266261   2.319   5.344   8.824 -2.7653  3.2927 -0.6984
21895SOL     OW66262   7.389   0.598   9.231  0.2797  0.2003 -0.4434
21895SOL    HW166263   7.476   0.582   9.193 -0.7761 -1.4552 -2.3806
21895SOL    HW266264   7.393   0.559   9.318  0.8170 -1.9748 -1.3845
21896SOL     OW66265   0.077   7.811   8.807  0.2199  0.4776 -0.3671
21896SOL    HW166266   0.004   7.756   8.835 -1.4649  2.1147 -1.3097
21896SOL    HW266267   0.114   7.845   8.888 -0.3151 -0.0565  0.1109
21897SOL     OW66268   4.768   3.190   6.124 -0.3101  0.0603 -0.0273
21897SOL    HW166269   4.719   3.149   6.196 -1.3053  1.4819  0.1455
21897SOL    HW266270   4.710   3.259   6.093  1.6589  1.9289  0.2603
21898SOL     OW66271   0.183   4.866   9.023 -0.5834  0.0327 -0.3746
21898SOL    HW166272   0.181   4.909   8.937 -2.2933  0.9405  0.0766
21898SOL    HW266273   0.251   4.799   9.015  0.0772  0.8533 -2.0641
21899SOL     OW66274   3.433   5.321   5.044 -0.4193  0.0276  0.3054
21899SOL    HW166275   3.484   5.244   5.069 -0.2033 -0.9916 -2.8719
21899SOL    HW266276   3.467   5.391   5.101 -0.2928 -2.0307  2.9621
21900SOL     OW66277   0.072   3.422   8.449 -0.0156 -0.7481 -0.3705
21900SOL    HW166278   0.080   3.514   8.476  1.6033 -0.7702 -0.6310
21900SOL    HW266279   0.095   3.372   8.527  0.1877 -0.8930 -0.5215
21901SOL     OW66280   5.259   7.896   4.846 -0.2502  0.8411  0.4842
21901SOL    HW166281   5.354   7.911   4.847 -0.6275  3.8638 -0.2351
21901SOL    HW266282   5.245   7.841   4.768  0.9805 -0.7714  1.3345
21902SOL     OW66283   2.564   4.438   7.912  0.1194 -0.3573  0.3033
21902SOL    HW166284   2.475   4.459   7.886 -0.5943 -2.0245  1.2655
21902SOL    HW266285   2.591   4.512   7.966 -0.4272  0.4692 -0.5337
21903SOL     OW66286   4.077   8.211   8.717 -0.5152 -0.6699  0.2245
21903SOL    HW166287   4.113   8.269   8.650 -1.6989 -1.1295 -0.8411
21903SOL    HW266288   4.148   8.201   8.781  0.8889 -0.7843 -1.2964
21904SOL     OW66289   2.809   6.051   5.251  0.5702  0.3711  0.3046
21904SOL    HW166290   2.815   6.096   5.167  1.2564  1.7484  1.0442
21904SOL    HW266291   2.877   5.984   5.248  0.8451  0.6663 -0.0922
21905SOL     OW66292   0.073   7.709   2.073  0.1668  0.0995 -0.1230
21905SOL    HW166293   0.132   7.775   2.110 -1.4112  1.0406  0.8478
21905SOL    HW266294   0.002   7.702   2.137 -1.7337  0.4135 -2.0792
21906SOL     OW66295   9.313   5.081   5.692 -0.0834  0.1989 -0.2976
21906SOL    HW166296   9.347   5.119   5.611 -1.9400 -0.6387 -1.5642
21906SOL    HW266297   9.302   5.155   5.751 -0.1199  1.0839 -1.3794
21907SOL     OW66298   8.859   7.235   6.278 -0.1081 -0.3006 -0.7480
21907SOL    HW166299   8.793   7.165   6.282  0.9015 -1.2033  1.3294
21907SOL    HW266300   8.924   7.210   6.343 -0.2016  3.1210  0.8460
21908SOL     OW66301   1.643   7.715   2.537 -0.2077 -0.5130  0.3167
21908SOL    HW166302   1.553   7.708   2.568 -0.1112  2.7715  1.6577
21908SOL    HW266303   1.649   7.802   2.498  2.2922 -0.8015 -0.1173
21909SOL     OW66304   1.136   3.876   3.331 -0.1249 -0.0598  0.0532
21909SOL    HW166305   1.159   3.793   3.374  0.0275  0.0076  0.1049
21909SOL    HW266306   1.107   3.932   3.403 -1.6260 -0.5358 -0.1641
21910SOL     OW66307   4.520   7.607   4.887  0.0216  0.7490 -0.3164
21910SOL    HW166308   4.455   7.541   4.862 -1.1606  1.3655  1.0239
21910SOL    HW266309   4.598   7.583   4.836 -0.1403 -2.0542  0.5739
21911SOL     OW66310   3.513   4.760   9.468  0.2085  0.2181 -0.7454
21911SOL    HW166311   3.579   4.826   9.448 -0.7716  1.3921 -0.2077
21911SOL    HW266312   3.449   4.768   9.397  0.2129 -0.3246 -0.8130
21912SOL     OW66313   8.080   9.093   9.013 -0.2220 -0.1270 -0.5843
21912SOL    HW166314   8.011   9.106   8.948 -1.4468  0.9480  0.8758
21912SOL    HW266315   8.039   9.113   9.097  1.7868  0.2724  0.3675
21913SOL     OW66316   6.318   3.172   7.609 -0.2503 -0.6999  0.4407
21913SOL    HW166317   6.293   3.095   7.660 -1.6194 -0.0402  0.7877
21913SOL    HW266318   6.322   3.244   7.672 -1.6686  0.0644 -0.3003
21914SOL     OW66319   4.788   6.135   4.875 -0.3019  0.5393 -0.0003
21914SOL    HW166320   4.807   6.122   4.782 -0.1537  2.3817 -0.2733
21914SOL    HW266321   4.700   6.099   4.887 -0.1926 -0.0056 -0.7855
21915SOL     OW66322   5.253   1.799   8.799  0.1326 -0.2750 -0.0591
21915SOL    HW166323   5.245   1.714   8.841 -2.8985  0.1103  0.3889
21915SOL    HW266324   5.178   1.849   8.832  1.1392  2.1669 -1.2152
21916SOL     OW66325   8.718   5.410   6.348  0.5843  0.1943  0.2557
21916SOL    HW166326   8.780   5.478   6.376  1.3393 -0.4345  0.1260
21916SOL    HW266327   8.730   5.339   6.411  1.2158 -0.6206 -0.7546
21917SOL     OW66328   2.700   9.402   5.292 -0.4694 -0.3302  0.3619
21917SOL    HW166329   2.747   9.485   5.297  0.5288 -0.7673 -1.1659
21917SOL    HW266330   2.741   9.348   5.360  0.6675 -0.3990 -0.3408
21918SOL     OW66331   0.110   2.510   7.337  0.5112 -0.3278 -0.2878
21918SOL    HW166332   0.035   2.527   7.280  0.5180  0.9524  0.0345
21918SOL    HW266333   0.150   2.431   7.302  0.2616  0.1714 -1.7925
21919SOL     OW66334   2.016   7.944   8.748  0.4143  0.0804 -0.2283
21919SOL    HW166335   2.007   7.945   8.843 -0.6365 -0.1263 -0.3104
21919SOL    HW266336   2.038   7.853   8.727 -0.0244 -0.0319 -0.2234
21920SOL     OW66337   6.885   6.945   0.819  0.2254 -0.2067  0.2616
21920SOL    HW166338   6.944   7.008   0.777 -0.4526  0.4211  0.2246
21920SOL    HW266339   6.921   6.933   0.907  1.3974 -1.1840 -0.3219
21921SOL     OW66340   1.645   1.927   4.002 -0.0547  0.4097 -0.2442
21921SOL    HW166341   1.646   1.891   3.913 -0.4714  0.6776 -0.3611
21921SOL    HW266342   1.591   2.006   3.995  1.9066  1.8128 -0.2916
21922SOL     OW66343   8.884   3.323   4.188 -0.1743 -0.0397 -0.2816
21922SOL    HW166344   8.837   3.240   4.198  0.5010 -0.4810 -0.6432
21922SOL    HW266345   8.910   3.347   4.277 -2.2975  0.9751  0.1330
21923SOL     OW66346   4.325   7.743   8.061  0.0652  0.6315  0.1136
21923SOL    HW166347   4.388   7.751   7.989  0.5823 -0.2475  0.4544
21923SOL    HW266348   4.353   7.665   8.109 -0.5256  0.9675  1.0261
21924SOL     OW66349   4.152   3.021   9.978  0.0478  0.1078 -0.3412
21924SOL    HW166350   4.243   3.001   9.959  0.1419 -0.5779  0.7359
21924SOL    HW266351   4.150   3.116   9.988  0.9658  0.0056  1.0820
21925SOL     OW66352   1.781   1.198   0.212 -0.2276  0.2259  0.2882
21925SOL    HW166353   1.813   1.109   0.224  0.6466  0.6755  1.5734
21925SOL    HW266354   1.760   1.228   0.301 -1.9357  0.8016 -0.2657
21926SOL     OW66355   4.582   7.625   1.249 -0.3567 -0.7035  0.0071
21926SOL    HW166356   4.566   7.719   1.234  0.6662 -0.4568  0.3684
21926SOL    HW266357   4.639   7.623   1.326  1.1851 -1.5343 -1.1207
21927SOL     OW66358   5.109   0.417   2.726  0.5992 -0.1429 -0.7624
21927SOL    HW166359   5.053   0.431   2.802 -1.3945  1.3401 -2.4191
21927SOL    HW266360   5.197   0.405   2.763 -0.2523  0.7869  1.7345
21928SOL     OW66361   1.550   9.669   2.092  0.4692  0.4326 -0.7203
21928SOL    HW166362   1.466   9.637   2.059  0.0091 -0.6753  1.3356
21928SOL    HW266363   1.611   9.598   2.076  0.4990  0.3563 -0.2965
21929SOL     OW66364   8.252   2.708   2.779 -0.6828 -0.1706  0.4154
21929SOL    HW166365   8.238   2.642   2.711 -3.0385  0.2973  0.3492
21929SOL    HW266366   8.271   2.658   2.858  0.1478 -0.7962 -0.1656
21930SOL     OW66367   4.269   9.346   7.218 -0.5052  0.2182 -0.2479
21930SOL    HW166368   4.351   9.345   7.268 -0.0076 -0.3163 -1.0447
21930SOL    HW266369   4.254   9.254   7.196 -0.0593  0.5458 -2.0908
21931SOL     OW66370   8.489   8.210   6.737  0.2147  0.0324  0.5503
21931SOL    HW166371   8.394   8.201   6.742  0.1227  0.4334 -0.3092
21931SOL    HW266372   8.520   8.122   6.713  0.1941 -0.4446  2.1462
21932SOL     OW66373   8.172   4.372   0.310 -0.0681  0.6123 -0.5032
21932SOL    HW166374   8.242   4.319   0.346 -0.1265  0.4813 -0.5813
21932SOL    HW266375   8.217   4.447   0.270  0.0528  0.3782 -0.8170
21933SOL     OW66376  -0.004   1.896   6.092 -0.5097 -0.0358 -0.7863
21933SOL    HW166377   0.001   1.857   6.180 -1.2843  0.7362 -0.3801
21933SOL    HW266378   0.087   1.898   6.062 -0.0050  1.0706  0.6424
21934SOL     OW66379   0.969   6.322   9.130  0.0886 -0.7815 -0.1508
21934SOL    HW166380   0.925   6.404   9.108  1.3601 -0.4048 -1.4125
21934SOL    HW266381   1.040   6.348   9.188  0.8060 -0.9064 -0.9601
21935SOL     OW66382   8.777   7.965   5.798 -0.4769 -0.1158  0.3417
21935SOL    HW166383   8.750   8.045   5.842 -2.4913  0.0986 -1.1423
21935SOL    HW266384   8.741   7.894   5.851 -4.8911  0.1527 -1.8132
21936SOL     OW66385   6.062   3.235   7.221 -0.4613  0.3779 -1.0373
21936SOL    HW166386   6.058   3.293   7.145  1.3304 -0.0397 -1.4936
21936SOL    HW266387   6.091   3.151   7.186 -0.3551 -0.0335  0.0022
21937SOL     OW66388   1.859   8.562   9.231 -0.6228 -0.1785 -0.1222
21937SOL    HW166389   1.930   8.512   9.272 -0.3707  0.2894  0.0254
21937SOL    HW266390   1.891   8.581   9.143 -0.7109 -0.2628 -0.1730
21938SOL     OW66391   5.483   7.883   1.671  0.5308  0.0951  0.7700
21938SOL    HW166392   5.403   7.837   1.646  1.0106 -0.0898 -0.5087
21938SOL    HW266393   5.537   7.880   1.592  1.5587  0.7268  1.4393
21939SOL     OW66394   0.432   3.359   0.620  0.4036 -0.1259 -0.3307
21939SOL    HW166395   0.340   3.334   0.613  0.3287  0.0299  0.0502
21939SOL    HW266396   0.480   3.286   0.581  0.1212 -0.2252 -0.4929
21940SOL     OW66397   9.333   2.694   4.730  0.2926  0.1137  0.0545
21940SOL    HW166398   9.279   2.747   4.672 -0.9682 -1.0274  0.1371
21940SOL    HW266399   9.270   2.645   4.784  1.4181 -0.3659  0.9811
21941SOL     OW66400   7.020   0.153   2.166  0.0366  0.4357 -0.1692
21941SOL    HW166401   6.942   0.207   2.155  0.1237  0.4323 -0.8169
21941SOL    HW266402   7.058   0.183   2.249 -0.8019  0.2397  0.2941
21942SOL     OW66403   6.316   6.011   4.815  0.3952  0.4895 -0.2104
21942SOL    HW166404   6.388   5.949   4.800  0.6751  0.8110 -0.2075
21942SOL    HW266405   6.237   5.960   4.798  0.4889 -0.6004  2.1157
21943SOL     OW66406   4.012   7.957   7.164  0.3600 -0.6496  0.2206
21943SOL    HW166407   4.060   7.879   7.136 -0.7261 -1.7763  1.3425
21943SOL    HW266408   4.052   8.029   7.115  0.4668 -2.0795 -1.9263
21944SOL     OW66409   5.799   5.684   0.875 -0.4632  0.5869 -0.1553
21944SOL    HW166410   5.813   5.734   0.795  0.7352  0.0070 -0.3207
21944SOL    HW266411   5.815   5.593   0.850 -0.5002  0.3524  0.6487
21945SOL     OW66412   1.112   9.925   0.710  0.5112 -0.4149  0.6239
21945SOL    HW166413   1.069   9.884   0.635 -0.1522 -1.1980  1.4140
21945SOL    HW266414   1.188   9.969   0.673  0.3308 -1.0020 -0.4728
21946SOL     OW66415   1.471   3.086   9.594 -0.0422 -0.8647 -0.3039
21946SOL    HW166416   1.547   3.109   9.649 -1.0355  1.8465  0.0717
21946SOL    HW266417   1.485   3.133   9.512 -1.3708 -0.1748 -0.1631
21947SOL     OW66418   7.273   8.168   7.593  0.0302 -0.8780  0.1382
21947SOL    HW166419   7.248   8.140   7.681 -1.7447 -1.6034 -0.5454
21947SOL    HW266420   7.340   8.106   7.566  1.3456 -0.0234  1.3397
21948SOL     OW66421   7.901   7.622   1.229 -0.0301 -0.3839  0.0238
21948SOL    HW166422   7.928   7.590   1.143  0.6203 -0.7865  0.3661
21948SOL    HW266423   7.983   7.649   1.271 -0.0920 -1.9181  1.2038
21949SOL     OW66424   5.046   6.767   5.027 -0.1432  0.4960 -0.6606
21949SOL    HW166425   4.985   6.733   5.093  1.8924  0.0724  1.1203
21949SOL    HW266426   5.001   6.754   4.944 -2.4568  0.2023  0.5417
21950SOL     OW66427   6.318   3.214   2.216  0.1213  0.2260  1.0992
21950SOL    HW166428   6.280   3.301   2.223 -3.1964 -1.0413  0.7587
21950SOL    HW266429   6.334   3.202   2.122 -0.7355  0.0201  0.9673
21951SOL     OW66430   3.207   8.010   4.742  1.0776 -0.6999  0.0464
21951SOL    HW166431   3.256   8.069   4.800  0.0470 -0.0201  0.2631
21951SOL    HW266432   3.118   8.046   4.741  1.0634 -0.6354 -2.0083
21952SOL     OW66433   7.756   3.711   6.483 -0.2005 -0.4450 -0.6574
21952SOL    HW166434   7.797   3.764   6.551  0.5538 -0.2879 -1.2197
21952SOL    HW266435   7.741   3.626   6.525 -0.3518 -0.1499 -0.1018
21953SOL     OW66436   7.173   1.570   3.840 -0.0471 -0.3354  0.0171
21953SOL    HW166437   7.084   1.561   3.872 -0.3066 -1.5973 -0.9651
21953SOL    HW266438   7.206   1.650   3.880 -1.9679  0.7116 -0.4313
21954SOL     OW66439   9.278   0.255   0.823 -0.4182 -0.4192  0.3838
21954SOL    HW166440   9.232   0.234   0.742  1.5365 -2.9177 -0.2085
21954SOL    HW266441   9.354   0.306   0.795 -0.8738  0.6196  0.9562
21955SOL     OW66442   3.392   1.512   2.176  0.4126 -0.7654  0.7897
21955SOL    HW166443   3.354   1.520   2.264 -0.3412 -0.4238  0.4424
21955SOL    HW266444   3.486   1.504   2.191  0.7111  2.5951  1.5312
21956SOL     OW66445   4.006   2.579   6.338  0.4018  0.1296 -0.4500
21956SOL    HW166446   4.010   2.485   6.318 -0.9706  0.0581 -0.4925
21956SOL    HW266447   3.971   2.619   6.258  0.3031  0.5753 -0.1886
21957SOL     OW66448   3.712   4.462   5.772  0.2467  0.1580  0.4160
21957SOL    HW166449   3.710   4.505   5.858 -0.4046 -1.0287  1.0171
21957SOL    HW266450   3.642   4.398   5.775  0.0035  0.3078 -1.1426
21958SOL     OW66451   1.038   7.234   8.225  0.1163  0.3309 -0.3584
21958SOL    HW166452   1.065   7.266   8.139  0.6964  0.3385 -0.1800
21958SOL    HW266453   1.009   7.144   8.209  0.6551  0.1770 -0.4914
21959SOL     OW66454   8.172   9.317   0.683 -0.0447 -0.2233 -0.0456
21959SOL    HW166455   8.080   9.337   0.702 -0.2490  0.5407 -1.6766
21959SOL    HW266456   8.186   9.231   0.723 -1.4266 -0.3040  0.3389
21960SOL     OW66457   0.734   8.168   8.436 -0.3732  0.1891  0.3548
21960SOL    HW166458   0.678   8.127   8.370 -0.8057 -2.5565  2.2804
21960SOL    HW266459   0.676   8.224   8.486 -0.2087  1.6206 -0.9687
21961SOL     OW66460   5.191   7.125   1.390  0.1224  0.2790  0.0781
21961SOL    HW166461   5.241   7.044   1.382  1.9121  1.4228 -1.1288
21961SOL    HW266462   5.238   7.188   1.335 -2.0826  1.7406 -0.2923
21962SOL     OW66463   3.612   9.949   5.039 -0.1593  0.0652 -0.3905
21962SOL    HW166464   3.560   9.913   4.967 -0.2960  0.3043 -0.4118
21962SOL    HW266465   3.554  10.012   5.081  0.0347  0.1639 -0.2705
21963SOL     OW66466   5.090   9.197   8.455  0.0424  0.0108  0.5015
21963SOL    HW166467   5.147   9.141   8.508  0.2150 -0.8819 -0.5881
21963SOL    HW266468   5.003   9.157   8.462 -0.0927  0.3398  0.7281
21964SOL     OW66469   0.404   4.031   7.347  0.5991  0.3331  0.0408
21964SOL    HW166470   0.383   3.941   7.321  2.1294 -0.0198 -0.0619
21964SOL    HW266471   0.332   4.056   7.405 -1.0231 -0.1440 -1.6554
21965SOL     OW66472   1.284   7.114   2.226 -0.0940 -0.0250 -0.2801
21965SOL    HW166473   1.271   7.072   2.311  0.0117  1.0862  0.3007
21965SOL    HW266474   1.207   7.090   2.175 -0.4731 -0.1763  0.3534
21966SOL     OW66475   9.224   3.678   8.671 -0.3110 -0.5179  0.4258
21966SOL    HW166476   9.243   3.599   8.721  3.1557  1.2315  2.1918
21966SOL    HW266477   9.204   3.744   8.737  3.0423  1.5417 -0.4001
21967SOL     OW66478   6.898   5.353   1.861  0.6066 -0.2642 -0.0720
21967SOL    HW166479   6.890   5.332   1.768 -1.5603 -0.7421  0.1766
21967SOL    HW266480   6.886   5.448   1.865 -1.0684 -0.4493 -0.1502
21968SOL     OW66481   7.817   4.817   8.879  0.0642  0.5952  0.1945
21968SOL    HW166482   7.766   4.881   8.829  1.4695  0.9518 -0.8370
21968SOL    HW266483   7.752   4.755   8.911 -0.9818  0.6711 -1.6180
21969SOL     OW66484   8.069   1.008   0.704 -0.3570  0.0962 -0.2434
21969SOL    HW166485   7.988   0.957   0.702 -0.4592  0.1769  1.0626
21969SOL    HW266486   8.104   1.001   0.615 -3.3680  2.6381 -1.8168
21970SOL     OW66487   0.632   0.858   5.266  0.3467 -0.3699 -0.7380
21970SOL    HW166488   0.683   0.893   5.193  1.4619 -0.4071  0.0073
21970SOL    HW266489   0.559   0.920   5.277  0.4066 -0.1416 -1.6030
21971SOL     OW66490   3.479   2.571   8.553  0.7929 -0.0537  0.4219
21971SOL    HW166491   3.396   2.542   8.591  0.0146  1.5003 -0.0087
21971SOL    HW266492   3.534   2.493   8.553  0.2712 -0.5218  3.1683
21972SOL     OW66493   3.250   1.309   9.658 -0.5872  0.1438  0.6402
21972SOL    HW166494   3.291   1.244   9.601 -0.2595  0.9129 -0.0190
21972SOL    HW266495   3.165   1.326   9.617  0.6767  2.6524 -1.2170
21973SOL     OW66496   0.283   9.536   1.521  0.3442 -0.5456 -0.4841
21973SOL    HW166497   0.215   9.502   1.463 -0.3791 -0.5985  0.3713
21973SOL    HW266498   0.337   9.592   1.465 -0.5180 -0.3481 -1.1328
21974SOL     OW66499   9.879   3.278   6.530  0.1085 -0.2750 -0.3324
21974SOL    HW166500   9.965   3.259   6.568 -0.4419 -0.3082  0.9647
21974SOL    HW266501   9.831   3.195   6.539 -0.9461  0.4922  1.5124
21975SOL     OW66502   4.197   4.069   1.941  0.1120  0.4171 -0.0832
21975SOL    HW166503   4.189   4.045   2.034  2.3772 -0.0580  0.0435
21975SOL    HW266504   4.275   4.124   1.937  1.2567 -1.2053 -1.9565
21976SOL     OW66505   0.145   6.590   3.463 -0.3460 -0.2166  0.3862
21976SOL    HW166506   0.084   6.597   3.390  1.6162 -2.5785 -1.6908
21976SOL    HW266507   0.135   6.500   3.494  1.2823 -0.3354  0.6594
21977SOL     OW66508   1.349   9.640   8.287  0.4542  0.1315 -0.3480
21977SOL    HW166509   1.392   9.574   8.232  0.3479 -0.1468 -0.0942
21977SOL    HW266510   1.295   9.690   8.225 -0.4658 -0.8326 -0.3422
21978SOL     OW66511   5.996   4.378   1.802 -0.3802  0.2518 -0.4414
21978SOL    HW166512   6.017   4.317   1.732 -1.1219 -0.3123 -0.1877
21978SOL    HW266513   5.900   4.380   1.805 -0.3678  1.3772 -0.3962
21979SOL     OW66514   3.039   6.954   7.882  0.3238 -0.8947 -0.1152
21979SOL    HW166515   2.946   6.958   7.904  0.5796 -0.0007  0.8647
21979SOL    HW266516   3.062   6.862   7.896  0.0052 -0.7562  1.4790
21980SOL     OW66517   2.571   3.129   9.757 -0.7258  0.2784  0.1794
21980SOL    HW166518   2.630   3.103   9.687  0.8753 -0.0450  1.5866
21980SOL    HW266519   2.495   3.072   9.747 -0.1131 -0.4043 -0.7072
21981SOL     OW66520   6.994   1.350   5.606  0.0164  0.1523 -0.2826
21981SOL    HW166521   6.976   1.274   5.551  0.0779  0.5730 -0.8905
21981SOL    HW266522   6.915   1.359   5.659 -0.7080  0.6864 -1.4170
21982SOL     OW66523   2.953   8.258   3.237 -0.0575  0.3138 -0.3247
21982SOL    HW166524   2.972   8.352   3.237 -2.1912  0.8231  0.8572
21982SOL    HW266525   2.876   8.249   3.180 -0.1236 -0.6515 -0.1066
21983SOL     OW66526   2.124   6.961   5.080 -0.6137  0.5090 -0.6940
21983SOL    HW166527   2.036   6.924   5.073 -0.6827  0.3971  0.6309
21983SOL    HW266528   2.182   6.889   5.056 -0.8519  0.3907 -0.9232
21984SOL     OW66529   6.310   5.648   0.342 -0.3311 -0.4863  0.0023
21984SOL    HW166530   6.257   5.728   0.341  0.9186  0.4270  1.6391
21984SOL    HW266531   6.355   5.650   0.426 -1.4209 -3.7485  0.8088
21985SOL     OW66532   9.744   5.442   1.346  0.0370  0.2737 -0.5007
21985SOL    HW166533   9.668   5.432   1.290 -0.8179 -0.5440  0.7534
21985SOL    HW266534   9.748   5.536   1.365 -0.9969  0.2501 -0.1295
21986SOL     OW66535   1.588   3.450   2.577  0.3880  0.0145 -0.5102
21986SOL    HW166536   1.510   3.420   2.623  0.3473 -0.4560 -0.8797
21986SOL    HW266537   1.658   3.444   2.642  0.2061 -0.0259 -0.3191
21987SOL     OW66538   3.667   3.436   8.425  0.2482  0.3665  0.0448
21987SOL    HW166539   3.697   3.364   8.369 -0.1362 -0.0216  0.3339
21987SOL    HW266540   3.736   3.446   8.491 -0.5867 -1.0462  1.1827
21988SOL     OW66541   5.302   3.922   4.783  0.3323  0.0312 -0.1247
21988SOL    HW166542   5.248   3.907   4.861  0.4971  1.0540  0.1971
21988SOL    HW266543   5.269   4.005   4.747 -0.1830 -0.7507 -1.5233
21989SOL     OW66544   8.584   4.680   3.387  0.1281  0.1184 -0.1044
21989SOL    HW166545   8.508   4.737   3.399  1.1386  1.4851  0.0126
21989SOL    HW266546   8.653   4.738   3.356  1.2938 -0.9877  0.3255
21990SOL     OW66547   8.130   9.431   1.555 -0.2565  0.0504  0.0215
21990SOL    HW166548   8.209   9.470   1.591 -0.9650  0.7075  0.9158
21990SOL    HW266549   8.078   9.506   1.524 -0.7913 -0.3192  0.0096
21991SOL     OW66550   3.019   1.090   1.173 -0.8960  0.2794  0.1021
21991SOL    HW166551   2.981   1.031   1.107 -1.0309 -1.2839  1.5177
21991SOL    HW266552   2.944   1.137   1.209 -1.1694 -0.6981  0.8630
21992SOL     OW66553   6.270   6.727   9.902  0.2978 -0.0021 -1.1530
21992SOL    HW166554   6.296   6.796   9.840  0.1088 -0.9772 -2.3532
21992SOL    HW266555   6.200   6.767   9.953 -0.9260  0.2182 -2.9016
21993SOL     OW66556   6.292   9.207   4.726  0.1057 -0.0422 -0.6883
21993SOL    HW166557   6.291   9.242   4.815 -1.3446 -2.1760  0.2010
21993SOL    HW266558   6.357   9.260   4.680  0.7718  1.2156  1.5883
21994SOL     OW66559   9.074   8.161   2.750  0.3749  0.3754 -0.2672
21994SOL    HW166560   9.045   8.075   2.781  1.2266 -0.0969 -0.7393
21994SOL    HW266561   9.169   8.161   2.764  0.4127  1.1543 -0.4723
21995SOL     OW66562   0.380   0.917   2.970 -0.1262  0.1360 -0.1919
21995SOL    HW166563   0.440   0.878   2.906  0.0494 -0.6978  0.4687
21995SOL    HW266564   0.416   0.893   3.055 -2.2036 -1.7365  0.2430
21996SOL     OW66565   3.318   9.035   0.878 -0.0249  0.1952  0.1261
21996SOL    HW166566   3.405   9.051   0.915 -0.9120 -2.2291  3.8899
21996SOL    HW266567   3.283   9.123   0.862  2.2415  1.3044  0.7168
21997SOL     OW66568   7.166   7.308   2.852 -0.1629 -0.2859  0.2184
21997SOL    HW166569   7.106   7.365   2.804  0.0935  0.5084  0.8301
21997SOL    HW266570   7.131   7.305   2.941  0.8372  0.4177  0.6582
21998SOL     OW66571   0.869   7.904   9.257 -0.0686 -0.4990  0.2531
21998SOL    HW166572   0.843   7.812   9.262 -0.9642 -0.2795 -0.1989
21998SOL    HW266573   0.858   7.926   9.165 -0.3915  0.2114  0.4602
21999SOL     OW66574   7.047   4.088   3.289  0.4261  0.2324  0.8890
21999SOL    HW166575   7.066   4.038   3.369 -2.1722  0.4491  1.7229
21999SOL    HW266576   7.004   4.025   3.231 -2.0159  1.1773  1.5819
22000SOL     OW66577   5.308   1.535   2.785 -0.8858  0.4411  0.0656
22000SOL    HW166578   5.251   1.532   2.862  0.5390  1.3054  1.2085
22000SOL    HW266579   5.394   1.562   2.819  0.3659 -1.2670 -1.4959
22001SOL     OW66580   0.363   1.228   0.532  0.4357 -0.0716  0.1092
22001SOL    HW166581   0.352   1.156   0.470 -2.1117 -0.2123  0.6271
22001SOL    HW266582   0.417   1.292   0.485  0.6230 -1.2389 -1.3078
22002SOL     OW66583   4.829   8.253   9.365 -0.6453 -0.1367 -0.0394
22002SOL    HW166584   4.847   8.309   9.289 -1.7657  0.2166 -0.0667
22002SOL    HW266585   4.818   8.166   9.328 -2.5440  0.2436 -0.5223
22003SOL     OW66586   9.293   2.896   6.907 -0.5722 -0.0369 -0.1366
22003SOL    HW166587   9.282   2.808   6.941  0.5996  0.2046  0.9378
22003SOL    HW266588   9.230   2.949   6.956 -0.5257 -0.0905 -0.0189
22004SOL     OW66589   9.030   0.388   7.176  0.2676 -0.2681  0.0160
22004SOL    HW166590   9.108   0.404   7.123  0.5068  1.7357  0.8809
22004SOL    HW266591   8.957   0.413   7.120  0.4165  0.3514  0.0992
22005SOL     OW66592   6.307   5.372   7.238  0.2955 -0.0670  0.2988
22005SOL    HW166593   6.316   5.278   7.252 -0.7879 -0.2544 -0.1306
22005SOL    HW266594   6.226   5.381   7.188  1.2412  0.9813 -1.1027
22006SOL     OW66595   6.873   3.283   8.739 -0.2371 -0.1291  0.0598
22006SOL    HW166596   6.844   3.223   8.807 -1.4584  0.3416 -0.0208
22006SOL    HW266597   6.798   3.341   8.724 -0.1532 -0.4713 -1.9683
22007SOL     OW66598   3.226   6.475   2.780 -0.3581 -0.1992  0.0499
22007SOL    HW166599   3.136   6.443   2.781 -0.7873  0.7950  2.8100
22007SOL    HW266600   3.245   6.491   2.688 -3.1350 -0.0980 -0.5969
22008SOL     OW66601   6.457   6.102   6.916 -0.6751  0.4422 -0.0530
22008SOL    HW166602   6.453   6.172   6.850  2.3649  0.4643 -0.3287
22008SOL    HW266603   6.530   6.126   6.972 -0.7420 -1.6066  0.9844
22009SOL     OW66604   9.617   8.959   0.253 -0.3490 -0.0469 -0.2325
22009SOL    HW166605   9.666   8.879   0.272  0.6589  0.7120  0.4888
22009SOL    HW266606   9.645   8.984   0.165  1.9759  1.3054  0.7919
22010SOL     OW66607   0.593   0.337   8.938 -0.6510 -0.5725 -0.0352
22010SOL    HW166608   0.550   0.396   8.877  0.6438 -0.8759 -1.3010
22010SOL    HW266609   0.681   0.373   8.949 -1.3035  0.3345  2.9156
22011SOL     OW66610   3.584   0.306   8.063 -0.5257  0.4489  0.4552
22011SOL    HW166611   3.594   0.234   8.000  0.8416  0.1558  0.9824
22011SOL    HW266612   3.552   0.379   8.010  0.5516  0.1923 -0.6060
22012SOL     OW66613   7.614   3.055   9.377  0.1666 -0.3258 -0.3504
22012SOL    HW166614   7.704   3.058   9.409 -0.0777 -0.2619  0.3456
22012SOL    HW266615   7.564   3.019   9.450 -0.2611 -1.0667 -0.9932
22013SOL     OW66616   5.764   0.724   1.526 -0.1953 -0.0097  0.8403
22013SOL    HW166617   5.848   0.768   1.511 -0.0859  0.6788  3.0716
22013SOL    HW266618   5.759   0.657   1.457  1.4954  0.8771 -0.2149
22014SOL     OW66619   6.151   0.189   8.788 -0.1532  0.0278  0.5422
22014SOL    HW166620   6.173   0.279   8.765  1.4487 -0.5911 -0.4558
22014SOL    HW266621   6.075   0.168   8.734 -0.5682  0.7832  0.8237
22015SOL     OW66622   5.889   0.885   5.918  0.1596  0.3107 -0.0552
22015SOL    HW166623   5.825   0.861   5.985 -1.7291 -4.0251 -2.9726
22015SOL    HW266624   5.961   0.823   5.930  1.3781  1.6603 -0.1146
22016SOL     OW66625   3.505   4.614   2.782 -0.2907 -0.4633 -0.2245
22016SOL    HW166626   3.479   4.614   2.874 -0.0366  1.5190 -0.1034
22016SOL    HW266627   3.425   4.591   2.735 -0.6537 -0.6110  0.4549
22017SOL     OW66628   6.912   5.210   0.672  0.4048 -0.2208  0.1986
22017SOL    HW166629   6.877   5.239   0.757  2.5288 -1.4727  1.6042
22017SOL    HW266630   6.880   5.120   0.662  1.6218 -0.7084  0.5808
22018SOL     OW66631   8.577   8.366   2.397 -0.0265  0.2378 -0.1111
22018SOL    HW166632   8.563   8.322   2.481  1.2320  0.7087  0.3725
22018SOL    HW266633   8.546   8.455   2.411  0.0335  0.2721 -0.1982
22019SOL     OW66634   6.752   7.365   8.907 -0.0987  0.1439 -0.0522
22019SOL    HW166635   6.717   7.300   8.968 -0.1654 -0.0300 -0.2777
22019SOL    HW266636   6.846   7.368   8.925 -0.2354  0.6966  0.6401
22020SOL     OW66637   1.199   3.959   8.425  0.2904 -0.0351 -0.0065
22020SOL    HW166638   1.236   3.871   8.416  1.0978 -0.2540  3.7823
22020SOL    HW266639   1.104   3.947   8.417  0.5030 -0.6170 -2.6760
22021SOL     OW66640   1.339   2.640   5.076  0.2421  0.0411  0.4216
22021SOL    HW166641   1.294   2.719   5.107 -1.5615 -0.2524 -1.2274
22021SOL    HW266642   1.270   2.574   5.071  1.3765 -1.1650  0.1343
22022SOL     OW66643   9.623   7.681   2.838  0.2726  0.0667 -0.0662
22022SOL    HW166644   9.666   7.765   2.824  0.2900  0.3064  1.2980
22022SOL    HW266645   9.667   7.644   2.914 -0.2165 -0.8581 -0.2201
22023SOL     OW66646   6.788   4.175   4.572 -0.3901 -0.1714 -0.4356
22023SOL    HW166647   6.824   4.215   4.493  0.3465 -1.3526 -0.7333
22023SOL    HW266648   6.714   4.230   4.596  2.4061  3.3662  1.0701
22024SOL     OW66649   6.924   7.411   6.779 -0.0970  0.1375  0.2429
22024SOL    HW166650   6.831   7.399   6.795 -0.0586  0.7383  0.9969
22024SOL    HW266651   6.951   7.333   6.730 -0.6182 -0.9172  1.5761
22025SOL     OW66652   8.336   9.073   9.048 -0.1225  0.3108  0.2698
22025SOL    HW166653   8.363   8.982   9.034 -1.0694  0.0365  0.1486
22025SOL    HW266654   8.240   9.069   9.051 -0.2480  1.4896 -1.1035
22026SOL     OW66655   5.630  -0.007   8.171 -0.4982  0.6313  0.0277
22026SOL    HW166656   5.593  -0.041   8.089  0.1293  0.3183 -0.1377
22026SOL    HW266657   5.700   0.052   8.142  0.8924 -0.8090  0.3274
22027SOL     OW66658   0.935   5.845   3.551 -0.5127 -0.2703 -0.5316
22027SOL    HW166659   0.963   5.836   3.642  0.5101  0.5852 -0.7525
22027SOL    HW266660   1.015   5.832   3.500 -0.7974  0.7058 -1.2417
22028SOL     OW66661   2.099   5.597   8.825  0.2323 -0.0940 -0.6708
22028SOL    HW166662   2.066   5.559   8.906  2.1030 -2.6620 -0.9810
22028SOL    HW266663   2.177   5.647   8.852  0.9204 -1.0409 -0.8312
22029SOL     OW66664   1.291   5.240   3.691  0.1311  0.2532  0.2244
22029SOL    HW166665   1.294   5.300   3.617  0.5881  0.6984  0.5933
22029SOL    HW266666   1.233   5.282   3.754 -1.0216 -0.5723 -0.2456
22030SOL     OW66667   1.173   2.021   3.590 -0.1707 -0.0332  0.2851
22030SOL    HW166668   1.227   1.967   3.648  0.5257  1.4229  1.0269
22030SOL    HW266669   1.164   2.104   3.635 -2.2844  0.0815 -0.2708
22031SOL     OW66670   0.648   8.460   8.843  0.6134  0.3744 -0.1500
22031SOL    HW166671   0.732   8.425   8.873  0.9693  1.3163 -0.0077
22031SOL    HW266672   0.612   8.506   8.919 -0.5486 -0.9000  0.1138
22032SOL     OW66673   6.625   7.338   6.850  0.3513  0.6018  0.4459
22032SOL    HW166674   6.557   7.391   6.892 -0.5351 -0.9862  1.1040
22032SOL    HW266675   6.591   7.319   6.762  1.0657  1.8123 -0.1158
22033SOL     OW66676   1.359   9.799   1.373 -0.1041 -0.2181  0.6608
22033SOL    HW166677   1.445   9.817   1.336 -0.7870 -0.2082 -1.0013
22033SOL    HW266678   1.305   9.874   1.348 -0.8455 -0.6751  0.8419
22034SOL     OW66679   7.407   2.130   4.744 -0.1177  0.0032  0.2635
22034SOL    HW166680   7.334   2.116   4.803  0.4836  0.2463  1.0901
22034SOL    HW266681   7.374   2.192   4.679 -1.2754 -1.4649 -0.6084
22035SOL     OW66682   4.993   1.333   3.057  0.8009 -0.2580 -0.4138
22035SOL    HW166683   5.081   1.348   3.092  0.5842  0.3399 -0.1125
22035SOL    HW266684   4.934   1.364   3.126  0.3736  1.2743 -1.4059
22036SOL     OW66685   7.432   1.727   9.638 -0.2999  0.1242 -0.2455
22036SOL    HW166686   7.362   1.744   9.700 -0.2849  1.1479 -0.4936
22036SOL    HW266687   7.421   1.793   9.569  0.4421 -0.1828 -0.6804
22037SOL     OW66688   2.620   7.248   3.473  0.2142  0.3952  0.6307
22037SOL    HW166689   2.692   7.290   3.521 -0.8189  1.9375  0.9279
22037SOL    HW266690   2.547   7.250   3.534 -0.3078 -0.3829  0.0436
22038SOL     OW66691   2.581   6.690   2.103  0.1769 -0.1752 -0.1472
22038SOL    HW166692   2.610   6.717   2.016  0.2661 -0.3167 -0.1614
22038SOL    HW266693   2.510   6.627   2.087 -1.4848  1.5900 -0.1134
22039SOL     OW66694   8.928   2.090   0.459 -0.1448 -0.3951 -0.3574
22039SOL    HW166695   8.977   2.128   0.386 -0.6399  1.3956  0.1850
22039SOL    HW266696   8.843   2.134   0.455  0.0645  0.2700  1.6939
22040SOL     OW66697   1.154   0.499   1.652  0.4446  0.1116  0.2121
22040SOL    HW166698   1.091   0.567   1.672 -1.7799 -1.3555 -1.3523
22040SOL    HW266699   1.132   0.427   1.711  0.9322 -0.2625 -0.0496
22041SOL     OW66700   5.903   9.233   7.311  0.3769  0.3015 -0.7651
22041SOL    HW166701   5.922   9.320   7.344  1.7333 -0.4854  0.6544
22041SOL    HW266702   5.979   9.210   7.258  1.0631 -0.8424  0.6613
22042SOL     OW66703   9.632   4.311   4.141 -0.6641 -0.0385 -0.6066
22042SOL    HW166704   9.576   4.384   4.167 -0.6485  0.7728 -2.6693
22042SOL    HW266705   9.606   4.239   4.199 -0.0457  1.7614  2.1391
22043SOL     OW66706   8.952   8.643   2.887  0.3737  0.2930  0.0799
22043SOL    HW166707   8.995   8.560   2.867 -0.0592  0.0786  0.0299
22043SOL    HW266708   8.997   8.707   2.831 -0.8842 -0.3101 -1.7028
22044SOL     OW66709   6.758   8.081   4.581  0.3828  0.1973  0.3053
22044SOL    HW166710   6.825   8.026   4.540 -1.1265  0.1796 -2.3214
22044SOL    HW266711   6.701   8.020   4.626  0.7001 -0.0318  0.3990
22045SOL     OW66712   5.014   8.817   0.314 -0.0322  0.0054  0.1564
22045SOL    HW166713   5.074   8.888   0.290  1.7209 -0.8274  1.7725
22045SOL    HW266714   5.041   8.792   0.402 -1.0765 -2.1866 -0.0808
22046SOL     OW66715   5.060   6.893   3.612  0.3463 -0.2099 -0.0680
22046SOL    HW166716   5.125   6.824   3.596  0.9313  0.0613  1.0139
22046SOL    HW266717   5.093   6.939   3.690  1.0049  2.5164 -1.7862
22047SOL     OW66718   2.843   7.701   7.335 -0.7546  0.5237  0.0975
22047SOL    HW166719   2.922   7.725   7.384 -1.6869  0.8951  1.4711
22047SOL    HW266720   2.842   7.761   7.260  1.0214 -0.4620 -0.7982
22048SOL     OW66721   6.171   9.414   7.669 -0.8284  0.7925  0.4498
22048SOL    HW166722   6.107   9.344   7.666  0.1515 -0.1571  0.9924
22048SOL    HW266723   6.134   9.484   7.615 -3.3089  1.1472  2.4351
22049SOL     OW66724   7.578   7.604   6.550 -0.3393 -0.1338  0.0027
22049SOL    HW166725   7.575   7.597   6.646  1.2256 -2.3782 -0.0501
22049SOL    HW266726   7.662   7.648   6.533  0.3644 -1.5705 -0.3576
22050SOL     OW66727   9.664   5.717   5.584  0.1323 -0.8053 -0.2193
22050SOL    HW166728   9.622   5.749   5.663 -0.4286 -0.5073 -0.6330
22050SOL    HW266729   9.628   5.770   5.513  2.2307  0.4360 -0.4637
22051SOL     OW66730   8.845   4.898   0.817  0.9112  0.1374  0.9919
22051SOL    HW166731   8.900   4.976   0.806  1.2103 -0.1843  0.0374
22051SOL    HW266732   8.788   4.898   0.740  3.4181 -2.5249 -1.0903
22052SOL     OW66733   6.641   5.978   5.919 -0.6784 -0.2805 -0.5821
22052SOL    HW166734   6.641   5.886   5.944 -0.5818 -0.0303  0.3504
22052SOL    HW266735   6.563   6.014   5.961  1.2383  0.8973  2.2245
22053SOL     OW66736   0.618   9.309   6.311 -0.1626  0.1683 -0.1108
22053SOL    HW166737   0.542   9.253   6.329  0.0398  0.2868  1.1685
22053SOL    HW266738   0.606   9.335   6.220 -0.8770 -1.0093 -0.3887
22054SOL     OW66739   4.297   2.700   6.953 -0.1371 -0.3828 -0.0230
22054SOL    HW166740   4.350   2.694   6.873 -0.5431 -0.3388 -0.2981
22054SOL    HW266741   4.268   2.791   6.955  0.3887 -0.2250  0.5109
22055SOL     OW66742   1.524   4.968   2.518  0.0109  0.0881 -0.1577
22055SOL    HW166743   1.434   4.994   2.531 -0.4502 -1.5114  0.1345
22055SOL    HW266744   1.545   4.913   2.594  1.9313  2.0499  0.8726
22056SOL     OW66745   4.196   1.278   7.111 -0.4702 -0.0333  0.0199
22056SOL    HW166746   4.206   1.351   7.173  1.2820 -0.6342  0.5227
22056SOL    HW266747   4.226   1.314   7.028 -0.0216 -0.0452  0.1727
22057SOL     OW66748   4.913   1.797   9.147 -0.0213  0.3067  0.7711
22057SOL    HW166749   4.920   1.718   9.200 -0.2831  0.3216  0.8298
22057SOL    HW266750   5.002   1.832   9.145  0.4670 -0.8992 -0.6554
22058SOL     OW66751   2.121   1.399   1.995 -0.2126 -0.2860 -0.2030
22058SOL    HW166752   2.144   1.491   1.985  0.3949 -0.4722 -0.5672
22058SOL    HW266753   2.110   1.366   1.906  1.6741 -1.0692 -0.2085
22059SOL     OW66754   5.414   1.858   7.263 -0.2860 -0.1362  0.2604
22059SOL    HW166755   5.433   1.821   7.349 -1.3656 -1.3755 -0.0043
22059SOL    HW266756   5.430   1.786   7.202  1.3823  0.9915 -0.7132
22060SOL     OW66757   7.398   8.800   3.926  0.1120 -0.7661  0.0194
22060SOL    HW166758   7.439   8.832   4.006 -1.6540 -0.7368  0.9480
22060SOL    HW266759   7.389   8.706   3.939 -2.4185 -0.4695  0.9970
22061SOL     OW66760   6.727   8.529   4.742  0.3505  0.2689 -0.2504
22061SOL    HW166761   6.796   8.463   4.742  1.3574  1.2498  1.0319
22061SOL    HW266762   6.664   8.498   4.807  1.7422  1.3790  1.7552
22062SOL     OW66763   8.393   6.313   7.814 -0.0561 -0.6095  0.5417
22062SOL    HW166764   8.317   6.267   7.778  1.1264 -1.0091 -1.6539
22062SOL    HW266765   8.448   6.245   7.851 -0.9083 -0.2767  2.5004
22063SOL     OW66766   8.223   3.906   7.421 -0.4397 -0.2201  0.1396
22063SOL    HW166767   8.213   3.995   7.387 -2.0957 -0.7873 -0.9874
22063SOL    HW266768   8.311   3.879   7.394  0.2713  1.2091  0.9034
22064SOL     OW66769   7.219   2.570   1.556 -0.1906 -0.0725 -0.6135
22064SOL    HW166770   7.157   2.521   1.503 -1.9559  2.8478 -1.4661
22064SOL    HW266771   7.258   2.633   1.496 -1.2014  2.3994  1.1401
22065SOL     OW66772   0.470   3.155   2.040  0.5016 -0.0374  0.3694
22065SOL    HW166773   0.537   3.142   2.108  0.7384 -0.6824  0.0205
22065SOL    HW266774   0.509   3.120   1.961 -0.4660 -0.9622  0.2813
22066SOL     OW66775   4.424   2.925   1.792  0.0240  0.2260 -0.5474
22066SOL    HW166776   4.399   2.930   1.885 -0.2418  0.6551 -0.6418
22066SOL    HW266777   4.467   3.009   1.774  1.0264 -0.2705 -0.5427
22067SOL     OW66778   5.096   3.575   4.153 -0.4734  0.3410 -0.1658
22067SOL    HW166779   5.175   3.597   4.103  0.4098 -1.4861  0.3656
22067SOL    HW266780   5.058   3.660   4.175  1.2512  1.2717 -0.5706
22068SOL     OW66781   2.612   7.687   3.148 -0.0399  0.2046  0.2948
22068SOL    HW166782   2.532   7.736   3.131 -0.6878 -0.4216  1.4534
22068SOL    HW266783   2.630   7.641   3.066 -0.2956  1.1188 -0.2951
22069SOL     OW66784   4.523   4.096   1.209 -0.3708  0.1731  0.0483
22069SOL    HW166785   4.559   4.151   1.139  1.1771  0.0589  0.7038
22069SOL    HW266786   4.490   4.159   1.274  0.4653  0.3345  0.3321
22070SOL     OW66787   4.921   4.854   3.510 -0.0319  0.2401  0.4484
22070SOL    HW166788   5.005   4.817   3.537  0.2414  0.9126  0.5293
22070SOL    HW266789   4.876   4.873   3.593  1.3918  3.6709  0.5823
22071SOL     OW66790   8.547   3.736   7.343  0.3140 -0.1191  0.6720
22071SOL    HW166791   8.520   3.800   7.277  0.5428  0.5014  1.1704
22071SOL    HW266792   8.633   3.766   7.373  0.8657 -1.1976  0.2305
22072SOL     OW66793   8.390   4.105   5.531  0.3209 -0.0375 -0.0017
22072SOL    HW166794   8.481   4.135   5.531 -0.2581  1.8066  0.4153
22072SOL    HW266795   8.342   4.175   5.488 -0.8107 -1.4038 -1.0622
22073SOL     OW66796   9.594   6.484   1.449 -0.0430 -0.5561 -0.0398
22073SOL    HW166797   9.661   6.529   1.396  1.0936 -2.5455 -0.4005
22073SOL    HW266798   9.642   6.452   1.525 -0.7484 -1.3961  0.0559
22074SOL     OW66799   0.997   4.225   4.180 -0.6658 -0.9106  0.5118
22074SOL    HW166800   0.987   4.224   4.275 -0.6179 -1.6201  0.5172
22074SOL    HW266801   0.915   4.187   4.147  0.3994 -3.3133  0.4053
22075SOL     OW66802   0.442   2.255   5.040  0.1575  0.6241 -0.1191
22075SOL    HW166803   0.477   2.204   5.114 -0.2208  0.6903  0.1063
22075SOL    HW266804   0.349   2.264   5.059  0.1242  0.9444 -0.4319
22076SOL     OW66805   2.656   3.202   7.110  0.5100 -0.0572  0.1146
22076SOL    HW166806   2.729   3.240   7.060 -0.5673  0.8398 -0.8494
22076SOL    HW266807   2.647   3.259   7.186  1.9014 -1.1930  1.1686
22077SOL     OW66808   7.815   2.267   0.288 -0.4825  0.4232  0.0652
22077SOL    HW166809   7.813   2.190   0.231 -0.1471 -0.4922  1.2391
22077SOL    HW266810   7.748   2.249   0.354 -0.1734  0.9861  0.5389
22078SOL     OW66811   6.235   3.197   5.336 -0.5677  0.8379 -0.3450
22078SOL    HW166812   6.271   3.145   5.407 -2.0914  1.0480  0.6186
22078SOL    HW266813   6.168   3.252   5.377 -2.3826  0.0793 -2.0869
22079SOL     OW66814   4.390   7.088   9.873 -0.0023 -0.0783 -0.3166
22079SOL    HW166815   4.301   7.112   9.849  1.1028  1.3421 -3.5623
22079SOL    HW266816   4.385   7.064   9.965 -3.4292  1.4711  0.0259
22080SOL     OW66817   5.689   1.860   7.486 -0.5795 -0.6083  0.3397
22080SOL    HW166818   5.710   1.861   7.393 -2.3285  2.1839 -0.1286
22080SOL    HW266819   5.604   1.818   7.492 -0.7296 -0.2799  0.5923
22081SOL     OW66820   7.574   5.763   2.845  0.0673 -0.2899  0.2853
22081SOL    HW166821   7.662   5.725   2.852 -0.1054 -0.4512  1.8790
22081SOL    HW266822   7.534   5.715   2.772  0.9233 -0.9817  0.2385
22082SOL     OW66823   0.879   6.436   6.715 -0.4914 -0.6384 -0.1879
22082SOL    HW166824   0.846   6.495   6.647  0.2855  1.5048  1.2128
22082SOL    HW266825   0.884   6.490   6.794 -0.8920 -2.9207  1.4967
22083SOL     OW66826   3.679   0.884   1.248 -0.1377 -0.2974 -0.1694
22083SOL    HW166827   3.619   0.810   1.242  1.1893 -1.7071  2.3464
22083SOL    HW266828   3.766   0.845   1.250  0.6762  1.4119 -0.0006
22084SOL     OW66829   6.068   8.649   2.672  0.4567 -0.2849 -0.5246
22084SOL    HW166830   6.008   8.587   2.631 -0.5992  0.6844 -0.5040
22084SOL    HW266831   6.143   8.596   2.699 -0.7411 -1.6802  0.1977
22085SOL     OW66832   3.410   9.111   6.094  0.0517  0.0894  0.2563
22085SOL    HW166833   3.332   9.069   6.056 -0.7504  0.5861  1.2935
22085SOL    HW266834   3.466   9.039   6.120  0.5850 -0.2716 -1.7428
22086SOL     OW66835   3.946   9.052   4.114 -0.0749 -0.4864 -0.4731
22086SOL    HW166836   4.011   9.064   4.045 -1.2002  0.1228 -1.4703
22086SOL    HW266837   3.945   8.957   4.131  1.0879 -0.4924 -0.3959
22087SOL     OW66838   9.340   6.685   8.917  0.5159 -0.0832  0.1320
22087SOL    HW166839   9.376   6.771   8.939 -1.9124  0.8390  0.8489
22087SOL    HW266840   9.283   6.663   8.990  1.2532 -2.4597  0.0629
22088SOL     OW66841   7.087   0.501   6.588 -0.6411 -0.2289 -0.5400
22088SOL    HW166842   7.173   0.493   6.547  0.3368 -0.0248  1.3846
22088SOL    HW266843   7.084   0.590   6.624 -1.1228 -0.6501  0.5192
22089SOL     OW66844   6.346   3.024   4.149  0.3916  0.6177 -0.2582
22089SOL    HW166845   6.271   3.059   4.198  0.5858  0.5490  0.0939
22089SOL    HW266846   6.333   3.055   4.060  0.5454  1.5678  0.0421
22090SOL     OW66847   1.950   5.691   2.310 -0.1500  0.4691  0.2765
22090SOL    HW166848   2.039   5.663   2.287  0.2934  1.7822  0.3497
22090SOL    HW266849   1.909   5.612   2.346  0.1697 -0.8442 -2.0241
22091SOL     OW66850   8.281   4.994   5.727 -0.4317 -0.6098 -0.0161
22091SOL    HW166851   8.342   5.008   5.654  1.2550 -2.5129  0.9602
22091SOL    HW266852   8.272   5.081   5.766 -1.2792  0.4501 -2.3359
22092SOL     OW66853   0.538   9.809   6.233  0.6731 -0.4340  0.0353
22092SOL    HW166854   0.589   9.737   6.196  0.3313 -0.7418  0.1632
22092SOL    HW266855   0.545   9.797   6.328  1.2560  0.1494  0.0683
22093SOL     OW66856   4.135   0.618   3.417 -0.4270  0.2552 -0.0453
22093SOL    HW166857   4.112   0.525   3.421 -2.0113  0.6232  0.2104
22093SOL    HW266858   4.155   0.634   3.325 -2.3688  0.1125 -0.5364
22094SOL     OW66859   2.903   4.013   9.846 -0.0064  0.2460  0.1813
22094SOL    HW166860   2.974   3.959   9.810  0.3527  1.3432 -0.8261
22094SOL    HW266861   2.947   4.073   9.906 -0.3716 -0.3934  1.1068
22095SOL     OW66862   4.818   5.069   0.917  0.2310 -0.2636  0.4448
22095SOL    HW166863   4.756   5.098   0.984 -0.0674  1.4645 -0.5109
22095SOL    HW266864   4.817   4.973   0.923  0.3359 -0.1505  2.9594
22096SOL     OW66865   4.218   7.160   0.753 -0.3126  0.0962 -0.1585
22096SOL    HW166866   4.248   7.243   0.790 -0.3152  0.1086 -0.1838
22096SOL    HW266867   4.288   7.135   0.693 -1.2100  1.0981 -1.7024
22097SOL     OW66868   1.910   8.789   7.817 -0.3501 -0.0933 -0.3362
22097SOL    HW166869   1.906   8.735   7.738  1.3118  0.4385 -0.8175
22097SOL    HW266870   1.854   8.864   7.798 -0.3202 -0.1957 -0.8269
22098SOL     OW66871   0.217   4.246   0.755  0.4306 -0.2429 -0.3059
22098SOL    HW166872   0.131   4.289   0.759 -0.2334 -1.5623  0.2938
22098SOL    HW266873   0.197   4.153   0.765  1.7849 -0.7557 -1.9414
22099SOL     OW66874   7.711   9.246   5.850 -0.6435 -0.3920  0.2066
22099SOL    HW166875   7.717   9.199   5.933 -1.6448  1.3643  1.3388
22099SOL    HW266876   7.617   9.258   5.836 -0.4425  1.5771  0.2022
22100SOL     OW66877   2.615   9.461   2.381  0.0788  0.4425  0.5930
22100SOL    HW166878   2.685   9.525   2.367  0.6552 -0.3105 -0.1291
22100SOL    HW266879   2.615   9.446   2.475 -3.3059  5.0088  1.6450
22101SOL     OW66880   3.541   2.887   0.296 -0.1442  0.0822  0.6053
22101SOL    HW166881   3.636   2.881   0.312  0.3373  1.6909 -1.2872
22101SOL    HW266882   3.502   2.840   0.370  2.1523 -2.6966  0.2712
22102SOL     OW66883   2.879   2.115   9.622 -0.2409 -0.1001  0.1314
22102SOL    HW166884   2.885   2.021   9.638  1.6068  0.0109  0.3582
22102SOL    HW266885   2.951   2.133   9.560 -0.4981  1.1753  0.1725
22103SOL     OW66886   3.094   4.909   5.919 -0.3075  0.3206  0.7563
22103SOL    HW166887   3.003   4.903   5.888  0.2975 -0.4578 -1.0287
22103SOL    HW266888   3.118   4.818   5.939  0.6527  0.2257 -0.6813
22104SOL     OW66889   9.181   5.185   7.678 -0.1022 -0.5124  0.5499
22104SOL    HW166890   9.202   5.147   7.593 -0.9171 -0.2352  0.2123
22104SOL    HW266891   9.239   5.260   7.686  2.0992 -2.1884  1.5675
22105SOL     OW66892   3.415   3.514   6.713  0.0689 -0.0732 -0.2430
22105SOL    HW166893   3.408   3.566   6.792 -1.4009  0.0635 -0.4340
22105SOL    HW266894   3.502   3.474   6.718  0.6531  1.2372  0.6036
22106SOL     OW66895   7.831   4.917   8.404 -0.2231  0.1842  0.0050
22106SOL    HW166896   7.856   4.844   8.461 -0.0922 -1.0502 -1.5749
22106SOL    HW266897   7.832   4.881   8.316  0.5130  2.2877 -0.9189
22107SOL     OW66898   8.253   0.815   3.909 -0.0062 -0.1233  0.3803
22107SOL    HW166899   8.246   0.749   3.840  1.6918 -0.8467  0.8291
22107SOL    HW266900   8.248   0.765   3.990 -0.8342  0.5836  0.7829
22108SOL     OW66901   7.372   1.225   3.579 -0.1219  0.1725 -0.3587
22108SOL    HW166902   7.376   1.184   3.493  1.0983 -2.7212  0.9241
22108SOL    HW266903   7.462   1.254   3.596  0.4807 -2.2207  1.1030
22109SOL     OW66904   4.888   9.257   9.583 -0.1120 -0.5268  0.2271
22109SOL    HW166905   4.833   9.292   9.512 -0.7411  0.8236  1.3290
22109SOL    HW266906   4.825   9.224   9.647  0.4580 -2.0247  0.0446
22110SOL     OW66907   4.650   2.639   3.935 -0.5895 -0.4595 -0.3890
22110SOL    HW166908   4.682   2.662   3.849  1.1586 -0.8005  0.1302
22110SOL    HW266909   4.682   2.708   3.993 -0.8119 -0.8038  0.1589
22111SOL     OW66910   6.882   9.252   9.806 -0.5164 -0.1390 -0.3298
22111SOL    HW166911   6.820   9.318   9.773 -0.4216 -0.4284 -1.1182
22111SOL    HW266912   6.860   9.173   9.758  0.3302 -0.3039 -0.4672
22112SOL     OW66913   2.986   2.322   8.412 -0.2535  0.2096 -0.5913
22112SOL    HW166914   2.959   2.373   8.335  0.0629 -2.2470 -2.4333
22112SOL    HW266915   2.908   2.271   8.435  0.2127 -0.4317 -0.4267
22113SOL     OW66916   4.928   2.348   0.924 -0.9027  0.5330  0.2404
22113SOL    HW166917   4.951   2.437   0.950 -0.3459 -0.1098  2.1145
22113SOL    HW266918   4.892   2.308   1.003  2.2486 -2.0150  0.5796
22114SOL     OW66919   5.617   0.362   7.921 -0.0329  0.3008 -0.5001
22114SOL    HW166920   5.677   0.312   7.976  0.0960  0.9294 -0.0545
22114SOL    HW266921   5.597   0.304   7.848 -0.7684 -0.8393  0.5649
22115SOL     OW66922   0.137   7.784   5.887 -0.1067  0.3804 -0.1547
22115SOL    HW166923   0.125   7.690   5.871  0.1806  0.1386  0.9707
22115SOL    HW266924   0.218   7.806   5.841 -0.5123  0.2244 -0.9595
22116SOL     OW66925   6.351   0.054   6.517  0.3006  0.1937  0.1107
22116SOL    HW166926   6.280   0.014   6.467 -0.6512  1.0921  0.6898
22116SOL    HW266927   6.396   0.110   6.454  1.9431 -2.0337 -0.8278
22117SOL     OW66928   9.362   8.266   3.565 -0.1485  0.5152 -0.4763
22117SOL    HW166929   9.294   8.254   3.631  0.7078 -0.2625  0.2917
22117SOL    HW266930   9.367   8.361   3.553  0.0207  0.7237  0.9770
22118SOL     OW66931   2.422   2.473   6.602  0.1668 -0.5885  0.3617
22118SOL    HW166932   2.342   2.421   6.600  0.5077 -1.4605  3.8045
22118SOL    HW266933   2.492   2.408   6.607  0.8384  0.1744  1.1272
22119SOL     OW66934   8.490   5.666   7.070  0.5072 -0.3195 -0.3462
22119SOL    HW166935   8.475   5.691   7.161  2.7880  0.1191 -0.0324
22119SOL    HW266936   8.403   5.664   7.030 -0.2917  2.4815  1.0671
22120SOL     OW66937   3.973   3.396   2.862  0.3058  0.1580 -0.3692
22120SOL    HW166938   3.917   3.431   2.793 -0.9719  1.3228  1.1622
22120SOL    HW266939   3.941   3.307   2.877 -1.0356  0.7188  0.3017
22121SOL     OW66940   7.590   3.460   2.056 -0.6962 -0.0122 -0.0920
22121SOL    HW166941   7.622   3.547   2.034  2.5847 -1.0621  0.0005
22121SOL    HW266942   7.558   3.468   2.146  0.8118  0.8412  0.3912
22122SOL     OW66943   6.963   9.957   7.868 -0.2333  0.2883  0.4059
22122SOL    HW166944   6.906   9.964   7.792 -0.7345 -0.3871  0.7132
22122SOL    HW266945   6.905   9.966   7.944  0.0603 -0.3873  0.7194
22123SOL     OW66946   2.356   4.879   7.138  0.7999  0.1032  0.0838
22123SOL    HW166947   2.362   4.807   7.075 -0.4231  0.3208 -0.3070
22123SOL    HW266948   2.391   4.843   7.220  1.0005 -0.6576 -0.3306
22124SOL     OW66949   8.095   1.595   6.735  0.4684  0.0217 -0.0487
22124SOL    HW166950   8.026   1.530   6.736 -1.2945  1.8044  0.2274
22124SOL    HW266951   8.078   1.649   6.813  1.8970  0.7887 -0.2338
22125SOL     OW66952   3.623   0.100   1.870  0.1367 -0.2556  0.4922
22125SOL    HW166953   3.704   0.098   1.920  0.3474 -1.8408  0.1411
22125SOL    HW266954   3.571   0.027   1.906 -0.3861 -0.3716 -0.4675
22126SOL     OW66955   9.409   0.320   1.912  0.3302 -0.1603 -0.3760
22126SOL    HW166956   9.412   0.413   1.886  0.9371  0.1831  0.8528
22126SOL    HW266957   9.326   0.288   1.878 -0.3918  1.1280  0.1255
22127SOL     OW66958   0.413   9.099   6.345 -0.0807  0.4243 -0.3105
22127SOL    HW166959   0.373   9.122   6.428  0.3289  0.8166 -0.2170
22127SOL    HW266960   0.363   9.023   6.314 -0.2445  0.2887  0.2797
22128SOL     OW66961   7.181   1.254   4.300  0.4438 -0.0177 -0.1481
22128SOL    HW166962   7.257   1.207   4.335  0.4414  1.4036  1.9647
22128SOL    HW266963   7.203   1.346   4.309 -1.1202  0.4165 -0.4530
22129SOL     OW66964   9.546   4.964   2.313  0.3191  0.0301 -0.1079
22129SOL    HW166965   9.523   4.871   2.313 -1.2711  0.3910  0.7641
22129SOL    HW266966   9.506   4.998   2.233  0.6816  0.0166 -0.2956
22130SOL     OW66967   6.278   1.685   2.927  0.1515  0.0050  0.6975
22130SOL    HW166968   6.361   1.686   2.880 -1.0474 -2.5512 -1.8073
22130SOL    HW266969   6.229   1.759   2.891  0.9094  0.8776  1.4128
22131SOL     OW66970   3.376   8.462   3.346  0.3082  0.4453  0.3248
22131SOL    HW166971   3.373   8.558   3.349  0.9168  0.4629  0.8086
22131SOL    HW266972   3.432   8.438   3.420  0.0475 -0.2941  0.2924
22132SOL     OW66973   7.654   1.435   3.399 -0.3293 -0.1293 -0.2057
22132SOL    HW166974   7.705   1.369   3.351  0.3017  0.0982  0.1427
22132SOL    HW266975   7.671   1.517   3.352  2.3337  0.6112  1.7822
22133SOL     OW66976   4.404   4.027   4.390 -0.5696  0.1821  0.4033
22133SOL    HW166977   4.438   4.046   4.477  1.3120 -0.6594 -0.1006
22133SOL    HW266978   4.472   4.058   4.330 -0.3078 -2.1551 -0.6307
22134SOL     OW66979   8.185   4.702   8.963 -0.1434 -0.5988 -0.5546
22134SOL    HW166980   8.157   4.765   8.896  1.1858 -0.2286 -0.7887
22134SOL    HW266981   8.146   4.735   9.044 -1.2291 -0.6836 -1.0170
22135SOL     OW66982   7.018   3.591   3.506  0.0720 -0.1328 -0.5288
22135SOL    HW166983   6.928   3.561   3.489 -0.5826  1.8627 -0.8914
22135SOL    HW266984   7.039   3.645   3.430  2.1030 -1.5897 -1.0622
22136SOL     OW66985   9.356   5.757   9.075 -0.9045 -0.0061 -0.2401
22136SOL    HW166986   9.384   5.842   9.109 -1.5244 -0.9397  2.8677
22136SOL    HW266987   9.265   5.771   9.048 -0.9433  0.3473  0.0710
22137SOL     OW66988   8.829   1.694   2.909  0.5691  0.1439  0.3938
22137SOL    HW166989   8.813   1.785   2.881  1.9351  0.6042  1.0318
22137SOL    HW266990   8.754   1.674   2.966  0.3555  0.9550  0.4166
22138SOL     OW66991   1.500   2.290   3.377 -0.4404 -0.4321  0.2627
22138SOL    HW166992   1.424   2.234   3.392  0.8121 -1.9583  1.2827
22138SOL    HW266993   1.575   2.235   3.400  0.9662  1.1200 -0.3902
22139SOL     OW66994   8.505   7.710   5.784  0.0887  0.3063 -0.3059
22139SOL    HW166995   8.463   7.730   5.868 -1.0984 -2.3969 -0.1427
22139SOL    HW266996   8.436   7.669   5.732  1.4293 -0.3105 -1.6718
22140SOL     OW66997   0.175   0.114   2.668 -0.2494 -0.0580  0.4007
22140SOL    HW166998   0.209   0.055   2.735  0.1632 -0.4432 -0.1324
22140SOL    HW266999   0.168   0.059   2.590  2.3390  1.0748 -0.7654
22141SOL     OW67000   7.061   6.499   8.862 -0.3819  0.1392 -0.6619
22141SOL    HW167001   6.994   6.518   8.928  0.5607  1.5564 -0.0695
22141SOL    HW267002   7.034   6.550   8.786 -0.4508 -0.0063 -0.7362
22142SOL     OW67003   6.310   3.541   8.945 -0.9719 -0.2611 -0.6710
22142SOL    HW167004   6.383   3.579   8.994  0.7935  1.2235 -4.1325
22142SOL    HW267005   6.314   3.448   8.965 -0.3333  0.2165  1.8118
22143SOL     OW67006   8.006   3.756   5.883 -0.1610  0.1251 -0.2843
22143SOL    HW167007   7.952   3.736   5.960 -0.4526 -0.0795 -0.5400
22143SOL    HW267008   8.051   3.838   5.906 -0.0902 -0.0414  0.1838
22144SOL     OW67009   2.451   2.249   0.872 -0.1783 -0.3594 -0.2251
22144SOL    HW167010   2.396   2.287   0.940  0.0392  0.4074 -0.4732
22144SOL    HW267011   2.416   2.283   0.790  0.5118 -0.0567 -0.3990
22145SOL     OW67012   6.831   0.555   5.771  0.1451  0.5571 -0.3298
22145SOL    HW167013   6.765   0.525   5.709  0.3030  1.6140 -1.0480
22145SOL    HW267014   6.782   0.606   5.835  0.2715  1.5742 -1.0178
22146SOL     OW67015   6.465   2.734   3.348 -0.2761  0.0371 -0.1479
22146SOL    HW167016   6.421   2.659   3.388  0.3286 -0.1162  0.2486
22146SOL    HW267017   6.495   2.702   3.263  2.8706 -1.2620  1.3018
22147SOL     OW67018   5.710   4.584   3.023  0.1078  0.9484  0.7479
22147SOL    HW167019   5.761   4.661   3.050 -0.3294  1.1487  1.0102
22147SOL    HW267020   5.673   4.550   3.105  1.5744 -0.4855  0.8666
22148SOL     OW67021   5.611   4.022   9.875 -0.0869  0.4383  0.5935
22148SOL    HW167022   5.629   3.937   9.915 -0.2405  0.2767  0.3199
22148SOL    HW267023   5.534   4.054   9.923  0.3086  0.6732  1.0719
22149SOL     OW67024   2.040   3.627   7.404  0.3595  0.1521 -0.2712
22149SOL    HW167025   1.980   3.648   7.476 -0.2925 -0.4104 -0.6488
22149SOL    HW267026   2.100   3.562   7.441  0.6196  0.5629  0.0424
22150SOL     OW67027   8.303   8.661   4.025  0.1609 -0.0561 -0.0206
22150SOL    HW167028   8.365   8.716   4.072  1.4525 -1.3742 -0.1187
22150SOL    HW267029   8.278   8.593   4.088  2.5672 -2.3541 -1.3436
22151SOL     OW67030   0.617   3.792   9.950  0.0881  0.8758  0.7326
22151SOL    HW167031   0.527   3.810   9.922 -0.5630  0.0247  2.1638
22151SOL    HW267032   0.613   3.795  10.046  1.2407 -0.6589  0.8635
22152SOL     OW67033   4.296   5.229   8.105 -0.3272 -0.9174 -0.2589
22152SOL    HW167034   4.259   5.237   8.193 -0.7936 -0.4623 -0.4889
22152SOL    HW267035   4.379   5.276   8.110 -1.8230  2.0638 -0.8761
22153SOL     OW67036   1.370   7.385   4.288  0.2172  0.7938 -0.7493
22153SOL    HW167037   1.389   7.472   4.322  0.2589 -0.2930  2.2822
22153SOL    HW267038   1.285   7.362   4.325  0.0501 -0.3498 -1.7536
22154SOL     OW67039   8.012   2.383   9.917 -0.0437 -0.2908  0.4799
22154SOL    HW167040   7.968   2.305   9.950 -0.8268  0.5855  1.6299
22154SOL    HW267041   8.067   2.352   9.846  0.3724 -2.0278  1.5010
22155SOL     OW67042   2.328   4.580   1.538  0.1199  0.3234  0.7063
22155SOL    HW167043   2.239   4.597   1.510  0.4034  0.9750  0.1741
22155SOL    HW267044   2.320   4.516   1.609 -0.6584 -1.1221 -0.6145
22156SOL     OW67045   4.682   9.741   0.172  0.9929 -0.2154  0.2378
22156SOL    HW167046   4.642   9.813   0.124 -0.3107 -1.0147  0.0603
22156SOL    HW267047   4.713   9.681   0.104  0.4203 -0.6703  0.3643
22157SOL     OW67048   3.789   0.454   9.186  0.3183 -0.2143 -0.3784
22157SOL    HW167049   3.828   0.386   9.131 -0.6376 -1.7398  0.7476
22157SOL    HW267050   3.794   0.534   9.133 -0.4659 -1.5767 -2.6394
22158SOL     OW67051   8.549   2.196   4.319 -0.7028  0.6731 -0.1278
22158SOL    HW167052   8.466   2.167   4.355  0.1492  1.0660  2.3371
22158SOL    HW267053   8.567   2.279   4.364  1.0022  0.6071 -0.6160
22159SOL     OW67054   2.916   9.592   8.207 -0.2834 -0.0440  0.2858
22159SOL    HW167055   2.829   9.553   8.218 -0.8779  1.3213  0.6846
22159SOL    HW267056   2.921   9.616   8.115  0.2713 -1.4400 -0.0676
22160SOL     OW67057   2.740   7.548   2.805  1.0997 -0.4699  0.5751
22160SOL    HW167058   2.806   7.490   2.768  0.6445 -0.8545  0.3502
22160SOL    HW267059   2.697   7.494   2.872  0.9421 -0.2617  0.6404
22161SOL     OW67060   6.313   3.837   3.411 -0.0261 -0.5030 -0.3942
22161SOL    HW167061   6.385   3.800   3.462 -0.8300 -0.7907  0.5838
22161SOL    HW267062   6.270   3.761   3.371 -0.3598 -0.4306 -0.1802
22162SOL     OW67063   0.394   5.842   7.767  0.5843 -0.3354 -0.3735
22162SOL    HW167064   0.392   5.917   7.827 -0.6187 -1.2888  0.8231
22162SOL    HW267065   0.404   5.882   7.681 -0.7238  1.2714  0.1486
22163SOL     OW67066   1.721   0.609   1.358 -0.2849 -0.4673  0.0417
22163SOL    HW167067   1.721   0.553   1.435  2.5865  0.9607  1.2620
22163SOL    HW267068   1.736   0.550   1.285  1.0565 -1.4953  1.0916
22164SOL     OW67069   3.554   7.999   8.544 -0.2343  0.2002 -0.8775
22164SOL    HW167070   3.537   8.056   8.469  0.7974  1.6130 -0.0848
22164SOL    HW267071   3.558   8.059   8.619  0.3686 -0.9880  0.0655
22165SOL     OW67072   5.250   5.491   0.682 -0.3061 -0.2205  0.8222
22165SOL    HW167073   5.234   5.545   0.760 -1.7661  2.5636 -1.2160
22165SOL    HW267074   5.162   5.477   0.645  0.4173 -0.5527 -0.8602
22166SOL     OW67075   7.763   4.219   9.074 -0.0127  0.1910  0.2096
22166SOL    HW167076   7.730   4.285   9.134  0.1514 -1.1715  1.8808
22166SOL    HW267077   7.814   4.268   9.009 -2.2574  1.9558 -0.3274
22167SOL     OW67078   6.357   0.179   3.937 -0.0923  0.4443 -0.7386
22167SOL    HW167079   6.286   0.233   3.970 -0.8048  1.5894 -3.8556
22167SOL    HW267080   6.437   0.228   3.958 -0.3178  0.1529  0.9365
22168SOL     OW67081   6.824   8.555   8.268  0.3223 -0.6695 -0.0656
22168SOL    HW167082   6.784   8.641   8.261 -2.7012 -1.9739 -0.0814
22168SOL    HW267083   6.783   8.503   8.199 -0.3987 -2.9765  1.9635
22169SOL     OW67084   9.683   2.324   5.690 -0.6621  0.2809  0.0088
22169SOL    HW167085   9.759   2.359   5.735 -1.7326  0.8022  1.4870
22169SOL    HW267086   9.666   2.387   5.619  0.7637 -0.3069 -0.8970
22170SOL     OW67087   0.829   9.660   4.019  0.3716 -0.0601 -0.9952
22170SOL    HW167088   0.813   9.720   3.946 -0.0134 -1.5349 -2.1936
22170SOL    HW267089   0.839   9.716   4.095 -0.1115  1.4993 -2.0347
22171SOL     OW67090   8.673   6.358   3.312 -0.7675  0.3062  0.3170
22171SOL    HW167091   8.603   6.295   3.332 -0.4756 -0.0002  0.3731
22171SOL    HW267092   8.627   6.441   3.300 -1.1541  0.0822  0.2383
22172SOL     OW67093   7.176   8.368   2.446  0.9188 -0.0846  0.4197
22172SOL    HW167094   7.178   8.358   2.351  0.5502 -1.9232  0.5778
22172SOL    HW267095   7.267   8.382   2.471  1.1444 -0.5580 -0.1198
22173SOL     OW67096   6.068   8.948   2.688 -0.4007  0.3966  0.3229
22173SOL    HW167097   6.047   8.855   2.678 -0.3080  0.2653  1.2913
22173SOL    HW267098   6.104   8.973   2.603  0.6454 -0.7495  0.3990
22174SOL     OW67099   8.973   6.141   4.473  0.0929  0.2761 -0.1114
22174SOL    HW167100   8.949   6.195   4.548 -0.1722  0.5713 -0.4063
22174SOL    HW267101   8.915   6.065   4.479  1.9231 -1.0807  1.5383
22175SOL     OW67102   0.077   4.992   7.435  0.0295 -1.1963  0.3213
22175SOL    HW167103  -0.013   5.021   7.419  0.0130 -1.5624 -0.2798
22175SOL    HW267104   0.071   4.937   7.513  0.1345  0.7373  1.7657
22176SOL     OW67105   0.684   1.041   2.301  0.0049  0.0411 -0.3439
22176SOL    HW167106   0.716   0.966   2.350  0.6840  0.5603  0.0277
22176SOL    HW267107   0.735   1.041   2.220  0.8200  0.7380  0.1495
22177SOL     OW67108   5.147   9.671   9.242  0.1755 -0.5763 -0.0154
22177SOL    HW167109   5.200   9.739   9.285  0.2658 -1.1631  0.8377
22177SOL    HW267110   5.136   9.701   9.152 -0.6493  1.0813  0.5974
22178SOL     OW67111   8.956   7.200   3.597  0.2392  0.2154 -0.1483
22178SOL    HW167112   8.952   7.295   3.604  0.3976  0.1586  0.9056
22178SOL    HW267113   9.049   7.179   3.604  0.1215 -0.0711  0.7327
22179SOL     OW67114   9.430   4.225   0.821  0.4024  0.2307 -0.4545
22179SOL    HW167115   9.374   4.147   0.817  0.8820 -0.1483  0.1124
22179SOL    HW267116   9.373   4.296   0.791 -0.1236 -0.2906 -0.7212
22180SOL     OW67117   5.649   8.054   1.463 -0.3971 -0.3205  0.0552
22180SOL    HW167118   5.661   8.006   1.381 -1.2968 -1.8370  0.7772
22180SOL    HW267119   5.704   8.132   1.453 -0.0494 -0.7513 -1.7504
22181SOL     OW67120   6.932   8.597   9.941  0.4598  0.3232  0.7420
22181SOL    HW167121   6.905   8.619   9.851  1.4901  0.9498  0.5651
22181SOL    HW267122   6.951   8.682   9.981 -0.3088  0.0746  1.6837
22182SOL     OW67123   5.061   4.628   8.522  0.1471 -0.6532  0.1758
22182SOL    HW167124   5.084   4.709   8.477  1.3032 -1.2803 -0.4040
22182SOL    HW267125   5.145   4.589   8.547 -0.3394 -2.0050 -0.1680
22183SOL     OW67126   4.429   6.266   3.471  0.1444  0.1546  0.5913
22183SOL    HW167127   4.421   6.261   3.376  1.1559  0.4409  0.4880
22183SOL    HW267128   4.391   6.183   3.502  0.1953 -0.1257 -0.0819
22184SOL     OW67129   3.074   8.393   3.594 -0.3724 -0.3638  0.1508
22184SOL    HW167130   3.100   8.330   3.527  0.0798 -0.4950  0.4429
22184SOL    HW267131   3.058   8.340   3.672 -1.3000 -0.2547  0.0384
22185SOL     OW67132   2.330   8.252   3.247 -0.4249 -0.1875 -0.0669
22185SOL    HW167133   2.279   8.333   3.251  0.4898  0.6170 -2.3916
22185SOL    HW267134   2.387   8.256   3.323 -0.3031  1.4537 -0.2015
22186SOL     OW67135   1.487   5.114   5.374 -0.1197 -0.4229 -0.6896
22186SOL    HW167136   1.475   5.051   5.302  0.2042 -1.4530  0.1263
22186SOL    HW267137   1.581   5.110   5.393 -0.0779  0.4018 -0.6959
22187SOL     OW67138   0.800   4.432   4.735  0.5049  0.0583  0.1499
22187SOL    HW167139   0.849   4.357   4.770  0.4622  0.4671  1.1178
22187SOL    HW267140   0.820   4.504   4.795  0.5146  0.8213 -0.7491
22188SOL     OW67141   4.964   6.927   0.912 -0.4190 -0.3011  0.2967
22188SOL    HW167142   4.958   6.838   0.878  0.8190  0.1509 -1.2287
22188SOL    HW267143   5.058   6.946   0.914 -0.7067  1.4728 -0.7978
22189SOL     OW67144   6.635   0.837   4.525  0.2450 -0.3075  0.3907
22189SOL    HW167145   6.629   0.766   4.461  0.9373 -0.3112  0.3222
22189SOL    HW267146   6.728   0.843   4.546  0.1456  0.3192  0.6913
22190SOL     OW67147   4.885   5.717   4.156  0.4433 -0.0655  0.1007
22190SOL    HW167148   4.803   5.678   4.128 -0.2639  1.1834  0.3364
22190SOL    HW267149   4.880   5.808   4.124  2.5453 -0.4426 -1.5445
22191SOL     OW67150   2.942   5.838   3.763 -0.0460 -0.1251  0.6057
22191SOL    HW167151   3.031   5.841   3.730 -0.4006  0.0219 -0.3677
22191SOL    HW267152   2.899   5.772   3.708 -0.5482 -0.1480  1.0236
22192SOL     OW67153   3.406   7.842   1.351  0.1187  0.1517  0.0062
22192SOL    HW167154   3.452   7.829   1.434  0.2356  2.1324  0.2971
22192SOL    HW267155   3.455   7.789   1.288 -0.2711 -1.7970  1.2466
22193SOL     OW67156   9.669   2.130   9.164 -0.1284  0.1123 -0.6471
22193SOL    HW167157   9.724   2.100   9.092 -0.5843 -1.3653 -0.4110
22193SOL    HW267158   9.698   2.220   9.180  0.3409  0.2942 -2.3060
22194SOL     OW67159   0.425   4.731   6.010  0.0369 -0.3528 -0.0008
22194SOL    HW167160   0.424   4.814   5.963  0.0502 -1.0965 -1.3456
22194SOL    HW267161   0.343   4.731   6.059 -1.2620 -0.6585 -2.0520
22195SOL     OW67162   7.875   6.180   5.347 -0.0676 -0.0235 -0.3834
22195SOL    HW167163   7.903   6.269   5.326  2.5817 -0.7814 -0.4144
22195SOL    HW267164   7.905   6.166   5.437 -0.1895 -0.9784 -0.4860
22196SOL     OW67165   9.183   7.112   8.076 -0.5676  0.0626  0.0036
22196SOL    HW167166   9.205   7.142   8.165 -0.5648  1.0366 -0.3185
22196SOL    HW267167   9.212   7.020   8.075 -0.7389 -0.0248  1.0694
22197SOL     OW67168   4.616   3.379   4.202  0.6415 -0.0533  0.8149
22197SOL    HW167169   4.679   3.392   4.273  1.3607 -1.0554  0.3883
22197SOL    HW267170   4.643   3.439   4.133  2.5007 -1.9268 -0.2194
22198SOL     OW67171   5.537   3.444   2.622 -0.2954  0.5951  0.3755
22198SOL    HW167172   5.548   3.450   2.717  1.1333  0.7068  0.2229
22198SOL    HW267173   5.617   3.482   2.586 -1.1303  1.2252 -0.8938
22199SOL     OW67174   4.407   6.783   2.807 -0.8429 -0.0052 -0.0724
22199SOL    HW167175   4.327   6.733   2.820 -1.8506  0.8504 -2.4879
22199SOL    HW267176   4.453   6.738   2.737 -0.2012  0.6658 -0.0966
22200SOL     OW67177   3.346   0.902   9.882  0.3828 -0.0943 -0.2070
22200SOL    HW167178   3.404   0.829   9.866 -0.5910 -0.7378 -0.9209
22200SOL    HW267179   3.329   0.939   9.795 -2.0050 -1.3003 -0.3193
22201SOL     OW67180   3.680   9.766   0.131 -0.5970  0.3910 -0.0639
22201SOL    HW167181   3.689   9.860   0.116 -1.8203  0.6417  0.6502
22201SOL    HW267182   3.684   9.756   0.226 -1.4892 -0.1424 -0.0672
22202SOL     OW67183   4.021   7.852   0.528  0.3595  0.4204 -0.2417
22202SOL    HW167184   3.978   7.887   0.450  2.6886  3.6405 -0.2363
22202SOL    HW267185   4.105   7.819   0.496  1.1245  1.3157  0.8120
22203SOL     OW67186   8.293   3.778   8.920 -0.0157 -0.3988 -0.4773
22203SOL    HW167187   8.236   3.736   8.984  0.0498  0.2091 -0.0050
22203SOL    HW267188   8.234   3.808   8.851 -0.7731  2.7391  1.3055
22204SOL     OW67189   6.012   8.517   2.063 -0.2359  0.7255 -0.4224
22204SOL    HW167190   6.031   8.534   2.156 -0.0134  0.2525 -0.3805
22204SOL    HW267191   5.959   8.438   2.064  3.0800 -1.7265 -0.8990
22205SOL     OW67192   7.337   3.118   8.128  0.2764 -0.2972  0.0696
22205SOL    HW167193   7.299   3.157   8.050  0.2090  1.5705  0.9824
22205SOL    HW267194   7.264   3.073   8.171 -0.2239  0.6471  0.2290
22206SOL     OW67195   4.533   0.993   5.924  0.2184 -0.8452 -0.0044
22206SOL    HW167196   4.576   0.919   5.965 -2.3839 -2.3209  0.2556
22206SOL    HW267197   4.542   0.977   5.830 -0.3936 -1.5579  0.0510
22207SOL     OW67198   9.836   3.337   8.984 -0.2821 -0.0163 -0.0632
22207SOL    HW167199   9.767   3.275   8.963  0.1482 -0.4686 -0.1751
22207SOL    HW267200   9.796   3.398   9.046 -0.6221 -0.5881  0.2863
22208SOL     OW67201   4.881   3.018   5.625 -0.0886  0.3424 -0.3078
22208SOL    HW167202   4.813   2.952   5.615 -0.4400  0.3599  1.5669
22208SOL    HW267203   4.853   3.091   5.569  0.0011 -0.8140 -1.9236
22209SOL     OW67204   8.334   5.807   7.275  0.0817 -0.5092 -0.2301
22209SOL    HW167205   8.338   5.842   7.364  0.1568  0.3454 -0.5662
22209SOL    HW267206   8.333   5.884   7.219 -0.5328 -1.0343 -0.9555
22210SOL     OW67207   0.944   1.058   7.850 -0.1022  0.3910  0.3569
22210SOL    HW167208   0.969   0.969   7.825 -0.0474  0.0266  1.6325
22210SOL    HW267209   1.012   1.085   7.912 -1.3045  0.4556  1.6978
22211SOL     OW67210   2.828   1.123   0.861  0.0860  0.0590  0.2165
22211SOL    HW167211   2.751   1.158   0.905 -0.2654 -0.1639 -0.2109
22211SOL    HW267212   2.878   1.200   0.835 -0.5559  0.2420 -0.4985
22212SOL     OW67213   0.260   4.681   2.515 -1.0655  0.4698 -0.0514
22212SOL    HW167214   0.247   4.678   2.420 -0.5466 -0.5658 -0.1071
22212SOL    HW267215   0.347   4.641   2.528 -2.5061 -2.6366  1.0716
22213SOL     OW67216   1.496   0.416   5.571 -0.4119 -0.5822  0.3155
22213SOL    HW167217   1.530   0.480   5.510 -1.0440  0.3779  0.9385
22213SOL    HW267218   1.561   0.413   5.642 -0.8841  0.1693  0.7960
22214SOL     OW67219   8.877   5.131   7.260  0.1581 -0.5259 -0.1918
22214SOL    HW167220   8.874   5.204   7.322 -0.6274  0.2809 -1.1475
22214SOL    HW267221   8.786   5.105   7.249  0.4846 -2.1903  0.7178
22215SOL     OW67222   6.781   6.285   5.771  0.0075  0.1500  0.2761
22215SOL    HW167223   6.865   6.292   5.725  1.0628 -0.7791  1.9715
22215SOL    HW267224   6.783   6.198   5.811 -1.0797  0.7203  1.6286
22216SOL     OW67225   8.083   2.697   8.947  0.2657 -0.0148 -0.0053
22216SOL    HW167226   7.992   2.723   8.959  0.4341  0.1485  0.9622
22216SOL    HW267227   8.132   2.780   8.945  0.2253  0.0260 -2.3508
22217SOL     OW67228   9.728   4.608   6.366  0.5554  0.4219  0.2609
22217SOL    HW167229   9.782   4.655   6.429 -1.1222  1.3560  1.0610
22217SOL    HW267230   9.698   4.530   6.414  0.2450  0.5111  0.2117
22218SOL     OW67231   9.607   5.726   6.613  0.2540 -0.0795  0.1846
22218SOL    HW167232   9.617   5.786   6.539 -0.5725  0.0391  0.1628
22218SOL    HW267233   9.555   5.774   6.677 -2.3104 -1.4835 -0.7152
22219SOL     OW67234   8.452   7.022   9.930  0.0880 -0.1098 -0.2829
22219SOL    HW167235   8.379   7.004   9.869 -0.6569 -0.2711  0.6377
22219SOL    HW267236   8.431   7.107   9.967 -0.1037 -0.5553  0.6491
22220SOL     OW67237   0.586   5.067   9.894 -0.0627  0.4621 -0.6164
22220SOL    HW167238   0.621   4.978   9.894 -0.2420  0.3704  0.7683
22220SOL    HW267239   0.620   5.107   9.814 -0.6086 -1.0876 -1.6616
22221SOL     OW67240   8.001   3.541   3.016  0.3160  0.2315  0.1444
22221SOL    HW167241   7.938   3.469   3.013  0.0542  0.4588  0.0930
22221SOL    HW267242   8.086   3.499   3.031  0.3339 -0.1827 -1.0455
22222SOL     OW67243   6.910   9.382   7.655  0.2525 -0.0944 -0.1107
22222SOL    HW167244   6.938   9.329   7.729  1.6791  0.6152 -0.1179
22222SOL    HW267245   6.919   9.472   7.684  0.3456  0.1865 -0.9637
22223SOL     OW67246   9.757   2.142   0.644  0.4894  0.0392 -0.9303
22223SOL    HW167247   9.766   2.161   0.738 -0.2026 -0.2722 -0.7987
22223SOL    HW267248   9.837   2.177   0.606  0.2954  1.1360 -0.3733
22224SOL     OW67249   5.075   9.693   4.720 -0.2410  0.5694  0.5232
22224SOL    HW167250   5.041   9.782   4.718 -1.1258  0.2397  0.4300
22224SOL    HW267251   5.170   9.703   4.709 -0.4029  1.4548 -0.1630
22225SOL     OW67252   5.900   4.017   1.758 -0.9712 -0.0371 -0.1592
22225SOL    HW167253   5.934   4.019   1.848 -0.3363 -1.2239 -0.3639
22225SOL    HW267254   5.904   4.108   1.729 -0.8388  0.3039  0.8837
22226SOL     OW67255   1.452   8.920   3.375  0.4756  0.1811  0.2710
22226SOL    HW167256   1.500   8.967   3.443 -0.3567  1.7730 -0.1988
22226SOL    HW267257   1.393   8.986   3.337  0.0961 -0.9596 -1.2017
22227SOL     OW67258   3.959   2.333   5.755  0.3922 -0.3032 -0.0517
22227SOL    HW167259   3.930   2.242   5.754  2.4929 -1.0383  1.3834
22227SOL    HW267260   3.945   2.363   5.845  2.1998 -0.0895  0.1900
22228SOL     OW67261   0.368   4.823   5.619 -0.2863  0.5829 -0.0432
22228SOL    HW167262   0.437   4.758   5.606 -0.7150  0.3020 -1.0237
22228SOL    HW267263   0.398   4.901   5.571 -0.6178  0.4798 -0.4230
22229SOL     OW67264   6.596   6.313   3.430  0.0114 -0.3455  0.1153
22229SOL    HW167265   6.664   6.247   3.413  0.1823  0.2903 -1.8450
22229SOL    HW267266   6.532   6.300   3.361 -0.1478  1.2997 -0.0690
22230SOL     OW67267   8.158   5.641   6.223 -0.2460  0.1459  0.3616
22230SOL    HW167268   8.112   5.577   6.278  1.2030 -0.5499  0.8137
22230SOL    HW267269   8.251   5.623   6.238  0.1854  1.2405 -0.8347
22231SOL     OW67270   4.122   8.434   7.195 -0.5758 -0.6401 -0.2290
22231SOL    HW167271   4.080   8.520   7.192 -1.5452 -1.0868  0.1759
22231SOL    HW267272   4.181   8.434   7.120  1.3279  1.3206  1.1491
22232SOL     OW67273   5.464   8.065   0.260 -0.2866 -0.1021 -0.2928
22232SOL    HW167274   5.390   8.098   0.311 -0.9691 -1.8155 -0.0735
22232SOL    HW267275   5.470   7.972   0.285  0.9179 -0.3885 -1.5182
22233SOL     OW67276   6.348   6.085   8.477 -0.0254 -0.0623 -0.3350
22233SOL    HW167277   6.422   6.144   8.464 -0.8804  1.0932 -0.0873
22233SOL    HW267278   6.272   6.142   8.487 -0.6398 -1.1038  1.7363
22234SOL     OW67279   2.952   1.909   9.193 -0.3681 -0.5595 -0.3639
22234SOL    HW167280   2.872   1.961   9.192 -0.7577 -1.1456 -0.1318
22234SOL    HW267281   3.011   1.956   9.252 -0.1847  0.3861 -1.2764
22235SOL     OW67282   9.253   4.931   8.087 -0.7305  0.4724 -0.4078
22235SOL    HW167283   9.191   4.993   8.047  0.0901  1.2139 -0.5511
22235SOL    HW267284   9.337   4.951   8.045 -0.5965 -1.2703 -1.0263
22236SOL     OW67285   6.698   3.962   0.633  0.5814  0.3729 -0.1597
22236SOL    HW167286   6.768   4.011   0.589  0.7035  0.7336  0.4274
22236SOL    HW267287   6.619   3.983   0.583  0.8746  0.0383 -0.7686
22237SOL     OW67288   2.949   1.786   2.573  0.3961 -0.2810  0.6549
22237SOL    HW167289   2.881   1.770   2.508 -0.2078 -0.8242  1.4069
22237SOL    HW267290   2.940   1.714   2.637  1.4124 -0.1453  0.9805
22238SOL     OW67291   1.773   7.473   8.436 -0.1529  0.8122 -0.3326
22238SOL    HW167292   1.775   7.415   8.360 -0.0294 -1.0346  1.0292
22238SOL    HW267293   1.849   7.530   8.424  0.8248 -0.5387 -0.8004
22239SOL     OW67294   6.709   9.769   3.478 -0.3736 -0.2394 -0.0948
22239SOL    HW167295   6.765   9.735   3.408  1.5338  0.7012  0.9239
22239SOL    HW267296   6.729   9.713   3.553  1.0329  1.5678  0.9369
22240SOL     OW67297   6.251   8.042   4.564 -0.2556 -0.3839 -0.1601
22240SOL    HW167298   6.219   8.115   4.616 -2.1720 -0.1234 -1.5671
22240SOL    HW267299   6.334   8.073   4.528 -0.7477  0.9097 -0.2662
22241SOL     OW67300   7.542   7.083   5.883 -0.0592  0.4403  0.0495
22241SOL    HW167301   7.617   7.077   5.942 -0.1660  2.0162  0.4079
22241SOL    HW267302   7.577   7.121   5.803 -0.2251 -0.1050 -0.2818
22242SOL     OW67303   7.403   7.752   5.090  0.2283  0.1174  0.6812
22242SOL    HW167304   7.379   7.711   5.173  1.1748  1.8436  1.8872
22242SOL    HW267305   7.428   7.842   5.114  0.0883  0.8160 -1.5420
22243SOL     OW67306   8.671   2.845   1.154 -0.0406  0.5033  0.3551
22243SOL    HW167307   8.724   2.851   1.233  0.0218 -0.0274  0.3550
22243SOL    HW267308   8.731   2.869   1.083 -0.6369  3.1436  0.6403
22244SOL     OW67309   2.574   2.155   6.063  0.1641 -0.0185  0.0108
22244SOL    HW167310   2.604   2.066   6.081  2.4338  0.4375 -1.1842
22244SOL    HW267311   2.549   2.153   5.971 -1.6409  0.1645  0.4474
22245SOL     OW67312   8.199   2.544   8.317  0.1009 -0.0162 -0.4397
22245SOL    HW167313   8.172   2.494   8.394 -0.8055 -0.4360 -1.0061
22245SOL    HW267314   8.233   2.626   8.352 -0.0846 -0.2954  0.4183
22246SOL     OW67315   4.905   0.424   5.331  0.1861  0.5035 -0.4475
22246SOL    HW167316   4.826   0.469   5.300  1.4366  1.6051 -2.2048
22246SOL    HW267317   4.888   0.406   5.423 -1.8221  1.3590 -0.6062
22247SOL     OW67318   8.166   6.272   0.628 -0.1837  0.1296  0.1866
22247SOL    HW167319   8.090   6.260   0.686  0.7529 -0.1802  1.3942
22247SOL    HW267320   8.205   6.354   0.657  0.3420 -0.0710  0.0602
22248SOL     OW67321   1.613   4.235   7.566  0.1335 -0.0366  0.3312
22248SOL    HW167322   1.525   4.264   7.588 -0.2872 -0.8835 -0.1704
22248SOL    HW267323   1.623   4.257   7.473 -0.5571 -2.2417 -0.3341
22249SOL     OW67324   3.202   5.983   6.018 -0.0492  0.1791  0.7044
22249SOL    HW167325   3.145   6.042   6.066 -0.1161  3.2064 -2.6875
22249SOL    HW267326   3.290   6.019   6.030  0.2427 -0.4070  0.4051
22250SOL     OW67327   1.624   3.024   4.129 -0.8783 -0.5678  0.1721
22250SOL    HW167328   1.701   2.966   4.136 -1.0071 -0.8967 -0.8811
22250SOL    HW267329   1.622   3.049   4.037 -0.5441  1.5519  0.6981
22251SOL     OW67330   9.611   7.596   8.424 -0.0758 -0.3020  0.2638
22251SOL    HW167331   9.535   7.653   8.410 -0.2995 -0.3885  1.0724
22251SOL    HW267332   9.686   7.651   8.404 -0.2944  0.2259  0.8749
22252SOL     OW67333   1.514   1.465   8.059 -0.1673 -0.5506  0.1447
22252SOL    HW167334   1.540   1.556   8.074 -4.2790  0.6322  1.4849
22252SOL    HW267335   1.498   1.430   8.146 -2.3670 -1.1972 -0.4470
22253SOL     OW67336   8.829   7.515   2.233 -0.0713 -0.3825 -0.3205
22253SOL    HW167337   8.829   7.611   2.238  2.7600 -0.3300  0.7151
22253SOL    HW267338   8.862   7.496   2.145 -2.0877 -0.5143 -1.1129
22254SOL     OW67339   7.201   9.367   9.136 -0.1217  0.1178  0.1277
22254SOL    HW167340   7.234   9.373   9.046 -0.6793  0.2876 -0.0699
22254SOL    HW267341   7.156   9.450   9.150  0.1693  0.1889  0.6512
22255SOL     OW67342   5.915   8.512   0.808  0.1275  0.2901 -0.1021
22255SOL    HW167343   5.877   8.430   0.838  1.0500 -1.1137 -2.4805
22255SOL    HW267344   5.955   8.551   0.886 -0.6346 -1.3403  1.1435
22256SOL     OW67345   0.872   4.102   2.268 -0.4518 -0.6988 -0.1846
22256SOL    HW167346   0.929   4.176   2.250  1.2491 -1.4584  1.6730
22256SOL    HW267347   0.873   4.051   2.187 -0.9579  0.8263 -1.1917
22257SOL     OW67348   5.578   5.214   1.013 -0.3421 -0.2360 -0.4311
22257SOL    HW167349   5.591   5.306   0.988  0.3801  0.0508  0.9075
22257SOL    HW267350   5.505   5.185   0.958 -0.3182  1.0103 -1.1745
22258SOL     OW67351   2.268   0.168   4.078  0.1615 -0.6248 -0.0894
22258SOL    HW167352   2.356   0.171   4.042  1.4344 -0.5900  2.7573
22258SOL    HW267353   2.261   0.081   4.119  0.2771  0.5771  2.7185
22259SOL     OW67354   1.287   2.115   3.361 -0.2730 -0.8575 -0.7416
22259SOL    HW167355   1.272   2.084   3.450  0.2164 -1.0582 -0.7234
22259SOL    HW267356   1.210   2.166   3.340 -1.1483 -2.1498 -0.8002
22260SOL     OW67357   7.103   0.952   4.083  0.4209 -0.9362 -0.4233
22260SOL    HW167358   7.046   0.997   4.021  1.5690 -0.8685 -1.4704
22260SOL    HW267359   7.179   1.010   4.091  0.5484 -1.2360  0.5964
22261SOL     OW67360   1.800   3.631   2.233  0.6409 -0.8648  0.0662
22261SOL    HW167361   1.756   3.661   2.153 -1.0537  0.6460  1.4804
22261SOL    HW267362   1.813   3.711   2.284 -0.0698 -2.0011  2.1211
22262SOL     OW67363   7.491   0.113   1.752 -0.2272 -0.0243  0.6381
22262SOL    HW167364   7.471   0.022   1.730 -0.1103 -0.2890  1.5940
22262SOL    HW267365   7.425   0.137   1.817  0.4459  0.2019  1.2476
22263SOL     OW67366   1.008   8.788   8.191  0.4637 -0.0172 -0.8892
22263SOL    HW167367   0.936   8.727   8.175 -0.2055 -0.3348  2.6431
22263SOL    HW267368   0.973   8.873   8.163 -0.6178 -0.4300 -0.8472
22264SOL     OW67369   0.444   2.009   6.857  0.5372 -0.1427 -0.0845
22264SOL    HW167370   0.459   2.013   6.952 -0.2169  0.4820  0.0148
22264SOL    HW267371   0.491   1.930   6.829 -0.4327 -1.1504  1.0307
22265SOL     OW67372   8.050   5.171   7.037 -0.1101  0.3300 -0.6690
22265SOL    HW167373   8.094   5.246   7.076 -0.2514  0.0249  0.0833
22265SOL    HW267374   8.082   5.169   6.946  1.6843 -0.0887 -0.0639
22266SOL     OW67375   6.728   7.173   4.169  0.8773 -0.0787 -0.6340
22266SOL    HW167376   6.759   7.261   4.187  1.5684 -0.2079 -1.1427
22266SOL    HW267377   6.783   7.116   4.223 -0.0636 -0.1633  0.2701
22267SOL     OW67378   7.948   8.992   3.416  0.2966  0.0934 -0.1556
22267SOL    HW167379   8.026   9.043   3.393 -0.2672  1.2475  0.4389
22267SOL    HW267380   7.901   8.982   3.334  0.3091  0.7082 -0.2404
22268SOL     OW67381   9.719   9.067   3.476  0.4921  0.8067 -0.2407
22268SOL    HW167382   9.656   9.018   3.423  1.2213  0.6841 -1.0150
22268SOL    HW267383   9.805   9.034   3.448  0.9615  1.8864 -0.1413
22269SOL     OW67384   8.737   0.107   0.299 -0.3587 -0.0377  0.1005
22269SOL    HW167385   8.667   0.153   0.344 -1.1323  0.6165 -1.6565
22269SOL    HW267386   8.809   0.170   0.294  0.1476 -0.4938  1.3529
22270SOL     OW67387   3.028   4.857   5.466 -0.8397  0.0772 -0.0799
22270SOL    HW167388   3.116   4.838   5.498 -0.3203  0.2103 -1.3589
22270SOL    HW267389   3.029   4.952   5.450 -1.9580  0.4835  2.0076
22271SOL     OW67390   8.342   6.467   8.448 -0.0329 -0.3638 -0.0610
22271SOL    HW167391   8.317   6.451   8.357  0.0728  1.1571 -0.3859
22271SOL    HW267392   8.403   6.541   8.444  0.4494 -0.6602  1.1960
22272SOL     OW67393   8.632   3.948   8.102 -0.1061 -0.2400 -0.3468
22272SOL    HW167394   8.556   3.901   8.066 -0.6616  0.1424  0.2948
22272SOL    HW267395   8.656   3.898   8.180  1.2660 -1.2239 -1.3455
22273SOL     OW67396   0.226   9.722   0.189 -0.4252  0.9399 -0.1959
22273SOL    HW167397   0.179   9.803   0.206 -1.7121  0.0362  0.7627
22273SOL    HW267398   0.162   9.664   0.150  0.4692  0.3618 -0.8438
22274SOL     OW67399   4.606   0.544   0.963 -0.0845  0.1719 -0.3531
22274SOL    HW167400   4.686   0.597   0.966 -0.1683  0.4359 -1.9419
22274SOL    HW267401   4.547   0.593   0.907 -0.9743 -0.5656 -0.0910
22275SOL     OW67402   6.310   7.200   9.932  0.0563 -0.4060 -0.2367
22275SOL    HW167403   6.327   7.277   9.878 -0.6079 -0.5228 -0.6302
22275SOL    HW267404   6.239   7.227   9.991  0.9396 -0.1990  0.7679
22276SOL     OW67405   0.792   0.722   4.801  0.1861  0.3518 -0.0976
22276SOL    HW167406   0.866   0.708   4.860 -0.7901  0.8663  1.2899
22276SOL    HW267407   0.803   0.655   4.733  1.5951  0.0439  0.4022
22277SOL     OW67408   9.585   8.808   4.548 -0.4069 -0.4526  0.2191
22277SOL    HW167409   9.657   8.871   4.539 -0.2994 -0.5911  0.1127
22277SOL    HW267410   9.624   8.733   4.592 -0.7412 -0.0923  1.1761
22278SOL     OW67411   5.603   0.994   5.424 -0.5137 -0.1671  0.3283
22278SOL    HW167412   5.637   0.907   5.401 -3.1190 -0.8164 -1.5921
22278SOL    HW267413   5.586   1.036   5.340 -0.1790  1.8738  1.2359
22279SOL     OW67414   1.040   8.871   6.974  0.3301  0.1590 -0.1668
22279SOL    HW167415   1.079   8.798   6.925  1.6156 -0.6627  1.9639
22279SOL    HW267416   0.947   8.848   6.980  0.3095 -0.1863 -1.3555
22280SOL     OW67417   1.696   6.825   8.776 -0.7075  0.3073 -0.5159
22280SOL    HW167418   1.716   6.872   8.695 -0.9357 -0.5129 -1.0635
22280SOL    HW267419   1.646   6.749   8.747 -1.6757  0.5299  0.4940
22281SOL     OW67420   7.491   3.821   2.570  1.2032 -0.0634 -0.0192
22281SOL    HW167421   7.538   3.846   2.491  1.6331  1.6735  0.7604
22281SOL    HW267422   7.407   3.787   2.538  1.2812  0.8269 -1.2112
22282SOL     OW67423   7.840   3.385   8.577 -0.3415  0.3813 -0.0065
22282SOL    HW167424   7.837   3.311   8.516  2.4554 -0.0381  0.2268
22282SOL    HW267425   7.755   3.428   8.568 -2.2721 -3.0469  0.1087
22283SOL     OW67426   7.245   4.048   0.140  0.4738  0.0701  0.1159
22283SOL    HW167427   7.274   3.957   0.129 -0.2702 -0.5659  2.6639
22283SOL    HW267428   7.154   4.047   0.112  0.9720  0.5467 -1.6784
22284SOL     OW67429   0.963   5.387   1.422 -0.2970 -0.3316 -0.3008
22284SOL    HW167430   0.972   5.297   1.454  0.2765 -0.3457 -0.4860
22284SOL    HW267431   1.053   5.417   1.408 -0.4296  0.7266  0.9718
22285SOL     OW67432   1.872   7.651   3.217 -0.2638 -0.4437 -0.2820
22285SOL    HW167433   1.785   7.619   3.240 -1.7062  2.1889 -1.6360
22285SOL    HW267434   1.908   7.683   3.300 -1.8577  1.1472 -0.1509
22286SOL     OW67435   9.521   0.748   5.654 -0.1417  0.5963  0.0033
22286SOL    HW167436   9.521   0.743   5.558 -2.6131 -1.9984 -0.0184
22286SOL    HW267437   9.448   0.806   5.675 -0.5293  0.0302  0.2598
22287SOL     OW67438   2.340   1.217   2.674  0.4693  0.3741 -0.1399
22287SOL    HW167439   2.365   1.205   2.766  0.2209 -2.3519 -0.3302
22287SOL    HW267440   2.299   1.134   2.650 -0.8555  1.5563 -2.3160
22288SOL     OW67441   1.462   4.767   5.639 -0.2008  0.0833 -0.2373
22288SOL    HW167442   1.415   4.783   5.721 -1.8656 -0.6301 -0.9980
22288SOL    HW267443   1.406   4.705   5.592 -0.6583  2.4071 -3.0323
22289SOL     OW67444   9.144   4.903   2.531  0.3529  0.1911  0.6338
22289SOL    HW167445   9.141   4.996   2.553  2.3767 -0.0074  1.9575
22289SOL    HW267446   9.128   4.858   2.614  2.8273 -0.6004  0.7494
22290SOL     OW67447   2.133   5.181   2.327 -0.1663  0.5914 -0.2532
22290SOL    HW167448   2.046   5.195   2.291 -0.4272  0.9250  0.4780
22290SOL    HW267449   2.189   5.168   2.251 -0.6231  1.6924 -0.8068
22291SOL     OW67450   0.449   1.660   3.848  0.6154  0.0335 -0.1367
22291SOL    HW167451   0.427   1.570   3.871  1.2296  0.0674  0.6327
22291SOL    HW267452   0.366   1.707   3.852  0.0714 -0.7183 -1.7428
22292SOL     OW67453   7.730   1.772   1.587  0.7347 -0.1074  0.5701
22292SOL    HW167454   7.730   1.765   1.683 -0.0012  1.6502  0.7364
22292SOL    HW267455   7.664   1.709   1.558  1.7494 -1.4788  1.0995
22293SOL     OW67456   7.195   6.813   6.016  0.0534  0.3329 -0.0389
22293SOL    HW167457   7.243   6.825   5.933 -1.3030  0.2902 -0.8562
22293SOL    HW267458   7.210   6.894   6.064 -0.8349  1.2196 -1.2245
22294SOL     OW67459   2.289   4.765   1.810 -0.0397  0.2947 -0.0554
22294SOL    HW167460   2.254   4.724   1.890  0.9357  2.4271  1.5645
22294SOL    HW267461   2.369   4.717   1.791 -0.9853 -1.1358 -0.6456
22295SOL     OW67462   1.605   1.751   6.974  0.1320 -0.0746 -0.5117
22295SOL    HW167463   1.547   1.742   6.898  0.9517 -1.2915 -1.0221
22295SOL    HW267464   1.674   1.686   6.960  0.1039 -0.6080  1.4563
22296SOL     OW67465   7.719   0.023   1.891 -0.1047  0.2847 -0.3282
22296SOL    HW167466   7.681  -0.018   1.968 -0.2547 -0.3077 -0.7066
22296SOL    HW267467   7.647   0.073   1.852  0.4943  2.3346  1.0516
22297SOL     OW67468   9.071   9.635   4.173 -0.3493 -0.4585  0.3110
22297SOL    HW167469   8.976   9.633   4.171 -0.3429 -0.5515 -1.7998
22297SOL    HW267470   9.097   9.659   4.084  1.5841  0.6673  1.1230
22298SOL     OW67471   9.661   7.101   0.976  0.3621 -0.6010 -0.2002
22298SOL    HW167472   9.622   7.161   1.039 -0.0480 -1.4959  0.4282
22298SOL    HW267473   9.644   7.014   1.012  4.0128 -1.0872  0.8250
22299SOL     OW67474   8.278   5.599   6.908  0.0868 -0.5413  0.7623
22299SOL    HW167475   8.232   5.676   6.877  1.6293  0.7894  1.6536
22299SOL    HW267476   8.210   5.544   6.946 -1.1473 -0.0225 -0.5750
22300SOL     OW67477   1.666   9.695   7.270  0.1041 -0.1171  0.5565
22300SOL    HW167478   1.574   9.716   7.256  0.0922  0.5416  1.5691
22300SOL    HW267479   1.668   9.599   7.276 -0.3468 -0.2096 -0.5317
22301SOL     OW67480   7.809   6.864   8.849  1.0582 -0.4343  0.0331
22301SOL    HW167481   7.809   6.768   8.842 -0.6722 -0.4285 -0.6833
22301SOL    HW267482   7.822   6.894   8.759 -0.5274 -0.0502 -0.1001
22302SOL     OW67483   0.863   4.604   1.999 -0.0385  0.3064  0.7844
22302SOL    HW167484   0.951   4.589   1.962 -0.2287  1.1286 -0.0538
22302SOL    HW267485   0.869   4.690   2.041 -1.1006  1.6612 -1.5918
22303SOL     OW67486   0.731   7.168   8.119  0.3557 -0.1898 -0.2713
22303SOL    HW167487   0.770   7.230   8.057  0.2408 -0.7356 -0.8993
22303SOL    HW267488   0.652   7.212   8.150  0.6859  0.3051 -0.1000
22304SOL     OW67489   9.091   6.682   0.065 -0.2450 -0.1795  0.0799
22304SOL    HW167490   9.155   6.614   0.085 -0.7244 -0.6423  0.0548
22304SOL    HW267491   9.096   6.692  -0.030 -1.5426 -1.5640 -0.1599
22305SOL     OW67492   9.263   0.555   9.210  0.0958 -0.1076  0.4747
22305SOL    HW167493   9.344   0.568   9.258 -0.4338  2.5367  0.7840
22305SOL    HW267494   9.197   0.602   9.260 -1.0441  0.3121 -1.3171
22306SOL     OW67495   5.729   1.601   6.505  0.0712 -0.8477  0.1277
22306SOL    HW167496   5.660   1.572   6.564  0.7776 -2.4313  0.2243
22306SOL    HW267497   5.685   1.657   6.442 -0.9698 -0.3568  1.2432
22307SOL     OW67498   5.785   1.390   5.779  0.2600 -0.3063  0.4653
22307SOL    HW167499   5.808   1.313   5.830 -1.0052 -0.8897  0.1952
22307SOL    HW267500   5.757   1.354   5.694 -0.9587  0.3891  0.5576
22308SOL     OW67501   4.846   5.836   3.844 -0.3620  0.7206  0.3521
22308SOL    HW167502   4.883   5.916   3.880 -0.2353 -0.0285  1.9509
22308SOL    HW267503   4.752   5.842   3.864 -0.5985  1.1025 -0.7895
22309SOL     OW67504   7.689   1.769   9.322 -0.1977  0.2564 -0.1137
22309SOL    HW167505   7.633   1.732   9.253  1.3327 -0.1269 -1.2136
22309SOL    HW267506   7.728   1.847   9.281 -0.3075  0.8044  0.8067
22310SOL     OW67507   0.952   6.214   9.754 -0.3337  0.2567  0.2903
22310SOL    HW167508   0.865   6.212   9.714 -1.1807  1.5102  1.9118
22310SOL    HW267509   0.999   6.281   9.704 -0.6561  0.3033  0.0421
22311SOL     OW67510   6.825   1.544   6.888 -0.0988  0.0816 -0.0047
22311SOL    HW167511   6.739   1.570   6.856  0.4012  0.3787 -1.1333
22311SOL    HW267512   6.862   1.491   6.818  0.4724 -0.4166  0.6551
22312SOL     OW67513   5.504   6.768   5.821  0.5691  0.3137  0.4808
22312SOL    HW167514   5.416   6.777   5.856  0.4437 -1.9680  0.8754
22312SOL    HW267515   5.525   6.855   5.786 -0.4558  1.9008  3.5057
22313SOL     OW67516   6.089   8.702   7.006 -0.4913 -0.9411 -0.2224
22313SOL    HW167517   6.060   8.655   7.084 -0.5417 -1.5881 -0.6214
22313SOL    HW267518   6.182   8.681   6.998 -0.1596  0.2230  0.4211
22314SOL     OW67519   2.663   4.136   0.040 -0.2153  0.1016 -0.3055
22314SOL    HW167520   2.619   4.166  -0.039 -0.7201  2.1171  0.6576
22314SOL    HW267521   2.757   4.144   0.020 -0.2768 -1.4998 -1.3996
22315SOL     OW67522   5.460   8.621   4.546 -0.2352  0.3748 -0.0865
22315SOL    HW167523   5.421   8.636   4.632 -1.1747  2.0169 -0.7456
22315SOL    HW267524   5.405   8.553   4.507 -0.7667  0.7351  0.0255
22316SOL     OW67525   0.219   4.010   2.967  0.1699  0.3204 -0.3152
22316SOL    HW167526   0.179   4.022   3.053  0.5437 -2.1169  0.2544
22316SOL    HW267527   0.145   3.989   2.909  0.2558 -1.2170  0.1080
22317SOL     OW67528   3.319   6.632   8.766  0.5396  0.4322 -0.1336
22317SOL    HW167529   3.312   6.700   8.833  0.4632 -1.2400  1.6463
22317SOL    HW267530   3.405   6.592   8.782 -0.1084 -0.9652 -0.0436
22318SOL     OW67531   3.475   3.138   6.799 -0.0363  0.1870 -0.7857
22318SOL    HW167532   3.489   3.175   6.887  1.4972  0.8860 -1.2878
22318SOL    HW267533   3.390   3.095   6.805 -0.3253  0.8825  0.8248
22319SOL     OW67534   7.384   9.874   9.813 -0.0622  0.4275  0.1108
22319SOL    HW167535   7.345   9.789   9.833 -1.1007  0.4230 -1.7845
22319SOL    HW267536   7.474   9.867   9.846 -1.2003  0.0390  3.5637
22320SOL     OW67537   1.054   4.840   5.342  0.0871  0.0554  0.0908
22320SOL    HW167538   0.978   4.875   5.387 -0.6979 -0.8801 -0.4784
22320SOL    HW267539   1.108   4.802   5.411  0.0648  0.7574  0.5002
22321SOL     OW67540   3.276   5.064   6.398 -0.3045  0.2571 -0.0585
22321SOL    HW167541   3.238   5.018   6.323 -1.5000  0.4726  0.3990
22321SOL    HW267542   3.369   5.042   6.395 -0.3960 -0.0226 -1.3954
22322SOL     OW67543   5.360   3.020   4.541  0.5585  0.4086 -0.3403
22322SOL    HW167544   5.268   3.007   4.564  0.7256  0.5497  0.4218
22322SOL    HW267545   5.373   3.115   4.546  0.9256  0.3306  0.2641
22323SOL     OW67546   1.134   0.586   1.374 -0.7058 -0.6500  0.3303
22323SOL    HW167547   1.106   0.667   1.417  1.4270 -0.4213  1.4292
22323SOL    HW267548   1.153   0.526   1.447  0.0736 -1.3008 -0.3913
22324SOL     OW67549   2.417   8.545   4.323  0.2623  0.3485 -0.9462
22324SOL    HW167550   2.352   8.481   4.350  0.6925 -0.1835 -1.1568
22324SOL    HW267551   2.426   8.604   4.398 -0.6990  0.6222 -1.0377
22325SOL     OW67552   3.263   3.043   8.106  0.5777 -0.4135  0.0754
22325SOL    HW167553   3.283   2.966   8.159  1.5613 -1.1612 -1.3097
22325SOL    HW267554   3.179   3.023   8.065 -0.8321  0.7087  2.2461
22326SOL     OW67555   3.034   3.817   8.529 -0.4040  0.6925 -0.2715
22326SOL    HW167556   2.968   3.749   8.520 -0.8633  1.2097 -0.9157
22326SOL    HW267557   3.005   3.887   8.470  0.5314  1.0735 -0.2992
22327SOL     OW67558   4.814   0.566   1.858  0.2235  0.4498 -0.1162
22327SOL    HW167559   4.723   0.590   1.871 -0.3981 -1.6128 -0.2684
22327SOL    HW267560   4.811   0.496   1.792  1.7758 -0.5367  0.7962
22328SOL     OW67561   8.414   4.263   6.261  0.1395 -0.2858 -0.0773
22328SOL    HW167562   8.354   4.232   6.329 -0.0338 -1.2252 -0.6395
22328SOL    HW267563   8.390   4.354   6.247 -0.1553 -0.2256  0.7632
22329SOL     OW67564   3.879   2.536   2.571  0.2702 -0.0220 -0.2383
22329SOL    HW167565   3.875   2.543   2.475  0.2497  1.9024 -0.1533
22329SOL    HW267566   3.969   2.561   2.593 -0.6697  3.3489  0.3800
22330SOL     OW67567   1.659   3.590   1.695  0.5244  0.1020 -1.2560
22330SOL    HW167568   1.734   3.570   1.751  0.5757  2.3804 -0.4121
22330SOL    HW267569   1.661   3.523   1.626  2.3816 -0.8076 -0.3711
22331SOL     OW67570   8.060   4.319   6.357  0.4432  0.4709  0.1175
22331SOL    HW167571   8.108   4.354   6.432  0.1640  3.9364 -1.1515
22331SOL    HW267572   7.984   4.376   6.349 -1.0061 -1.5181 -1.2208
22332SOL     OW67573   7.716   1.835   2.955 -0.1866 -0.1511  0.3032
22332SOL    HW167574   7.736   1.815   2.863 -0.3265 -0.5025  0.3442
22332SOL    HW267575   7.621   1.825   2.960 -0.1341 -0.5399  0.5777
22333SOL     OW67576   8.344   0.744   2.044 -0.0651 -0.0679  0.0304
22333SOL    HW167577   8.354   0.740   1.949 -1.9152  2.3788 -0.3911
22333SOL    HW267578   8.420   0.793   2.074 -0.7814  1.5055 -0.5970
22334SOL     OW67579   2.267   5.652   9.235 -0.4607  0.0255  0.3639
22334SOL    HW167580   2.257   5.742   9.267 -0.2894 -0.0401  0.6007
22334SOL    HW267581   2.360   5.634   9.243 -0.1924  0.4394 -1.3329
22335SOL     OW67582   1.268   4.450   3.435  0.4280 -0.0056 -0.5193
22335SOL    HW167583   1.193   4.391   3.431 -0.1337  0.7568 -2.0428
22335SOL    HW267584   1.231   4.537   3.449  1.1394  0.2105  0.1381
22336SOL     OW67585   5.469   2.443   7.051 -0.6989 -0.2233 -0.1630
22336SOL    HW167586   5.399   2.473   6.993 -2.1681 -2.0613  0.5528
22336SOL    HW267587   5.513   2.523   7.079 -2.3096  0.9746 -0.8723
22337SOL     OW67588   1.751   4.352   1.333 -0.5678  0.1641 -0.4943
22337SOL    HW167589   1.816   4.305   1.386  0.6032  1.1570 -1.0191
22337SOL    HW267590   1.775   4.333   1.243 -0.2363  1.5333 -0.7144
22338SOL     OW67591   1.059   1.998   6.725  0.2304 -0.3039 -0.2956
22338SOL    HW167592   0.974   2.033   6.697 -0.2558 -1.0927  0.1517
22338SOL    HW267593   1.049   1.903   6.719  1.4187 -0.4006 -1.1923
22339SOL     OW67594   2.173   2.812   3.210  0.7302 -0.4246 -0.0898
22339SOL    HW167595   2.235   2.752   3.171 -0.2974 -1.0966 -0.7340
22339SOL    HW267596   2.136   2.860   3.136 -0.3261 -0.8276  0.1544
22340SOL     OW67597   2.837   4.717   0.852 -0.2503  0.1830  0.1268
22340SOL    HW167598   2.820   4.749   0.763  2.9937  1.9269 -0.0123
22340SOL    HW267599   2.833   4.795   0.907  1.0899 -0.2650  0.9093
22341SOL     OW67600   8.757   7.031   1.038 -0.5219 -0.0006  0.0228
22341SOL    HW167601   8.739   7.123   1.057  0.5220  0.2511 -0.1715
22341SOL    HW267602   8.787   6.994   1.121 -0.2818  0.0058 -0.0601
22342SOL     OW67603   2.402   3.243   6.028 -0.2422 -0.3056  0.0982
22342SOL    HW167604   2.405   3.148   6.016  0.4774 -0.2374 -0.3024
22342SOL    HW267605   2.464   3.277   5.964  0.8687  0.3340  1.4702
22343SOL     OW67606   6.566   7.461   2.688  0.0455 -0.3555  0.2719
22343SOL    HW167607   6.478   7.498   2.698  0.1579 -0.3307  1.3567
22343SOL    HW267608   6.558   7.373   2.725  0.6338 -0.1033  1.0261
22344SOL     OW67609   0.703   8.830   8.980 -0.0377 -0.3333  0.0545
22344SOL    HW167610   0.786   8.826   9.028  1.3924  3.1795 -1.7287
22344SOL    HW267611   0.723   8.882   8.903 -3.6347 -0.5515 -1.2039
22345SOL     OW67612   9.357   7.433   8.074  0.1648 -0.5295 -0.3707
22345SOL    HW167613   9.283   7.372   8.077 -2.1721  2.1146  2.0983
22345SOL    HW267614   9.341   7.488   7.998 -0.6694  0.2830  0.3788
22346SOL     OW67615   7.778   2.036   1.227  0.1120 -0.0277 -0.9070
22346SOL    HW167616   7.682   2.043   1.224 -0.0123  0.2331  1.5208
22346SOL    HW267617   7.800   2.058   1.317  2.5438  0.5740 -1.5768
22347SOL     OW67618   4.076   0.582   9.330 -0.0674 -0.1261  0.2401
22347SOL    HW167619   4.162   0.618   9.311 -0.2328  0.0383 -0.2128
22347SOL    HW267620   4.049   0.539   9.249 -0.4719 -0.0538  0.3317
22348SOL     OW67621   4.506   2.647   5.283 -0.4386 -0.4383  0.7542
22348SOL    HW167622   4.510   2.555   5.259 -1.1346 -0.5575  1.0725
22348SOL    HW267623   4.529   2.694   5.203 -1.0777 -0.8701  0.3052
22349SOL     OW67624   8.802   2.418   9.008 -0.0792 -0.2063 -0.4392
22349SOL    HW167625   8.827   2.329   9.035 -0.7827 -0.2532  0.0857
22349SOL    HW267626   8.723   2.406   8.956 -0.4768  0.1548  0.0750
22350SOL     OW67627   7.632   4.567   9.319 -0.0236 -0.2241  0.4342
22350SOL    HW167628   7.594   4.490   9.278  0.7921 -0.8614  0.8520
22350SOL    HW267629   7.725   4.546   9.330 -0.2934 -0.3403  3.1350
22351SOL     OW67630   9.178   6.096   8.449 -0.6444  0.1896  0.3148
22351SOL    HW167631   9.219   6.019   8.410 -1.9063 -0.7258  0.7262
22351SOL    HW267632   9.233   6.117   8.524  0.7023  0.7840 -0.7908
22352SOL     OW67633   1.100   5.731   6.921 -0.1104  0.2953  0.6110
22352SOL    HW167634   1.173   5.683   6.960 -0.7208 -0.5987  0.6897
22352SOL    HW267635   1.126   5.745   6.830  0.5166  0.7390  0.8488
22353SOL     OW67636   4.016   3.116   1.128 -0.0330 -0.2654  0.0267
22353SOL    HW167637   3.976   3.035   1.160  1.9918 -1.0299  0.8102
22353SOL    HW267638   4.002   3.179   1.198  0.3477 -0.6057  0.4161
22354SOL     OW67639   0.437   2.585   9.817 -0.6774 -0.3152  0.0107
22354SOL    HW167640   0.437   2.505   9.764 -0.1223  0.4722 -1.2296
22354SOL    HW267641   0.349   2.621   9.805 -0.1666  0.5393 -1.5110
22355SOL     OW67642   4.638   3.984   8.236  0.1199 -0.7859 -0.0980
22355SOL    HW167643   4.583   4.013   8.164 -0.5302  0.9355  1.0291
22355SOL    HW267644   4.714   3.944   8.194 -0.1855  0.2632 -1.7279
22356SOL     OW67645   7.687   2.732   5.926  0.0838 -0.2473  0.3735
22356SOL    HW167646   7.631   2.658   5.904 -0.3588 -1.0151  3.5594
22356SOL    HW267647   7.630   2.792   5.974  1.1623  0.6474  0.5777
22357SOL     OW67648   5.159   8.279   3.393  0.2232 -0.3871  0.3489
22357SOL    HW167649   5.114   8.258   3.311  0.6585  2.1422 -0.6447
22357SOL    HW267650   5.089   8.286   3.458 -0.8120  2.3255 -0.9180
22358SOL     OW67651   2.964   9.913   1.471 -0.0910  0.2728 -0.2976
22358SOL    HW167652   2.991  10.002   1.495 -0.3429  1.4333 -3.7968
22358SOL    HW267653   2.875   9.905   1.505  0.0761  1.1732  0.4032
22359SOL     OW67654   1.543   3.282   4.252  0.0891 -0.1966 -0.4162
22359SOL    HW167655   1.552   3.331   4.170 -1.7657 -1.4893 -1.4614
22359SOL    HW267656   1.570   3.193   4.230  1.3685 -0.1762  0.9113
22360SOL     OW67657   5.716   2.937   8.737  0.4923 -0.1709 -0.1747
22360SOL    HW167658   5.778   2.922   8.666  1.5973  0.3153  0.6391
22360SOL    HW267659   5.771   2.962   8.811 -0.5661 -1.2491  1.0307
22361SOL     OW67660   2.039   0.216   5.333 -0.5544 -0.4463  0.1548
22361SOL    HW167661   2.033   0.267   5.413 -0.1163 -1.7764  1.0710
22361SOL    HW267662   2.132   0.198   5.323 -0.5359  0.1786 -0.9867
22362SOL     OW67663   1.588   9.758   6.214  0.0716  0.1147 -0.0904
22362SOL    HW167664   1.541   9.740   6.296  0.4410  2.4496  0.7053
22362SOL    HW267665   1.638   9.837   6.232  2.0438 -0.6529 -1.8648
22363SOL     OW67666   4.413   1.673   2.768 -0.1733  0.0017  0.0563
22363SOL    HW167667   4.356   1.598   2.750  0.4492 -0.7781  1.2648
22363SOL    HW267668   4.369   1.720   2.839  0.5402 -0.4586  0.8168
22364SOL     OW67669   4.873   6.160   1.712 -0.1920  0.1470 -0.3023
22364SOL    HW167670   4.865   6.065   1.722  1.9678 -0.2229 -1.3967
22364SOL    HW267671   4.917   6.171   1.627  0.6295  2.0669  0.3192
22365SOL     OW67672   7.021   2.921   1.018  0.0840  0.0591  0.0317
22365SOL    HW167673   7.008   2.982   1.091 -0.9899 -1.0516  0.8001
22365SOL    HW267674   7.110   2.888   1.030  0.4392  0.9753 -0.0208
22366SOL     OW67675   1.724   1.821   1.092  0.0049  0.1993  0.0114
22366SOL    HW167676   1.804   1.852   1.050  0.6437 -1.3342  0.0521
22366SOL    HW267677   1.662   1.810   1.020  0.8291 -1.6019 -0.4562
22367SOL     OW67678   0.136   4.436   2.300  0.0792  0.7170 -0.0110
22367SOL    HW167679   0.041   4.423   2.302  0.4024 -3.3622 -1.5895
22367SOL    HW267680   0.166   4.409   2.386  0.0891 -3.9965 -1.2213
22368SOL     OW67681   5.595   7.909   0.959  0.5659 -0.2307  0.4680
22368SOL    HW167682   5.568   7.984   1.013  0.0670  0.5042 -0.7761
22368SOL    HW267683   5.653   7.859   1.016  1.7940  1.6762  0.9808
22369SOL     OW67684   9.954   1.333   2.908 -0.6593  0.6018 -0.5919
22369SOL    HW167685   9.860   1.343   2.925 -0.6368 -1.2353  0.8806
22369SOL    HW267686   9.958   1.267   2.839 -0.4581  1.8899 -1.8577
22370SOL     OW67687   8.204   2.673   8.048 -0.0884  0.8821 -0.6177
22370SOL    HW167688   8.132   2.619   8.080 -1.4867  1.7526 -2.1421
22370SOL    HW267689   8.218   2.738   8.117  0.4863 -0.3671  0.4789
22371SOL     OW67690   7.425   0.603   1.993 -0.0704  0.0792 -0.2661
22371SOL    HW167691   7.467   0.518   1.980  1.5321  0.5131  1.6023
22371SOL    HW267692   7.364   0.589   2.065  1.3183  0.7743  1.1255
22372SOL     OW67693   0.987   2.015   1.621  0.2777  1.0281 -0.0203
22372SOL    HW167694   0.935   2.082   1.577 -0.4426 -1.3620 -3.1640
22372SOL    HW267695   1.068   2.010   1.570  0.2015 -0.6222 -0.0322
22373SOL     OW67696   0.410   8.911   1.820  0.1868 -0.4103 -0.8715
22373SOL    HW167697   0.494   8.879   1.787 -0.1796 -0.8430 -1.4025
22373SOL    HW267698   0.345   8.876   1.759 -0.4642 -0.8056  0.0264
22374SOL     OW67699   5.295   3.049   2.598  0.3233  0.3347 -0.9313
22374SOL    HW167700   5.239   3.081   2.669  1.0468  1.3863 -0.8004
22374SOL    HW267701   5.275   3.107   2.524  1.7947  1.2881 -0.6335
22375SOL     OW67702   1.374   2.936   0.978  0.1589  0.3033  0.1508
22375SOL    HW167703   1.392   2.858   1.030  0.9306 -0.1398 -0.7507
22375SOL    HW267704   1.445   2.996   0.999  0.1565  0.3449  0.0438
22376SOL     OW67705   5.589   1.263   0.217 -0.0522  0.2072  0.0766
22376SOL    HW167706   5.558   1.333   0.160 -1.0084  0.1233  0.4772
22376SOL    HW267707   5.653   1.216   0.164  1.6276  2.1711  0.2587
22377SOL     OW67708   7.180   8.606   1.781 -0.5805 -0.6789  0.0466
22377SOL    HW167709   7.275   8.614   1.791 -0.4656  1.3199 -1.7836
22377SOL    HW267710   7.163   8.512   1.788  1.7435 -1.2677 -1.0667
22378SOL     OW67711   5.883   3.817   4.186 -0.4033 -0.1983  0.3474
22378SOL    HW167712   5.911   3.839   4.097 -1.9305 -0.8501 -0.3357
22378SOL    HW267713   5.919   3.730   4.201 -0.0199 -0.0275  0.4315
22379SOL     OW67714   3.666   2.869   2.137 -0.2051  0.1843  0.6193
22379SOL    HW167715   3.706   2.932   2.196 -0.1049 -0.2241  0.9977
22379SOL    HW267716   3.572   2.878   2.151 -0.1968  0.3483  0.5675
22380SOL     OW67717   9.056   3.027   0.249  0.0003  0.1439 -0.5876
22380SOL    HW167718   9.076   3.027   0.155 -0.7595 -0.4013 -0.7603
22380SOL    HW267719   9.066   2.935   0.275 -0.9914  0.0749 -0.4136
22381SOL     OW67720   1.727   5.204   0.935 -0.3706  0.0699 -0.5901
22381SOL    HW167721   1.779   5.258   0.876  1.7208 -0.8726  0.3068
22381SOL    HW267722   1.789   5.172   1.000 -2.0214 -1.3810  0.3662
22382SOL     OW67723   7.000   6.865   3.840  0.1410 -0.9529 -0.1387
22382SOL    HW167724   7.064   6.869   3.911  0.5584  1.5470 -0.5827
22382SOL    HW267725   6.915   6.863   3.885  0.4433 -1.4244  0.4305
22383SOL     OW67726   6.937   3.588   2.301 -0.1786  0.5186 -0.2603
22383SOL    HW167727   6.942   3.683   2.299  0.3980  0.5440  1.4836
22383SOL    HW267728   6.987   3.560   2.224  0.9970  1.5870  0.0884
22384SOL     OW67729   0.251   3.691   8.660  0.1713  0.4999  0.2670
22384SOL    HW167730   0.304   3.682   8.580  1.6477 -1.7338  1.4112
22384SOL    HW267731   0.256   3.605   8.702 -0.0605  1.7696  3.0794
22385SOL     OW67732   0.599   9.596   5.099 -0.0167  0.0497 -0.3272
22385SOL    HW167733   0.580   9.507   5.127  2.6923 -0.4036  0.3030
22385SOL    HW267734   0.626   9.641   5.179 -0.5802  1.2367 -0.7805
22386SOL     OW67735   0.731   4.796   6.131  0.1063  0.0869  0.1280
22386SOL    HW167736   0.655   4.780   6.186 -0.6808 -0.0545 -0.9687
22386SOL    HW267737   0.774   4.710   6.125 -0.6874 -0.2746 -0.7309
22387SOL     OW67738   2.720   8.442   4.296 -0.6258 -0.2384 -0.1268
22387SOL    HW167739   2.688   8.466   4.383 -0.1686  1.1148 -0.3027
22387SOL    HW267740   2.698   8.517   4.240 -0.3035 -0.7916 -1.0303
22388SOL     OW67741   5.668   6.279   8.869 -0.3661  0.4201 -0.4696
22388SOL    HW167742   5.738   6.296   8.932 -0.8111 -0.7289  0.3598
22388SOL    HW267743   5.706   6.300   8.784  0.3678  1.6374  0.1348
22389SOL     OW67744   0.819   6.606   1.900  0.5975 -0.5146  0.3900
22389SOL    HW167745   0.783   6.522   1.872  1.8832 -0.9575 -0.0113
22389SOL    HW267746   0.748   6.648   1.948  0.0237 -1.9596  0.8635
22390SOL     OW67747   7.263   6.479   4.542  0.5042 -0.6352  0.3109
22390SOL    HW167748   7.220   6.462   4.626 -0.5965  1.1396  0.1501
22390SOL    HW267749   7.295   6.569   4.549 -0.0397 -0.2794 -1.3273
22391SOL     OW67750   5.136   8.330   2.550 -0.1088  0.0792  0.4211
22391SOL    HW167751   5.089   8.411   2.568  1.4575  0.8875  1.0539
22391SOL    HW267752   5.195   8.352   2.478  0.3775 -0.4913  0.6386
22392SOL     OW67753   0.071   3.285   5.555  0.1632  0.4162 -0.1302
22392SOL    HW167754  -0.019   3.299   5.525  0.8292  0.4485 -2.3006
22392SOL    HW267755   0.070   3.200   5.599 -0.7993  0.0954 -0.7530
22393SOL     OW67756   2.284   1.488   6.657  0.6589  0.0555  0.1312
22393SOL    HW167757   2.327   1.408   6.688  0.5487  0.5513  1.6351
22393SOL    HW267758   2.193   1.461   6.643  0.5666 -0.0528  0.8592
22394SOL     OW67759   6.579   8.797   3.463 -0.1718 -0.0483 -0.4873
22394SOL    HW167760   6.487   8.781   3.439 -0.3390 -2.7640  1.5184
22394SOL    HW267761   6.629   8.737   3.407  0.5317  1.8731 -2.0257
22395SOL     OW67762   7.771   4.920   2.340  0.0573  0.1765  0.3701
22395SOL    HW167763   7.706   4.990   2.334  0.1107  0.1207 -2.6325
22395SOL    HW267764   7.729   4.854   2.395 -1.2090  1.3608  0.8902
22396SOL     OW67765   0.171   3.138   2.234 -0.1125  0.0175  0.1103
22396SOL    HW167766   0.115   3.096   2.170  1.5178 -1.3039 -0.5241
22396SOL    HW267767   0.217   3.066   2.278 -0.4655  0.9279  2.1140
22397SOL     OW67768   4.950   7.633   2.572  0.0494 -0.0397 -0.4525
22397SOL    HW167769   4.983   7.602   2.656  0.8862  0.9148 -0.4095
22397SOL    HW267770   5.027   7.642   2.517 -0.3514  0.4825 -0.9424
22398SOL     OW67771   4.087   2.121   1.365  0.1791  0.6364  0.6738
22398SOL    HW167772   4.056   2.150   1.450 -0.7628  0.1041  0.5294
22398SOL    HW267773   4.025   2.051   1.339 -0.5411  1.8559 -1.1410
22399SOL     OW67774   4.966   0.600   7.315  0.2990  0.0521  0.1455
22399SOL    HW167775   4.926   0.648   7.242  1.4728 -0.1360 -0.6415
22399SOL    HW267776   4.898   0.538   7.342  0.0744 -0.3353 -1.2320
22400SOL     OW67777   0.934   7.311   5.972 -0.7535  0.3968 -0.0270
22400SOL    HW167778   0.896   7.290   5.887 -0.2078  1.6422 -0.6045
22400SOL    HW267779   0.974   7.397   5.960  1.1014 -0.2897  0.9415
22401SOL     OW67780   0.920   8.908   5.659  0.2737 -0.0628  0.3956
22401SOL    HW167781   0.864   8.892   5.734  1.0114 -0.2612  0.9124
22401SOL    HW267782   0.937   9.002   5.661 -1.3548  0.2962 -0.7179
22402SOL     OW67783   8.660   1.601   1.686 -0.9757 -0.0764  0.0865
22402SOL    HW167784   8.736   1.652   1.658  0.5053 -0.1254  3.5369
22402SOL    HW267785   8.612   1.660   1.744 -1.6482 -1.2061  0.6967
22403SOL     OW67786   3.921   2.632   1.727 -0.3065  0.6186  0.3125
22403SOL    HW167787   3.834   2.630   1.688 -1.0469  1.2823  1.8562
22403SOL    HW267788   3.909   2.677   1.810  0.9673 -1.7396  1.8893
22404SOL     OW67789   2.310   4.397   7.885  0.2400  0.0217  0.2847
22404SOL    HW167790   2.337   4.325   7.829 -0.2268 -1.1442  1.5184
22404SOL    HW267791   2.249   4.358   7.948 -2.9491  2.1804 -1.2107
22405SOL     OW67792   9.845   6.785   1.122 -0.4373  0.1828  0.4734
22405SOL    HW167793   9.872   6.873   1.148 -0.0834  0.3684 -0.4956
22405SOL    HW267794   9.769   6.798   1.066 -0.3669 -0.1169  0.3032
22406SOL     OW67795   4.708   8.098   9.760 -0.5920  0.3600  0.2560
22406SOL    HW167796   4.676   8.159   9.693 -0.1705 -0.0804 -0.3480
22406SOL    HW267797   4.770   8.150   9.812  2.5923 -0.4150 -2.4352
22407SOL     OW67798   3.776   9.278   7.845  0.5471  0.0279  0.5339
22407SOL    HW167799   3.733   9.331   7.779  3.4328  1.3677 -0.4232
22407SOL    HW267800   3.776   9.189   7.810 -0.1876  0.2558 -0.0491
22408SOL     OW67801   1.273   8.584   2.134 -0.0936  0.3618  0.1392
22408SOL    HW167802   1.200   8.521   2.128  0.6904 -0.4346 -2.9617
22408SOL    HW267803   1.258   8.644   2.061  2.1501  0.3777 -0.3707
22409SOL     OW67804   2.409   1.511   1.814  0.2051 -0.2142 -0.7616
22409SOL    HW167805   2.376   1.490   1.726 -1.1182 -1.2771 -0.0580
22409SOL    HW267806   2.485   1.566   1.799  0.7528 -1.3811 -2.6159
22410SOL     OW67807   7.840   8.890   4.512 -0.0395  0.1887 -0.0572
22410SOL    HW167808   7.880   8.973   4.539  0.9784 -0.4616  0.4703
22410SOL    HW267809   7.902   8.852   4.450  0.3182 -0.9658  0.9760
22411SOL     OW67810   6.862   8.283   3.936 -0.4505 -0.1356  1.2660
22411SOL    HW167811   6.897   8.266   3.848  0.0830 -1.0325  1.6345
22411SOL    HW267812   6.924   8.346   3.974 -0.2334 -0.3575  1.2825
22412SOL     OW67813   3.957   5.044   9.530 -0.6114  0.0729  0.8371
22412SOL    HW167814   4.005   5.068   9.610 -2.1774  0.2489  1.7677
22412SOL    HW267815   3.998   5.096   9.461  2.2590 -1.7060  1.0465
22413SOL     OW67816   7.837   9.726   3.244  0.3633  0.2774 -0.5236
22413SOL    HW167817   7.770   9.760   3.185 -1.2863  1.4248  1.8315
22413SOL    HW267818   7.920   9.752   3.203 -0.6293  0.2489 -2.7201
22414SOL     OW67819   9.359   3.291   0.542  0.0764 -0.0795  0.3036
22414SOL    HW167820   9.412   3.344   0.600 -0.0564  0.8567 -0.3990
22414SOL    HW267821   9.395   3.203   0.549 -0.0198 -0.0182  1.8708
22415SOL     OW67822   0.630   0.449   2.070  0.1943  0.1948  0.2122
22415SOL    HW167823   0.538   0.464   2.091 -0.0664  0.1948 -0.8649
22415SOL    HW267824   0.628   0.411   1.982  1.2858  1.4506 -0.3843
22416SOL     OW67825   1.433   8.575   2.662 -0.0058 -0.3202  0.0408
22416SOL    HW167826   1.433   8.660   2.707 -0.8584 -0.1240 -0.3205
22416SOL    HW267827   1.524   8.544   2.670  1.2651  2.1641 -2.6745
22417SOL     OW67828   4.050   6.726   7.392  0.4098  0.5761 -0.2676
22417SOL    HW167829   4.074   6.745   7.483  1.3104  0.1645 -0.4083
22417SOL    HW267830   4.133   6.702   7.350  0.1730  1.6737 -1.4360
22418SOL     OW67831   9.220   5.461   6.769  0.0465  0.2895 -0.9947
22418SOL    HW167832   9.216   5.522   6.843 -1.5784  0.0790 -0.8676
22418SOL    HW267833   9.188   5.511   6.695  0.8541  0.2425 -1.3833
22419SOL     OW67834   3.881   0.193   9.070 -0.5037  0.1443 -0.3266
22419SOL    HW167835   3.874   0.164   8.979  0.5578 -0.8581 -0.1201
22419SOL    HW267836   3.880   0.112   9.121  0.1576  0.6169  0.4580
22420SOL     OW67837   9.148   7.063   2.971 -0.8323 -0.1719 -0.1475
22420SOL    HW167838   9.139   6.990   3.032  1.0737 -0.2648  0.0804
22420SOL    HW267839   9.083   7.045   2.903 -1.2433 -1.4036  0.5321
22421SOL     OW67840   5.437   7.784   9.489 -0.7922 -0.1694  0.6201
22421SOL    HW167841   5.412   7.693   9.477 -2.9523  0.7003 -2.7962
22421SOL    HW267842   5.523   7.780   9.533 -0.9525 -3.7561  0.8504
22422SOL     OW67843   0.331   5.427   0.870 -0.1677 -0.1188 -0.1287
22422SOL    HW167844   0.422   5.401   0.856  0.6413  2.0799  0.5995
22422SOL    HW267845   0.281   5.369   0.813  1.7957 -0.5302 -1.5761
22423SOL     OW67846   6.672   2.480   8.120 -0.9146  0.0202 -0.1510
22423SOL    HW167847   6.607   2.499   8.053 -0.6587  2.9191  0.3096
22423SOL    HW267848   6.756   2.503   8.080 -0.5993  0.2751  0.6313
22424SOL     OW67849   0.219   0.669   3.925  0.1110 -0.0257 -0.2851
22424SOL    HW167850   0.129   0.640   3.937  0.1817  0.2769  1.1914
22424SOL    HW267851   0.269   0.620   3.990  0.8820  0.3763 -0.5616
22425SOL     OW67852   1.986   1.752   5.356  0.1404  0.0345  0.0722
22425SOL    HW167853   1.966   1.770   5.264  0.6378 -0.0982 -0.0636
22425SOL    HW267854   1.934   1.675   5.377 -0.1498  0.2006 -0.0327
22426SOL     OW67855   8.327   0.477   2.224  0.1534  0.3180 -0.3514
22426SOL    HW167856   8.341   0.507   2.314  3.1074 -0.9337 -0.2518
22426SOL    HW267857   8.366   0.545   2.170  0.5647 -0.0273 -0.5026
22427SOL     OW67858   5.123   1.519   0.636  0.0623 -0.2823  0.7495
22427SOL    HW167859   5.178   1.593   0.663 -0.5757  0.6211 -0.3808
22427SOL    HW267860   5.046   1.526   0.692 -0.3011  0.3300  0.1910
22428SOL     OW67861   7.898   4.826   6.408 -0.1064  0.8466  0.5205
22428SOL    HW167862   7.874   4.754   6.465 -1.1296  0.6270 -0.1487
22428SOL    HW267863   7.989   4.847   6.431  0.2545 -0.7392  0.6190
22429SOL     OW67864   7.527   5.485   3.488  0.1758 -0.2119  0.2168
22429SOL    HW167865   7.515   5.460   3.397 -2.9916  1.1589  0.1504
22429SOL    HW267866   7.594   5.553   3.485  0.4126 -0.4736 -1.0230
22430SOL     OW67867   6.622   7.167   9.053  0.1669 -0.0313 -0.1882
22430SOL    HW167868   6.648   7.087   9.008  0.7566 -0.8066  1.4489
22430SOL    HW267869   6.551   7.139   9.111  0.5102  0.5945  0.5405
22431SOL     OW67870   5.065   0.301   9.540  0.3513  0.0977 -0.1866
22431SOL    HW167871   4.976   0.266   9.537  0.9216 -1.4606  0.3176
22431SOL    HW267872   5.068   0.351   9.622 -0.3282  0.9952 -0.6862
22432SOL     OW67873   4.151   6.247   2.148 -0.8447  0.4856 -0.1911
22432SOL    HW167874   4.219   6.233   2.082  1.2404  1.3867  1.6417
22432SOL    HW267875   4.161   6.173   2.208 -1.6533  0.5205 -0.0039
22433SOL     OW67876   7.936   1.906   1.060  0.4705  0.3412  0.3375
22433SOL    HW167877   7.899   1.968   1.123  0.8362  0.7313  0.1743
22433SOL    HW267878   7.927   1.820   1.103 -0.1437  0.4900  0.5122
22434SOL     OW67879   9.259   0.205   8.833 -0.7421  0.1774 -0.0903
22434SOL    HW167880   9.312   0.283   8.849 -0.2943 -0.5254  2.3299
22434SOL    HW267881   9.313   0.133   8.866 -1.2825 -1.1437 -1.9684
22435SOL     OW67882   9.837   7.545   5.745  0.0078  0.6013 -0.3486
22435SOL    HW167883   9.772   7.528   5.813  0.9911  1.1525  0.7715
22435SOL    HW267884   9.786   7.550   5.664 -1.1902 -0.1177  0.3226
22436SOL     OW67885   1.018   8.735   3.256  0.0017  0.1603 -0.1320
22436SOL    HW167886   1.049   8.655   3.215  0.0262  0.6450 -1.0845
22436SOL    HW267887   1.093   8.794   3.254 -0.1934  0.4159  0.0106
22437SOL     OW67888   9.607   7.918   9.366 -0.0141  0.1323 -0.1431
22437SOL    HW167889   9.665   7.966   9.425  2.5623 -1.1097 -1.5334
22437SOL    HW267890   9.570   7.986   9.309 -0.4557  1.0019  1.1229
22438SOL     OW67891   6.312   5.580   7.869  0.6527 -0.4829 -0.3023
22438SOL    HW167892   6.228   5.554   7.831  1.1626 -0.5042 -1.4407
22438SOL    HW267893   6.289   5.645   7.936 -0.3006 -0.8486 -0.2575
22439SOL     OW67894   9.270   7.573   7.184 -0.0748 -0.3943  0.8169
22439SOL    HW167895   9.214   7.498   7.165 -0.3007 -0.2270  0.8157
22439SOL    HW267896   9.220   7.625   7.247  0.3661 -0.5856  1.3339
22440SOL     OW67897   6.715   5.955   3.727 -0.3287  0.1891  0.3839
22440SOL    HW167898   6.797   5.907   3.714  1.9978  3.6717  0.8201
22440SOL    HW267899   6.686   5.930   3.815  0.6208 -0.6406  0.4811
22441SOL     OW67900   5.607   4.141   5.063  0.0446  0.1277 -0.0353
22441SOL    HW167901   5.611   4.232   5.034 -0.8715 -0.1010 -0.9207
22441SOL    HW267902   5.579   4.146   5.155 -1.6566  0.6798 -0.5677
22442SOL     OW67903   3.762   8.264   4.898 -0.0934  0.1715  0.0809
22442SOL    HW167904   3.696   8.322   4.860 -2.9152 -1.7985  1.5875
22442SOL    HW267905   3.765   8.188   4.839 -0.5094 -0.5175  0.9225
22443SOL     OW67906   9.261   2.057   7.702  0.5431  0.0934  1.1159
22443SOL    HW167907   9.183   2.003   7.687 -0.2778  1.3518  0.7085
22443SOL    HW267908   9.307   2.058   7.619  0.5072  0.0915  1.0960
22444SOL     OW67909   6.002   6.259   8.851  0.4660 -0.0176  0.4749
22444SOL    HW167910   6.089   6.268   8.814  0.7911  2.0323  1.5846
22444SOL    HW267911   6.010   6.290   8.942 -1.6660  1.6913  0.1853
22445SOL     OW67912   2.961   4.276   2.069 -0.1784  0.0885  0.1864
22445SOL    HW167913   3.037   4.258   2.125 -2.1924  1.0382  3.5100
22445SOL    HW267914   2.981   4.231   1.987  4.0997  0.6482  0.6880
22446SOL     OW67915   6.064   1.251   3.510  0.0746 -0.3881  0.0579
22446SOL    HW167916   5.974   1.259   3.541  0.0874  1.9870 -0.3819
22446SOL    HW267917   6.118   1.251   3.589 -0.1219  1.9501  0.2430
22447SOL     OW67918   2.623   5.456   7.417  0.6187 -0.2646  0.2752
22447SOL    HW167919   2.589   5.545   7.431  1.2543  0.4466 -2.2175
22447SOL    HW267920   2.718   5.466   7.426  0.6167 -0.9155  1.0106
22448SOL     OW67921   5.411   3.416   7.634  0.2650  0.4924  0.9505
22448SOL    HW167922   5.433   3.328   7.604  0.0354  0.6230  0.3874
22448SOL    HW267923   5.463   3.474   7.579  0.2783  0.7217  1.1975
22449SOL     OW67924   4.964   1.202   8.066 -0.4261 -0.1229 -0.0047
22449SOL    HW167925   5.050   1.167   8.043  0.0683 -0.1947  1.7793
22449SOL    HW267926   4.983   1.279   8.120 -1.4764  0.1285  0.0217
22450SOL     OW67927   7.802   6.268   5.889 -0.1282 -0.4788 -0.2535
22450SOL    HW167928   7.726   6.247   5.942 -0.3924  0.0195 -0.4249
22450SOL    HW267929   7.850   6.333   5.941  0.6787 -1.4826  0.2755
22451SOL     OW67930   9.131   9.727   3.890 -0.6681 -0.4377  0.0868
22451SOL    HW167931   9.040   9.750   3.909 -0.7984 -1.0329  0.1876
22451SOL    HW267932   9.169   9.808   3.857 -1.1346 -0.0852  0.4022
22452SOL     OW67933   9.131   4.814   6.520 -0.0625 -0.4567  0.0909
22452SOL    HW167934   9.104   4.780   6.605 -0.1397 -3.0987 -0.9079
22452SOL    HW267935   9.204   4.759   6.493  2.4100  2.6128 -0.0465
22453SOL     OW67936   7.370   3.358   1.906  0.0418  0.1186 -0.4266
22453SOL    HW167937   7.426   3.385   1.979 -0.1104 -3.1205  1.0761
22453SOL    HW267938   7.311   3.432   1.893 -0.3177  0.6720  3.1708
22454SOL     OW67939  -0.020   0.434   0.294 -0.5743 -0.1596 -0.0048
22454SOL    HW167940   0.068   0.457   0.324 -0.9903  0.3309  0.8731
22454SOL    HW267941  -0.015   0.440   0.199  0.2182  0.3557  0.0579
22455SOL     OW67942   1.291   8.567   0.165 -0.6073 -0.8372  0.5589
22455SOL    HW167943   1.338   8.484   0.153 -2.2604 -2.0366  1.8849
22455SOL    HW267944   1.306   8.589   0.257 -2.0880 -0.9209  0.8336
22456SOL     OW67945   7.863   8.837   1.974 -0.0920 -0.2489  0.1513
22456SOL    HW167946   7.789   8.888   2.005 -0.0135  1.2343 -1.9407
22456SOL    HW267947   7.921   8.901   1.933  0.2495 -1.8913 -2.1213
22457SOL     OW67948   3.568   0.616   1.612 -0.2274  0.2496 -0.7717
22457SOL    HW167949   3.578   0.683   1.679 -6.3614  2.3083 -1.2638
22457SOL    HW267950   3.561   0.534   1.660  1.1875  0.8150  0.4511
22458SOL     OW67951   4.175   3.860   3.286 -0.2603 -0.0333 -0.3424
22458SOL    HW167952   4.098   3.810   3.311  0.9208 -1.4635  0.6557
22458SOL    HW267953   4.147   3.951   3.290 -1.7357 -0.4970  0.5819
22459SOL     OW67954   4.872   2.186   0.494 -0.2383  0.0071  0.0473
22459SOL    HW167955   4.865   2.126   0.419 -0.7376 -0.6930  0.6427
22459SOL    HW267956   4.782   2.215   0.510 -0.1334  0.1552  0.3830
22460SOL     OW67957   5.716   2.266   5.786  0.5042 -0.1021  0.4725
22460SOL    HW167958   5.793   2.256   5.842  0.3832  1.1919  0.9108
22460SOL    HW267959   5.657   2.196   5.813  1.4399 -0.9972  0.2564
22461SOL     OW67960   3.102   9.663   6.180 -0.1499 -0.2278 -0.0102
22461SOL    HW167961   3.021   9.714   6.179  1.0923  1.8996 -0.3334
22461SOL    HW267962   3.111   9.633   6.271 -0.3252  1.2427  0.5223
22462SOL     OW67963   0.615   9.631   4.622  0.0170  0.3518 -0.5875
22462SOL    HW167964   0.655   9.717   4.639  0.4293  0.2732 -1.1352
22462SOL    HW267965   0.593   9.634   4.528 -1.6598  0.5570 -0.2152
22463SOL     OW67966   2.705   4.351   5.061  0.4737  0.3749  0.2325
22463SOL    HW167967   2.758   4.406   5.003 -0.8464  1.4923  0.0358
22463SOL    HW267968   2.769   4.297   5.107  1.8097  1.8787  0.2279
22464SOL     OW67969   6.202   2.553   8.252 -0.3033  0.3614 -0.7407
22464SOL    HW167970   6.298   2.553   8.247 -0.2665  3.0183 -1.8436
22464SOL    HW267971   6.181   2.631   8.303 -1.8994 -0.1280 -0.6068
22465SOL     OW67972   8.931   7.917   9.843 -0.8144  0.2160  0.4224
22465SOL    HW167973   8.970   7.939   9.928  1.4775  1.5403 -0.8962
22465SOL    HW267974   8.933   7.998   9.793 -2.3954 -0.4700 -0.8571
22466SOL     OW67975   1.585   6.096   9.014 -0.2782  0.3778 -0.1124
22466SOL    HW167976   1.612   6.009   8.985  0.6202  0.4165  0.6016
22466SOL    HW267977   1.507   6.115   8.961 -1.5493 -1.5778  0.9226
22467SOL     OW67978   3.241   3.124   7.662 -0.5911 -0.0558 -0.3304
22467SOL    HW167979   3.154   3.160   7.679 -0.9904 -1.3122  0.4626
22467SOL    HW267980   3.224   3.040   7.619  0.2591  0.0022 -0.8164
22468SOL     OW67981   5.817   5.345   5.117  0.1267  0.1019 -0.3682
22468SOL    HW167982   5.778   5.344   5.204 -0.8628 -1.0967 -0.7941
22468SOL    HW267983   5.772   5.417   5.072  0.9423  1.0015  0.2164
22469SOL     OW67984   8.211   2.202   3.749  0.4847 -0.1140 -0.1985
22469SOL    HW167985   8.289   2.256   3.752  0.4581 -0.1134  0.6766
22469SOL    HW267986   8.176   2.204   3.838 -0.2746 -0.4623 -0.4718
22470SOL     OW67987   1.502   9.440   8.156  0.5564 -0.3970  0.7676
22470SOL    HW167988   1.530   9.452   8.065  0.4729  0.2470  0.8193
22470SOL    HW267989   1.562   9.374   8.191  0.0061 -1.3204 -0.0128
22471SOL     OW67990   7.889   8.178   4.075  0.7369 -0.1516  0.1129
22471SOL    HW167991   7.935   8.260   4.056 -0.5407  0.7284  0.6982
22471SOL    HW267992   7.797   8.198   4.058  0.4046 -1.4555  0.3203
22472SOL     OW67993   7.838   7.407   3.261  0.8248  0.0271 -0.3552
22472SOL    HW167994   7.873   7.321   3.238  1.2741 -0.3000  1.4441
22472SOL    HW267995   7.914   7.457   3.291  0.2823  0.4581  0.3285
22473SOL     OW67996   1.438   5.230   7.607 -0.3657 -0.8914 -0.2087
22473SOL    HW167997   1.385   5.202   7.532 -0.0290 -1.2966 -0.3006
22473SOL    HW267998   1.443   5.325   7.599 -1.5919 -0.7847  0.1498
22474SOL     OW67999   8.444   9.539   7.040 -0.9493 -0.2765 -0.4992
22474SOL    HW168000   8.448   9.561   7.133 -1.7535 -0.7370 -0.3448
22474SOL    HW268001   8.535   9.523   7.015 -0.6361  0.6102  0.0113
22475SOL     OW68002   2.433   3.819   0.851  1.0771 -0.3245 -0.3406
22475SOL    HW168003   2.378   3.745   0.827  0.1891 -0.1300  1.0334
22475SOL    HW268004   2.374   3.881   0.893  1.7082  1.3667 -1.7824
22476SOL     OW68005   2.724   9.665   5.734 -0.2651  0.5272  0.1573
22476SOL    HW168006   2.763   9.605   5.670  0.4346 -0.6367  1.5879
22476SOL    HW268007   2.794   9.726   5.755 -0.0935  0.1557  0.6862
22477SOL     OW68008   6.906   4.339   0.410 -0.1161  0.4325 -1.0349
22477SOL    HW168009   6.896   4.408   0.344  0.8610  1.4425 -0.1628
22477SOL    HW268010   6.948   4.382   0.484 -0.8912 -0.7546  0.1456
22478SOL     OW68011   5.278   8.067   0.988 -0.4743 -0.1462 -0.2800
22478SOL    HW168012   5.248   7.982   0.954 -1.4856  0.6094 -1.3716
22478SOL    HW268013   5.335   8.045   1.062 -2.2131 -1.7211  0.6612
22479SOL     OW68014   9.479   5.732   6.189  0.1989  0.1656  0.1613
22479SOL    HW168015   9.425   5.672   6.241  0.6090 -1.2856 -1.0033
22479SOL    HW268016   9.561   5.684   6.175  1.2223  1.7140  0.6139
22480SOL     OW68017   2.358   5.000   2.359 -0.3442  0.1613  0.1633
22480SOL    HW168018   2.308   4.962   2.287 -0.8997 -1.6249  1.4202
22480SOL    HW268019   2.324   5.088   2.368  0.5985  0.9276 -2.5126
22481SOL     OW68020   5.608   7.474   2.885  0.7992  0.0457 -0.7983
22481SOL    HW168021   5.635   7.544   2.825 -0.8222  0.6078 -0.9291
22481SOL    HW268022   5.596   7.398   2.829  0.2936  0.2976 -1.0435
22482SOL     OW68023   7.411   1.885   2.660  0.1499 -0.0420  0.0863
22482SOL    HW168024   7.321   1.918   2.668 -0.1685 -1.2529  2.2766
22482SOL    HW268025   7.404   1.812   2.598 -0.0159  0.9278 -1.0781
22483SOL     OW68026   3.216   8.215   3.450 -0.8934  0.0352 -0.8198
22483SOL    HW168027   3.271   8.263   3.388 -0.8463  0.9838 -0.0690
22483SOL    HW268028   3.235   8.123   3.433 -0.8140  0.2720 -2.1382
22484SOL     OW68029   7.923   4.603   7.416 -0.1001 -0.1829 -0.4634
22484SOL    HW168030   7.979   4.677   7.391  1.2695 -1.3439 -1.0165
22484SOL    HW268031   7.896   4.565   7.332 -3.4104  1.4504 -0.3103
22485SOL     OW68032   2.354   4.071   4.793  0.7297  0.2694  0.1862
22485SOL    HW168033   2.428   4.012   4.774 -0.7840 -1.0061 -2.2855
22485SOL    HW268034   2.380   4.154   4.755  1.2862  0.1079  0.1963
22486SOL     OW68035   3.807   2.919   7.255 -0.0279  0.3219  0.3666
22486SOL    HW168036   3.828   2.864   7.330  0.7216 -1.0812 -0.8196
22486SOL    HW268037   3.711   2.917   7.250 -0.1397  1.1055  1.7381
22487SOL     OW68038   1.599   8.831   4.702 -0.2912  0.3228  0.0335
22487SOL    HW168039   1.522   8.808   4.650  0.1410 -0.6496 -0.1912
22487SOL    HW268040   1.606   8.926   4.692 -0.7854  0.2787 -0.9010
22488SOL     OW68041   3.785   2.742   3.308 -0.6695  0.4962 -0.0722
22488SOL    HW168042   3.820   2.777   3.226 -1.0219  0.7582 -0.1161
22488SOL    HW268043   3.810   2.807   3.374 -1.7512  1.1020 -0.2322
22489SOL     OW68044   8.350   4.883   8.725 -0.0090 -0.3191  0.3931
22489SOL    HW168045   8.413   4.853   8.791 -1.1341  0.9309  2.1327
22489SOL    HW268046   8.375   4.974   8.708  0.4278 -0.6942 -1.1742
22490SOL     OW68047   9.250   1.933   4.770 -0.4781 -0.3103 -0.3045
22490SOL    HW168048   9.328   1.966   4.725 -0.5328 -0.3529 -0.4301
22490SOL    HW268049   9.284   1.870   4.833 -0.2256  1.0701  0.9867
22491SOL     OW68050   8.295   5.225   8.472 -0.0947  0.4599  0.3600
22491SOL    HW168051   8.342   5.193   8.550  0.8272  1.2140  0.1335
22491SOL    HW268052   8.291   5.320   8.484  0.2478  0.6060 -0.6098
22492SOL     OW68053   4.596   8.672   6.145  0.0876  0.1782 -0.2179
22492SOL    HW168054   4.601   8.762   6.115  0.1930  0.3793  0.3822
22492SOL    HW268055   4.569   8.622   6.068 -0.7892  0.8327 -0.3465
22493SOL     OW68056   4.800   4.761   8.559 -0.2235 -0.0968 -0.1144
22493SOL    HW168057   4.877   4.811   8.585 -0.0750  0.9007 -2.2159
22493SOL    HW268058   4.828   4.670   8.564  0.9559  0.2337 -0.3451
22494SOL     OW68059   3.232   3.806   5.368 -0.1756  0.2005  0.1941
22494SOL    HW168060   3.225   3.712   5.348  0.4930  0.3551 -0.8246
22494SOL    HW268061   3.160   3.822   5.429 -0.3422 -0.9611  0.3379
22495SOL     OW68062   3.468   7.489   3.193 -0.8688 -0.5054  0.6559
22495SOL    HW168063   3.555   7.484   3.232 -0.0896 -1.5570 -1.0530
22495SOL    HW268064   3.413   7.528   3.260  0.6363 -1.0415  2.2815
22496SOL     OW68065   0.507   8.741   2.960  0.2761 -0.7053  0.3554
22496SOL    HW168066   0.436   8.690   2.920  0.1252  0.6157 -1.1882
22496SOL    HW268067   0.581   8.680   2.964  0.7918 -0.6290 -3.4563
22497SOL     OW68068   4.377   8.096   1.096 -0.0325  0.0665 -0.0007
22497SOL    HW168069   4.346   8.008   1.076 -0.0661  0.4528 -1.7744
22497SOL    HW268070   4.429   8.122   1.020 -1.7462  2.3633 -0.5166
22498SOL     OW68071   4.071   0.435   5.846  0.0270  0.2269 -0.9655
22498SOL    HW168072   4.162   0.461   5.864 -0.0679 -0.2204  0.2233
22498SOL    HW268073   4.023   0.464   5.923 -0.2748 -2.4927 -0.0399
22499SOL     OW68074   0.753   6.849   4.450  0.3513 -0.3937  0.6580
22499SOL    HW168075   0.737   6.943   4.447  0.0580 -0.2975  3.3073
22499SOL    HW268076   0.684   6.811   4.394  0.6522  0.9166 -0.6701
22500SOL     OW68077   6.833   0.914   9.805 -0.0689  0.1865 -0.7578
22500SOL    HW168078   6.900   0.966   9.760 -0.8667  0.3970 -1.7393
22500SOL    HW268079   6.869   0.825   9.805  0.9648  0.5816  0.2698
22501SOL     OW68080   1.870   8.929   7.083  0.7156 -0.5534  0.1794
22501SOL    HW168081   1.796   8.899   7.136  0.8588 -0.5471  0.3856
22501SOL    HW268082   1.834   8.999   7.029  0.9364  0.5573  1.4232
22502SOL     OW68083   3.785   5.311   6.618 -0.2402 -0.2663 -0.0361
22502SOL    HW168084   3.765   5.221   6.643 -0.9479 -0.7175 -2.0619
22502SOL    HW268085   3.772   5.313   6.523 -2.8369  2.6271  0.2573
22503SOL     OW68086   1.491   6.541   1.489  0.2570  0.3738 -0.0009
22503SOL    HW168087   1.409   6.495   1.468 -0.2220  1.5546 -0.8450
22503SOL    HW268088   1.499   6.533   1.584 -0.3711 -0.5026  0.0012
22504SOL     OW68089   0.405   5.308   9.910  0.1315 -0.1875 -0.1064
22504SOL    HW168090   0.333   5.246   9.897 -0.1304 -0.5932  2.7646
22504SOL    HW268091   0.484   5.256   9.891 -0.2009 -0.4422 -0.8494
22505SOL     OW68092   9.639   8.616   4.178 -0.0111  0.3635 -0.2082
22505SOL    HW168093   9.593   8.544   4.221  2.3042 -1.1607 -0.1155
22505SOL    HW268094   9.679   8.576   4.101  1.5638  1.4594 -0.0003
22506SOL     OW68095   4.399   2.635   1.416  0.5496 -0.5231  0.0197
22506SOL    HW168096   4.331   2.669   1.358  0.6969  0.0185  0.1601
22506SOL    HW268097   4.351   2.600   1.491  0.1627 -3.3485 -1.3948
22507SOL     OW68098   0.215   6.492   8.847  0.1309 -0.2896  0.7261
22507SOL    HW168099   0.264   6.553   8.792 -0.4448 -0.0737  0.4502
22507SOL    HW268100   0.176   6.546   8.915  0.3368 -0.4718  0.9897
22508SOL     OW68101   6.395   0.176   3.330  0.1131  0.2281  0.2671
22508SOL    HW168102   6.446   0.217   3.400  1.7609 -0.1930 -0.6552
22508SOL    HW268103   6.399   0.082   3.349 -0.4336  0.1976  0.2524
22509SOL     OW68104   6.416   5.913   6.099 -0.3662  0.0711  0.2620
22509SOL    HW168105   6.415   5.852   6.172  1.2630 -1.2633 -0.7590
22509SOL    HW268106   6.351   5.980   6.122  1.4051  0.7819  3.7778
22510SOL     OW68107   0.622   4.494   3.376 -0.0032  0.3800 -0.1987
22510SOL    HW168108   0.683   4.509   3.303  0.4196 -2.6229 -0.5864
22510SOL    HW268109   0.676   4.457   3.446 -0.9733 -0.0681  0.3400
22511SOL     OW68110   2.015   2.970   8.042 -0.3054 -0.5521 -0.1233
22511SOL    HW168111   1.998   2.897   7.983  0.7558 -0.1089 -1.0182
22511SOL    HW268112   2.100   2.948   8.082  0.0604  0.2086 -0.4606
22512SOL     OW68113   9.150   5.507   8.387 -0.2932  0.1136  0.1825
22512SOL    HW168114   9.060   5.476   8.398 -0.6977  1.6585  1.6955
22512SOL    HW268115   9.145   5.602   8.403  1.0192  0.9309 -3.3215
22513SOL     OW68116   5.237   3.481   4.706 -0.1329  0.3317  0.3030
22513SOL    HW168117   5.299   3.540   4.749  0.4495 -0.5918  0.7804
22513SOL    HW268118   5.187   3.537   4.646  0.5137  1.2626  0.6131
22514SOL     OW68119   9.226   7.098   7.506  0.0788 -0.0768  0.3573
22514SOL    HW168120   9.243   7.097   7.600 -0.4766  1.4280  0.4987
22514SOL    HW268121   9.204   7.007   7.484  0.6957 -0.5351  1.5780
22515SOL     OW68122   9.131   9.076   2.429 -0.7987  0.5246 -0.0522
22515SOL    HW168123   9.068   9.148   2.429 -2.3818 -0.7261 -1.8996
22515SOL    HW268124   9.105   9.022   2.504 -1.1790  0.6306 -0.1039
22516SOL     OW68125   2.614   1.210   6.849  0.0578  0.1302 -0.4119
22516SOL    HW168126   2.695   1.221   6.899  1.1087  1.5678 -2.3084
22516SOL    HW268127   2.600   1.115   6.847 -0.1515 -0.0121  2.6657
22517SOL     OW68128   1.147   0.875   1.654 -0.2032  0.7119 -0.0048
22517SOL    HW168129   1.130   0.952   1.709 -1.6203  1.2142 -1.0828
22517SOL    HW268130   1.068   0.823   1.661  0.8345 -0.8223  0.9040
22518SOL     OW68131   4.229   1.827   4.260  0.0781  0.2280 -0.3930
22518SOL    HW168132   4.214   1.743   4.217  2.8256 -0.0536 -1.0325
22518SOL    HW268133   4.273   1.880   4.194  0.9635  1.1440  0.8790
22519SOL     OW68134   2.601   3.955   6.543 -0.4886  0.5637 -0.6078
22519SOL    HW168135   2.505   3.958   6.537 -0.4440  1.1104 -1.0627
22519SOL    HW268136   2.631   4.015   6.475  0.1872  0.1110 -0.7188
22520SOL     OW68137   4.827   0.082   7.312  0.2703  0.5922 -0.4647
22520SOL    HW168138   4.909   0.072   7.360  1.2429  1.8853 -1.7725
22520SOL    HW268139   4.843   0.042   7.227 -0.9375 -0.3615 -0.2747
22521SOL     OW68140   2.298   2.848   7.546 -0.2646  0.4482  0.7665
22521SOL    HW168141   2.213   2.805   7.551 -0.2890  0.4695  0.5425
22521SOL    HW268142   2.335   2.819   7.463  0.2251 -0.0684  1.1503
22522SOL     OW68143   3.267   6.975   2.191  0.0748 -0.2310  0.6412
22522SOL    HW168144   3.217   7.010   2.118  0.1595  0.6199  0.9747
22522SOL    HW268145   3.273   6.881   2.174  0.1867 -0.0295 -0.4889
22523SOL     OW68146   8.868   7.520   0.836  0.2085 -0.6092  0.1552
22523SOL    HW168147   8.772   7.520   0.833  0.1990  0.2072  0.3214
22523SOL    HW268148   8.891   7.598   0.886  1.0174  0.5707 -1.9678
22524SOL     OW68149   5.738   2.565   1.030 -0.6878 -0.1488  0.5868
22524SOL    HW168150   5.809   2.552   0.966  0.7860 -0.0955  2.1454
22524SOL    HW268151   5.776   2.621   1.098 -2.9195  1.6886  0.4449
22525SOL     OW68152   0.785   9.332   6.510  0.1329 -0.0348  0.2032
22525SOL    HW168153   0.783   9.237   6.523 -0.4162  0.0398  0.6959
22525SOL    HW268154   0.729   9.346   6.434  1.0254 -0.1920 -0.5044
22526SOL     OW68155   7.192   0.140   4.390 -0.4593  0.1260 -0.3897
22526SOL    HW168156   7.244   0.098   4.322 -3.1779 -1.6476 -1.5634
22526SOL    HW268157   7.255   0.163   4.458  1.6646 -3.2268 -0.9882
22527SOL     OW68158   1.780   5.499   6.465 -0.3036  0.2377 -0.1225
22527SOL    HW168159   1.832   5.454   6.399 -0.8495  0.0058 -0.3977
22527SOL    HW268160   1.723   5.558   6.416 -0.3706  0.4222  0.1701
22528SOL     OW68161   3.527   7.552   0.700  0.1528 -0.2428  0.1270
22528SOL    HW168162   3.500   7.486   0.636 -0.0309  0.5249 -0.6075
22528SOL    HW268163   3.616   7.575   0.676  0.0397  0.1424  0.0584
22529SOL     OW68164   7.383   1.221   7.379  0.2240  0.0989 -0.3289
22529SOL    HW168165   7.355   1.313   7.377  1.0085  0.3456 -1.8581
22529SOL    HW268166   7.308   1.172   7.344 -0.0452  0.2049  0.1000
22530SOL     OW68167   0.654   9.260   4.446 -0.7812  0.9570 -0.0926
22530SOL    HW168168   0.575   9.208   4.433 -1.7100  1.8735  1.6301
22530SOL    HW268169   0.671   9.299   4.360 -2.2410  0.8031 -0.4762
22531SOL     OW68170   7.218   2.107   7.144  0.5186  0.3500 -0.0586
22531SOL    HW168171   7.274   2.181   7.124 -1.5189  2.2698  0.9514
22531SOL    HW268172   7.129   2.136   7.121 -0.1835 -2.5691 -1.6935
22532SOL     OW68173   1.235   4.192   5.336 -0.0969  0.0604  1.2440
22532SOL    HW168174   1.149   4.232   5.320 -0.5100 -0.8996  0.9519
22532SOL    HW268175   1.293   4.234   5.272 -0.9158 -1.0567 -0.2945
22533SOL     OW68176   4.704   7.324   0.520  0.8424 -0.0411 -0.1540
22533SOL    HW168177   4.689   7.258   0.452  2.3437 -2.6622  1.8970
22533SOL    HW268178   4.695   7.408   0.474 -1.8632 -1.5773 -2.7489
22534SOL     OW68179   0.653   3.165   7.087  0.2472  0.1560  0.1904
22534SOL    HW168180   0.596   3.188   7.160 -0.1048  0.4562 -0.1707
22534SOL    HW268181   0.702   3.089   7.117  1.1358  1.1216  1.2685
22535SOL     OW68182   6.538   3.189   1.531  0.1908 -0.2893  0.1229
22535SOL    HW168183   6.555   3.137   1.453 -0.9268 -1.2106  0.4748
22535SOL    HW268184   6.444   3.178   1.548  0.7877 -2.1265  2.9933
22536SOL     OW68185   5.269   2.407   7.687 -0.1450 -0.1799 -0.4109
22536SOL    HW168186   5.322   2.360   7.750 -0.3888 -0.8237 -0.6740
22536SOL    HW268187   5.192   2.436   7.736  0.8543  1.5696  0.2000
22537SOL     OW68188   1.546   7.271   0.497  0.3605  0.3173  0.4536
22537SOL    HW168189   1.637   7.258   0.527  0.9389 -0.8492 -1.5956
22537SOL    HW268190   1.553   7.330   0.423 -0.6140  0.5144  0.5064
22538SOL     OW68191   4.172   6.848   3.136 -0.0487  0.0174  0.5335
22538SOL    HW168192   4.154   6.888   3.221 -0.7039  1.3612 -0.1909
22538SOL    HW268193   4.085   6.823   3.103  0.3485 -1.9790  0.9328
22539SOL     OW68194   6.327   9.025   5.150 -0.3112 -0.2182 -0.0596
22539SOL    HW168195   6.375   9.083   5.210  0.5558  0.2383 -1.1496
22539SOL    HW268196   6.392   9.001   5.084 -1.0138 -1.4202 -0.3361
22540SOL     OW68197   0.093   8.073   8.983  0.0888 -0.0945 -0.3113
22540SOL    HW168198   0.040   8.030   9.050  1.9929 -0.7129  0.8551
22540SOL    HW268199   0.162   8.010   8.963  1.1548  1.2004 -0.8411
22541SOL     OW68200   7.025   1.164   6.221  0.1664  0.2854 -0.3559
22541SOL    HW168201   6.995   1.237   6.167 -0.0209  1.3799  1.1637
22541SOL    HW268202   7.114   1.186   6.245  0.6698 -0.7728 -1.1519
22542SOL     OW68203   7.096   8.558   2.048 -0.5685 -0.0598  0.1913
22542SOL    HW168204   7.139   8.620   1.989  0.7737  0.4084  1.5964
22542SOL    HW268205   7.165   8.496   2.073 -1.5310 -1.2671 -0.0407
22543SOL     OW68206   2.366   1.241   6.677  0.2548  0.3137  0.3937
22543SOL    HW168207   2.459   1.219   6.675 -0.0723 -1.1036 -0.3802
22543SOL    HW268208   2.329   1.198   6.600 -1.0152  1.0200  0.5816
22544SOL     OW68209   4.501   8.486   5.032 -0.1761  0.5965 -0.4612
22544SOL    HW168210   4.542   8.547   4.970 -1.5196  1.3349 -0.6593
22544SOL    HW268211   4.468   8.542   5.102  0.9752 -0.1905  0.7662
22545SOL     OW68212   2.849   7.627   3.238  0.3844 -0.2063  0.1617
22545SOL    HW168213   2.911   7.696   3.214  0.2615 -0.5522 -1.2287
22545SOL    HW268214   2.763   7.665   3.219  0.3655 -1.2178 -2.0641
22546SOL     OW68215   7.271   1.602   0.174 -0.0309  0.4476  0.2664
22546SOL    HW168216   7.189   1.554   0.175 -0.6906  1.4014 -1.8854
22546SOL    HW268217   7.338   1.534   0.183 -0.9473 -0.8793 -2.0451
22547SOL     OW68218   4.720   6.767   3.918  0.3232 -0.2195 -0.3056
22547SOL    HW168219   4.750   6.784   3.828 -0.8374 -1.1976 -0.9167
22547SOL    HW268220   4.800   6.750   3.967  0.8866 -1.6031 -1.6027
22548SOL     OW68221   1.842   0.152   3.822  0.6084  0.6057 -0.4383
22548SOL    HW168222   1.818   0.153   3.729 -0.9995  0.3275 -0.0618
22548SOL    HW268223   1.934   0.177   3.823  0.7229  0.3984 -2.1246
22549SOL     OW68224   7.673   8.696   7.992 -0.1160  0.1708 -0.3375
22549SOL    HW168225   7.724   8.774   7.972 -1.2142  0.4444 -2.2780
22549SOL    HW268226   7.716   8.659   8.070  2.6726  0.6770 -1.5111
22550SOL     OW68227   5.757   8.531   3.187  0.3602  0.0413 -0.0083
22550SOL    HW168228   5.844   8.493   3.172  0.6222  0.6882 -0.1328
22550SOL    HW268229   5.701   8.455   3.205  0.5097 -0.5860 -1.9584
22551SOL     OW68230   0.063   7.632   0.882  0.2967 -0.1545  0.5444
22551SOL    HW168231   0.110   7.654   0.962 -1.8011  1.5052  1.4227
22551SOL    HW268232  -0.011   7.579   0.911 -0.7653  0.8677 -0.1802
22552SOL     OW68233   0.282   4.228   6.820  0.0281 -0.0367  0.4605
22552SOL    HW168234   0.342   4.236   6.895  1.1428  3.0183 -0.6172
22552SOL    HW268235   0.338   4.238   6.744 -1.3095 -1.5511 -0.7809
22553SOL     OW68236   5.703   0.433   2.797  0.4025  0.3417  0.6970
22553SOL    HW168237   5.612   0.464   2.799 -0.8840 -2.9562  1.3152
22553SOL    HW268238   5.724   0.415   2.889  1.2318 -0.0483  0.4451
22554SOL     OW68239   1.089   3.056   9.776 -0.1840  0.3735  0.4938
22554SOL    HW168240   1.008   3.011   9.752 -0.0429  0.1219  0.4920
22554SOL    HW268241   1.066   3.108   9.853 -0.5527  0.9216  0.0192
22555SOL     OW68242   6.127   9.465   5.664  0.4588  0.4222 -0.7561
22555SOL    HW168243   6.190   9.530   5.633  1.6627 -0.3294  0.0174
22555SOL    HW268244   6.052   9.516   5.693  1.5124  1.5353  0.1671
22556SOL     OW68245   2.981   1.233   4.244 -0.3236  0.3623  0.6123
22556SOL    HW168246   2.892   1.198   4.243  0.1100 -0.8059  1.2507
22556SOL    HW268247   2.999   1.251   4.336  1.3315 -2.7995  1.0327
22557SOL     OW68248   9.415   6.456   3.173 -0.2642  0.0482 -0.4264
22557SOL    HW168249   9.345   6.502   3.220 -0.1861 -0.6477  0.3982
22557SOL    HW268250   9.372   6.379   3.136  0.5915 -2.2504  2.8758
22558SOL     OW68251   6.889   9.417   1.683  0.4253  0.3749 -0.0803
22558SOL    HW168252   6.793   9.417   1.685  0.4069 -1.6052  0.5622
22558SOL    HW268253   6.912   9.365   1.605  0.9803  0.7340 -0.1650
22559SOL     OW68254   8.090   0.522   3.413 -0.1783  0.6621 -0.1083
22559SOL    HW168255   8.085   0.598   3.471  0.0916  0.4120  0.2517
22559SOL    HW268256   8.015   0.531   3.356 -0.7910  0.6077  0.6711
22560SOL     OW68257   7.274   8.080   5.596 -0.0884 -0.3218  0.0149
22560SOL    HW168258   7.281   8.039   5.510  1.0501 -0.5598  0.1972
22560SOL    HW268259   7.239   8.011   5.653 -2.3026  0.2827 -0.5275
22561SOL     OW68260   5.255   5.645   2.606 -0.0292 -0.2191 -0.0829
22561SOL    HW168261   5.241   5.551   2.596  2.4470 -0.5757 -0.9615
22561SOL    HW268262   5.167   5.681   2.618 -1.1985 -2.4537 -1.2252
22562SOL     OW68263   8.236   6.102   5.722  0.3825  0.0620  0.0283
22562SOL    HW168264   8.265   6.115   5.812  0.9690  1.2509 -0.3239
22562SOL    HW268265   8.219   6.190   5.689 -0.8031 -0.4232 -0.7207
22563SOL     OW68266   7.860   5.687   8.366 -0.7799 -0.0870  0.1225
22563SOL    HW168267   7.854   5.614   8.428 -0.1199 -0.0694  0.2062
22563SOL    HW268268   7.950   5.717   8.372 -1.5224  2.1085  1.6265
22564SOL     OW68269   4.715   8.848   6.642  0.6388 -0.0065  0.0648
22564SOL    HW168270   4.656   8.772   6.639 -0.7798  1.0484 -0.0526
22564SOL    HW268271   4.676   8.911   6.581  3.0802 -0.0331 -1.6508
22565SOL     OW68272   8.818   8.362   8.300 -0.3999 -0.6368 -0.3968
22565SOL    HW168273   8.827   8.371   8.395  1.6272 -1.3543 -0.4500
22565SOL    HW268274   8.731   8.395   8.280  0.1010  2.0407  1.3796
22566SOL     OW68275   3.974   2.923   5.892 -0.2549  0.5016  0.2091
22566SOL    HW168276   4.008   2.908   5.804 -0.8208  1.0300 -0.1070
22566SOL    HW268277   3.931   2.841   5.916 -2.8123  1.3069 -1.2693
22567SOL     OW68278   8.697   6.759   7.700  0.2147 -0.1334 -0.1015
22567SOL    HW168279   8.793   6.766   7.696  0.2121  2.8185  1.6045
22567SOL    HW268280   8.666   6.838   7.655 -1.3339 -0.1563  0.8567
22568SOL     OW68281   7.663   0.938   4.702 -0.3163  0.0079  0.2124
22568SOL    HW168282   7.731   0.960   4.638 -0.7220 -0.0379 -0.2364
22568SOL    HW268283   7.688   0.853   4.736  0.4541  0.4809  0.8617
22569SOL     OW68284   5.478   7.537   1.738 -0.4846 -0.4976  0.5131
22569SOL    HW168285   5.490   7.530   1.643 -2.7720  2.1453 -0.0939
22569SOL    HW268286   5.416   7.468   1.760  2.1618 -2.9900  0.7069
22570SOL     OW68287   0.575   6.571   5.305 -0.0157  0.5285  0.7925
22570SOL    HW168288   0.660   6.614   5.313  2.2753 -3.5102  0.3987
22570SOL    HW268289   0.582   6.492   5.358 -2.8428 -0.9252 -0.7690
22571SOL     OW68290   1.459   7.085  10.004 -0.1112  0.0387 -0.3044
22571SOL    HW168291   1.460   7.009   9.946  0.8193  0.3791 -0.7660
22571SOL    HW268292   1.446   7.159   9.946 -2.6250  0.1460  0.3147
22572SOL     OW68293   4.995   1.203   0.454 -0.2693 -0.3879  0.3559
22572SOL    HW168294   5.076   1.214   0.503 -1.1554 -0.0621  1.8337
22572SOL    HW268295   4.954   1.125   0.493 -1.4455  0.4414  0.8568
22573SOL     OW68296   1.635   6.238   3.502 -0.5030 -0.3411 -0.4794
22573SOL    HW168297   1.672   6.188   3.429  0.3920  0.5160 -0.6298
22573SOL    HW268298   1.547   6.201   3.514 -0.6265 -0.5736 -1.9198
22574SOL     OW68299   1.074   1.376   2.616 -0.1514 -0.3686 -0.2179
22574SOL    HW168300   1.003   1.384   2.553 -0.3532 -0.7018 -0.0401
22574SOL    HW268301   1.154   1.382   2.564 -0.3203 -1.3710 -0.6085
22575SOL     OW68302   8.158   0.538   7.866  0.2457  0.6800 -0.2567
22575SOL    HW168303   8.101   0.471   7.903  0.8589  0.8944  1.1646
22575SOL    HW268304   8.208   0.494   7.798 -0.3727  0.0660 -0.3197
22576SOL     OW68305   4.437   0.587   6.436 -0.1990  0.0419 -0.8266
22576SOL    HW168306   4.450   0.508   6.489  0.1806 -0.0463 -1.0488
22576SOL    HW268307   4.351   0.619   6.463  0.6838  0.9715  1.1099
22577SOL     OW68308   8.083   7.828   8.114  0.0981  0.0179  0.3572
22577SOL    HW168309   8.000   7.782   8.102 -0.3199  0.8446  0.0578
22577SOL    HW268310   8.140   7.793   8.046  0.2381 -1.0731  1.0062
22578SOL     OW68311   9.775   3.026   6.528 -0.0600  0.0928  0.2110
22578SOL    HW168312   9.715   2.979   6.585 -0.6491  0.6037  0.0265
22578SOL    HW268313   9.840   2.961   6.502  1.9647  0.4539  3.7201
22579SOL     OW68314   0.092   5.241   2.443  0.2209 -0.0779  0.1056
22579SOL    HW168315   0.080   5.331   2.414 -1.3265 -0.6313 -1.1229
22579SOL    HW268316   0.003   5.206   2.450  0.7994 -1.5909  0.2881
22580SOL     OW68317   9.654   4.495   3.790 -0.1464  0.4053  0.2773
22580SOL    HW168318   9.728   4.435   3.778 -0.7287 -0.6618  1.6930
22580SOL    HW268319   9.666   4.561   3.722  1.6717 -0.1642 -0.0284
22581SOL     OW68320   0.587   6.308   8.518 -0.5114 -0.1199 -0.2479
22581SOL    HW168321   0.581   6.277   8.608  0.0774  0.0905 -0.1276
22581SOL    HW268322   0.510   6.364   8.505  0.5315  1.6799  0.8635
22582SOL     OW68323   0.640   2.561   1.454 -0.0414  0.1697 -0.2012
22582SOL    HW168324   0.568   2.622   1.470 -1.1225 -1.1608  0.1714
22582SOL    HW268325   0.714   2.598   1.502 -0.3626  1.7117 -0.8324
22583SOL     OW68326   9.166   7.974   8.885  0.0653 -0.8765  0.1444
22583SOL    HW168327   9.164   8.045   8.821  2.6452 -0.0855  0.8113
22583SOL    HW268328   9.159   8.018   8.970  2.0721 -1.2846  0.5846
22584SOL     OW68329   8.063   3.984   9.209 -0.0964 -0.5276  0.0347
22584SOL    HW168330   8.061   4.036   9.290 -0.2734 -1.0891  0.4025
22584SOL    HW268331   8.150   4.000   9.172 -0.0478 -0.1900  0.2901
22585SOL     OW68332   8.623   5.383   8.414  0.5027 -0.0508 -0.1126
22585SOL    HW168333   8.591   5.341   8.335  0.4604 -0.6547  0.2185
22585SOL    HW268334   8.566   5.459   8.426  1.2671  0.7438 -1.3175
22586SOL     OW68335   5.641   9.916   9.444 -0.2835 -0.1609 -0.8119
22586SOL    HW168336   5.708   9.873   9.391 -0.5398 -3.2934  1.1210
22586SOL    HW268337   5.681   9.922   9.531 -1.9827 -0.7563  0.0380
22587SOL     OW68338   8.165   1.962   4.863  0.6006 -0.3926 -0.1253
22587SOL    HW168339   8.139   1.874   4.836  0.3940 -0.8272  1.4074
22587SOL    HW268340   8.239   1.948   4.922 -0.2517  0.3402  1.1709
22588SOL     OW68341   7.902   7.007   5.751  0.1298  0.0033 -0.1366
22588SOL    HW168342   7.931   6.949   5.821 -3.0103 -1.2326  0.3164
22588SOL    HW268343   7.830   7.058   5.790 -1.5637 -0.5583 -2.3242
22589SOL     OW68344   1.910   0.579   5.089  0.3389  0.4773 -0.0187
22589SOL    HW168345   1.939   0.504   5.037  0.8800  1.0582 -0.5642
22589SOL    HW268346   1.883   0.645   5.025 -1.3747  0.2944  0.4555
22590SOL     OW68347   7.476   8.781   3.600 -0.0919 -0.4843 -0.2219
22590SOL    HW168348   7.568   8.807   3.589  0.4634 -1.8958  0.8098
22590SOL    HW268349   7.480   8.701   3.653 -1.8189 -1.5909 -1.6560
22591SOL     OW68350   5.918   2.713   0.546  0.6593  0.4992  0.4248
22591SOL    HW168351   6.004   2.700   0.586  0.3061 -0.3517  0.9374
22591SOL    HW268352   5.863   2.742   0.618  0.3222  0.2103  0.2861
22592SOL     OW68353   4.175   7.804   0.758  0.1959 -0.1615  0.4350
22592SOL    HW168354   4.110   7.873   0.764  1.6965  1.2946  0.5923
22592SOL    HW268355   4.242   7.838   0.699  1.8843 -0.6829  1.9600
22593SOL     OW68356   0.114   3.900   2.520 -0.1840 -0.3175  0.1964
22593SOL    HW168357   0.142   3.828   2.576  2.4664 -1.7326 -2.6379
22593SOL    HW268358   0.037   3.865   2.474 -1.4774  0.3209  1.7723
22594SOL     OW68359   6.611   9.477   2.509  0.1034  0.0238 -0.3832
22594SOL    HW168360   6.531   9.486   2.561  1.8030  1.5558  2.1698
22594SOL    HW268361   6.603   9.543   2.441 -0.0111  1.5040  1.0241
22595SOL     OW68362   0.526   6.945   7.094 -0.3424 -0.4223 -0.4688
22595SOL    HW168363   0.470   6.939   7.172 -0.2987 -1.6796 -0.5022
22595SOL    HW268364   0.520   6.858   7.054 -1.4426  0.5748 -2.6473
22596SOL     OW68365   8.981   5.143   2.832 -0.2323  0.0604  0.1473
22596SOL    HW168366   8.939   5.060   2.810  0.4930 -0.6581  1.4117
22596SOL    HW268367   8.935   5.173   2.910  0.6342 -0.0231  0.7028
22597SOL     OW68368   0.363   6.503   3.213  0.1995 -0.2249  0.4013
22597SOL    HW168369   0.386   6.472   3.301  3.8735  2.2907  0.5624
22597SOL    HW268370   0.339   6.595   3.225  1.9363  0.5262 -1.2424
22598SOL     OW68371   8.112   3.808   8.419  0.3722 -0.7376  0.0040
22598SOL    HW168372   8.068   3.775   8.341 -1.7141  0.6510  0.5261
22598SOL    HW268373   8.065   3.768   8.492 -0.2623  1.0087  0.5825
22599SOL     OW68374   4.313   9.424   4.658 -0.2542 -0.6203  0.0093
22599SOL    HW168375   4.253   9.488   4.621 -0.2290  0.3056  1.4731
22599SOL    HW268376   4.335   9.366   4.585  0.2553  1.4222 -1.5609
22600SOL     OW68377   1.322   3.808   4.112  0.2099  0.7270  0.1812
22600SOL    HW168378   1.336   3.868   4.039  0.0234 -0.2940 -0.7199
22600SOL    HW268379   1.244   3.758   4.087  0.1391  0.3629  1.0881
22601SOL     OW68380   1.622   5.137   0.663 -0.0826 -0.0000 -0.1283
22601SOL    HW168381   1.532   5.159   0.636 -0.1188  0.5706  0.4249
22601SOL    HW268382   1.633   5.182   0.747  0.1048 -1.5317  0.7079
22602SOL     OW68383   0.703   3.671   7.371 -0.0685 -0.0003  0.2704
22602SOL    HW168384   0.672   3.706   7.287 -0.4058 -0.4428  0.2051
22602SOL    HW268385   0.708   3.577   7.357 -0.8505 -0.1544  0.9811
22603SOL     OW68386   0.474   0.327   3.135 -0.0872  0.0528 -0.1528
22603SOL    HW168387   0.544   0.280   3.090  0.6113 -0.0765  1.0312
22603SOL    HW268388   0.413   0.258   3.162 -0.3108  0.0921 -0.5450
22604SOL     OW68389   7.290   0.533   8.981  0.6157  0.0088  0.3875
22604SOL    HW168390   7.324   0.445   8.966 -1.7572 -0.7057 -1.2347
22604SOL    HW268391   7.313   0.552   9.072  3.7795 -1.0211 -0.0667
22605SOL     OW68392   5.333   6.427   9.141  0.0384 -0.4406 -0.4181
22605SOL    HW168393   5.297   6.390   9.061 -0.4339  1.7223 -1.2934
22605SOL    HW268394   5.428   6.416   9.132 -0.0926 -1.5110 -0.5623
22606SOL     OW68395   6.937   6.151   3.057  0.1741 -0.5090  0.0685
22606SOL    HW168396   6.896   6.087   3.116  0.1727  0.1868  0.8523
22606SOL    HW268397   6.916   6.120   2.969  0.3440 -1.6875  0.4275
22607SOL     OW68398   8.416   0.472   9.738  0.2565 -0.2596 -0.4422
22607SOL    HW168399   8.351   0.467   9.808 -0.3101  0.2486 -0.9239
22607SOL    HW268400   8.481   0.405   9.761  0.5360  0.4787  1.0166
22608SOL     OW68401   4.336   1.112   6.079 -0.2905  0.2396  0.2028
22608SOL    HW168402   4.335   1.041   6.143 -0.3492  0.6325  0.6482
22608SOL    HW268403   4.393   1.081   6.009  0.7912  0.3007  1.0322
22609SOL     OW68404   8.741   3.079   8.560 -0.3161  0.4456  0.6569
22609SOL    HW168405   8.821   3.057   8.514 -0.8877 -0.4931  0.0799
22609SOL    HW268406   8.771   3.117   8.643  0.7157  0.3606  0.3364
22610SOL     OW68407   4.563   3.591   2.793  0.1927  0.0600  0.5314
22610SOL    HW168408   4.491   3.643   2.829  0.0732  0.2046  0.0922
22610SOL    HW268409   4.530   3.501   2.792  0.1552  0.0726  0.6760
22611SOL     OW68410   9.280   8.440   2.071 -0.3715 -0.1182  0.1635
22611SOL    HW168411   9.264   8.351   2.102 -1.9588  0.0908 -0.0011
22611SOL    HW268412   9.328   8.482   2.143  0.6830 -1.1717  0.1135
22612SOL     OW68413   6.563   8.904   7.778  0.4812  0.5569 -0.3287
22612SOL    HW168414   6.643   8.941   7.741  0.9141 -0.4539 -0.4477
22612SOL    HW268415   6.529   8.846   7.710 -0.3003  0.8916 -0.2340
22613SOL     OW68416   8.803   0.256   9.889  0.2256 -0.3658 -0.1945
22613SOL    HW168417   8.730   0.268   9.948 -0.0288  0.7552 -0.7069
22613SOL    HW268418   8.879   0.290   9.937 -0.0827  1.1470 -0.6988
22614SOL     OW68419   1.199   9.062   8.847 -0.1367 -0.1226 -0.2675
22614SOL    HW168420   1.275   9.090   8.796 -1.0109  0.7024 -1.1547
22614SOL    HW268421   1.133   9.040   8.781 -1.8535  2.4605  0.4439
22615SOL     OW68422   9.001   0.384   7.462  0.5766 -0.6248 -0.0546
22615SOL    HW168423   8.997   0.408   7.370  1.6296  3.0279  0.7121
22615SOL    HW268424   8.980   0.464   7.510  2.9334 -1.5645  2.8930
22616SOL     OW68425   0.897   1.413   5.081  0.1826 -0.5897 -0.6349
22616SOL    HW168426   0.829   1.412   5.014  0.2136 -0.6795 -0.6651
22616SOL    HW268427   0.875   1.341   5.140 -1.7065  1.4274  1.3200
22617SOL     OW68428   8.241   0.737   1.226  0.0548  0.4245 -0.5732
22617SOL    HW168429   8.287   0.817   1.202  0.5496 -0.4618 -2.8612
22617SOL    HW268430   8.297   0.667   1.193 -0.8151 -0.8468  0.5486
22618SOL     OW68431   5.565   9.335   1.958  0.0673  0.5313 -0.2992
22618SOL    HW168432   5.599   9.412   1.913  0.2878  1.1575  0.8891
22618SOL    HW268433   5.637   9.272   1.956 -0.4101 -0.0078 -2.0445
22619SOL     OW68434   6.332   7.005   1.111  0.6066 -0.3475  0.7248
22619SOL    HW168435   6.307   6.916   1.086  0.1217  0.2706 -1.1124
22619SOL    HW268436   6.309   7.011   1.204 -0.1904 -1.8459  0.6498
22620SOL     OW68437   2.397   1.225   1.846 -0.1374 -0.6891 -0.8881
22620SOL    HW168438   2.380   1.319   1.844  1.1237 -0.4147  0.1726
22620SOL    HW268439   2.429   1.204   1.758 -0.6706 -0.1898 -1.2094
22621SOL     OW68440   8.704   2.924   7.781  0.8025  0.3012 -0.6749
22621SOL    HW168441   8.632   2.973   7.820  1.6217  0.5537  0.5797
22621SOL    HW268442   8.664   2.844   7.747  0.0440  0.0351  0.7707
22622SOL     OW68443   1.080   8.193   8.168  0.3357  0.7090  0.1805
22622SOL    HW168444   1.155   8.205   8.110 -0.2615  0.3159 -0.6829
22622SOL    HW268445   1.044   8.108   8.144 -0.4671  0.9426  0.5103
22623SOL     OW68446   2.819   8.071   2.382  0.2309  0.0161 -0.1062
22623SOL    HW168447   2.874   7.995   2.396  0.1643 -0.0291 -0.0902
22623SOL    HW268448   2.810   8.111   2.468 -1.2074 -0.9657  0.2398
22624SOL     OW68449   7.687   5.830   9.941  0.0614  0.0417  0.5204
22624SOL    HW168450   7.721   5.873   9.863 -0.9001  2.1471  1.1787
22624SOL    HW268451   7.620   5.890   9.974 -1.1003 -1.8122  1.7595
22625SOL     OW68452   5.867   4.793   1.855 -0.6050  0.0324 -0.0087
22625SOL    HW168453   5.923   4.765   1.927  0.4225  1.7552 -0.0765
22625SOL    HW268454   5.835   4.879   1.882  0.3271  1.0198 -1.8564
22626SOL     OW68455   6.752   8.247   0.283  0.5547 -0.1066 -0.2414
22626SOL    HW168456   6.661   8.226   0.303  1.0512 -1.0799  1.2288
22626SOL    HW268457   6.757   8.342   0.287  0.0942 -0.1107  2.3356
22627SOL     OW68458   4.085   2.281   4.715  0.0390  0.6193  0.5815
22627SOL    HW168459   4.160   2.255   4.770  1.5701  0.6604 -1.3670
22627SOL    HW268460   4.104   2.243   4.630 -1.0439  2.5116 -0.5731
22628SOL     OW68461   1.508   8.813   3.804  0.6160 -0.0561 -0.2519
22628SOL    HW168462   1.491   8.907   3.810  1.0681  0.2267 -2.5114
22628SOL    HW268463   1.478   8.789   3.717 -2.5441 -2.7370  1.3838
22629SOL     OW68464   8.846   2.003   6.663 -0.0310 -1.0820  0.3552
22629SOL    HW168465   8.916   2.066   6.648 -1.6877  0.4602 -1.5689
22629SOL    HW268466   8.805   1.992   6.578 -2.4230 -1.5129  1.4676
22630SOL     OW68467   7.962   6.302   4.502 -0.6616 -0.0453  0.4783
22630SOL    HW168468   8.022   6.376   4.511 -2.9766  1.8871  1.1498
22630SOL    HW268469   8.019   6.226   4.492  1.8535  1.7021  0.5411
22631SOL     OW68470   3.768   3.762   5.618 -0.0071  0.0070 -0.3106
22631SOL    HW168471   3.820   3.688   5.648  1.1711  0.8291 -0.2368
22631SOL    HW268472   3.739   3.805   5.699  0.2926  0.2871 -0.3519
22632SOL     OW68473   2.319   8.262   4.127  0.5500 -0.6565  0.1586
22632SOL    HW168474   2.346   8.334   4.185 -0.0274  2.0510 -2.6738
22632SOL    HW268475   2.263   8.207   4.183  1.4251  0.7582  2.6114
22633SOL     OW68476   2.113   6.439   7.279  0.6879  0.1118  0.0445
22633SOL    HW168477   2.176   6.490   7.331  0.5656 -0.3048  0.6173
22633SOL    HW268478   2.117   6.352   7.317 -0.3828  0.1277  0.2198
22634SOL     OW68479   9.007   2.712   4.150  0.6616 -0.2761 -0.4228
22634SOL    HW168480   8.994   2.695   4.243  2.9720  0.0506  0.0117
22634SOL    HW268481   8.952   2.647   4.106  0.5389 -1.3059  1.1771
22635SOL     OW68482   7.220   1.699   5.213  0.4818 -0.3681 -0.3991
22635SOL    HW168483   7.224   1.703   5.309  0.9424  0.3797 -0.4357
22635SOL    HW268484   7.156   1.631   5.194 -0.8229  0.5808  0.4487
22636SOL     OW68485   9.401   2.161   6.788 -0.0191  0.1466  0.1885
22636SOL    HW168486   9.359   2.133   6.869 -1.2232  0.9840 -0.1180
22636SOL    HW268487   9.484   2.113   6.786 -1.2949 -2.2547  0.4210
22637SOL     OW68488   6.783   1.619   2.557 -0.4659  0.0425  0.2703
22637SOL    HW168489   6.720   1.547   2.567  0.7928 -1.3481 -1.1607
22637SOL    HW268490   6.855   1.595   2.614 -0.8897  1.2592  1.3532
22638SOL     OW68491   8.764   6.664   6.177  0.2376  0.0725 -0.5170
22638SOL    HW168492   8.773   6.754   6.208  0.6300 -0.6038  1.5027
22638SOL    HW268493   8.845   6.621   6.205 -0.7975 -1.3770  0.4225
22639SOL     OW68494   4.197   6.116   6.553 -0.0776 -0.4718  0.1211
22639SOL    HW168495   4.276   6.164   6.578 -0.7362  0.3241  0.7722
22639SOL    HW268496   4.175   6.064   6.631 -0.1634 -0.7366 -0.0788
22640SOL     OW68497   7.355   6.430   4.998  0.2267 -0.5709  0.1348
22640SOL    HW168498   7.446   6.417   5.027  0.2259  0.4802  0.6535
22640SOL    HW268499   7.303   6.376   5.057  0.3209  0.7290  1.4799
22641SOL     OW68500   1.963   9.937   4.243 -0.1533  0.3693 -0.4278
22641SOL    HW168501   1.993   9.846   4.234 -1.1207  0.1024 -1.2576
22641SOL    HW268502   2.004   9.969   4.323 -0.7791 -1.2117  0.5809
22642SOL     OW68503   9.400   1.894   7.226  0.1963  0.1049 -0.2749
22642SOL    HW168504   9.422   1.819   7.170  0.3994  0.6940 -0.9955
22642SOL    HW268505   9.481   1.911   7.274  0.0622 -0.3175  0.1075
22643SOL     OW68506   3.756   7.187   8.518 -0.5124 -0.0757  0.2011
22643SOL    HW168507   3.717   7.138   8.591  1.6000  2.1911  3.0896
22643SOL    HW268508   3.753   7.126   8.444 -1.1931 -3.2297  2.5982
22644SOL     OW68509   8.935   9.362   0.700  0.4417 -0.5020 -0.5117
22644SOL    HW168510   9.004   9.338   0.761  0.0864  1.0111  0.5504
22644SOL    HW268511   8.907   9.279   0.661  1.2519 -1.4026  0.7550
22645SOL     OW68512   2.536   6.313   4.026  0.7357  0.3476  0.2564
22645SOL    HW168513   2.505   6.369   4.097  0.2055 -1.7314  1.7366
22645SOL    HW268514   2.465   6.250   4.012  1.8976 -0.8763 -0.3443
22646SOL     OW68515   3.294   7.602   5.899 -0.5718  0.1070  0.0854
22646SOL    HW168516   3.331   7.668   5.841 -0.1265 -1.0597 -0.9994
22646SOL    HW268517   3.313   7.634   5.987 -0.1494  1.2918 -0.4189
22647SOL     OW68518   4.682   1.621   2.726 -0.4771 -0.1372 -0.3987
22647SOL    HW168519   4.587   1.634   2.736 -0.4750 -0.0757 -0.4561
22647SOL    HW268520   4.702   1.660   2.641 -0.3555  0.0815 -0.2711
22648SOL     OW68521   5.722   0.154   1.938  0.6033  0.1637  0.0305
22648SOL    HW168522   5.696   0.092   2.006  0.9108 -0.2927 -0.2614
22648SOL    HW268523   5.722   0.103   1.857  0.2053  0.7121 -0.3206
22649SOL     OW68524   2.501   0.464   9.764 -0.3159  0.3294  0.0738
22649SOL    HW168525   2.534   0.488   9.678  1.1797 -0.0986  0.4902
22649SOL    HW268526   2.532   0.375   9.778 -1.8141 -0.1606  0.4591
22650SOL     OW68527   6.645   4.717   0.209 -0.1548 -0.2309 -0.6701
22650SOL    HW168528   6.648   4.811   0.190  1.9201  0.1067  0.9325
22650SOL    HW268529   6.575   4.708   0.274  1.6005  0.7876  1.4921
22651SOL     OW68530   5.202   1.098   4.445  0.2942 -0.0469  0.0395
22651SOL    HW168531   5.256   1.087   4.523 -0.6693 -0.2375  0.7021
22651SOL    HW268532   5.261   1.079   4.372  1.1860  0.0410  0.7219
22652SOL     OW68533   7.308   8.823   2.325 -0.2054  0.2892  0.3393
22652SOL    HW168534   7.371   8.751   2.325  0.4382  0.8197 -0.8491
22652SOL    HW268535   7.312   8.859   2.413  0.1177 -0.5668  0.6821
22653SOL     OW68536   7.069   7.626   6.096 -0.1575 -0.1689  0.2412
22653SOL    HW168537   7.028   7.667   6.020 -2.7802 -0.0630  1.5993
22653SOL    HW268538   7.028   7.540   6.103 -1.2576  0.4486  2.4307
22654SOL     OW68539   2.925   2.411   3.846  0.2876 -0.6067 -0.1398
22654SOL    HW168540   2.991   2.480   3.849  0.0795 -0.3641 -0.9041
22654SOL    HW268541   2.843   2.454   3.868  0.4687 -1.0435  1.4792
22655SOL     OW68542   9.974   9.270   8.314 -0.6346  0.3922 -0.8490
22655SOL    HW168543   9.879   9.268   8.312 -0.8135 -1.4024  2.3774
22655SOL    HW268544  10.001   9.190   8.269 -0.7478  0.1332 -0.4632
22656SOL     OW68545   3.855   7.683   8.954 -0.0527  0.0849 -0.1624
22656SOL    HW168546   3.807   7.602   8.937 -1.7012  0.7314  1.1242
22656SOL    HW268547   3.798   7.753   8.922  0.9389  0.7867 -0.4438
22657SOL     OW68548   6.454   4.308   6.069 -0.2524  0.1018  0.0288
22657SOL    HW168549   6.372   4.258   6.062  0.2278 -0.7804  0.5695
22657SOL    HW268550   6.464   4.348   5.982 -1.2519  0.2242 -0.0435
22658SOL     OW68551   4.525   8.969   0.432  0.1576 -0.4193 -0.3754
22658SOL    HW168552   4.487   8.915   0.502 -0.1004 -1.2335 -1.1236
22658SOL    HW268553   4.594   8.914   0.394  1.2333  0.5529  0.1300
22659SOL     OW68554   2.867   3.896   6.262  0.0943 -0.7680 -0.4034
22659SOL    HW168555   2.925   3.849   6.201  1.9017  2.2241 -1.2195
22659SOL    HW268556   2.891   3.863   6.348  0.6093 -1.9981 -0.9946
22660SOL     OW68557   2.017   1.483   9.037 -0.2192 -0.1013  0.0027
22660SOL    HW168558   2.097   1.535   9.051 -0.1233 -0.2824  0.1232
22660SOL    HW268559   2.016   1.467   8.943  1.0844 -2.0100  0.2524
22661SOL     OW68560   6.409   5.685   6.753 -0.1373  0.6038 -0.2033
22661SOL    HW168561   6.499   5.653   6.745 -0.3770 -0.7892  1.8698
22661SOL    HW268562   6.412   5.773   6.715  2.3541  1.0009  0.6801
22662SOL     OW68563   1.278   3.545   8.111 -0.3611  0.2910  0.2360
22662SOL    HW168564   1.346   3.605   8.084 -0.5175  0.4798  0.2633
22662SOL    HW268565   1.242   3.509   8.030 -0.7452  0.7632  0.1930
22663SOL     OW68566   1.735   7.696   8.887 -0.4582 -0.2303  0.1323
22663SOL    HW168567   1.826   7.671   8.907 -0.9356 -0.9080  1.5516
22663SOL    HW268568   1.702   7.736   8.967 -1.5409 -0.3602 -0.2305
22664SOL     OW68569   6.567   9.023   9.901  0.2036  0.4864 -0.3170
22664SOL    HW168570   6.515   9.101   9.918 -0.0126  0.0821  1.0012
22664SOL    HW268571   6.507   8.964   9.854  0.3519  1.0767 -1.2635
22665SOL     OW68572   2.303   5.293   2.098 -0.2010  0.3947  0.6561
22665SOL    HW168573   2.342   5.230   2.037 -3.7391 -1.2808 -0.1243
22665SOL    HW268574   2.363   5.368   2.097  2.3262 -1.4994 -1.1634
22666SOL     OW68575   5.110   5.545   5.949 -0.4064 -0.0028 -0.6013
22666SOL    HW168576   5.202   5.520   5.950 -0.4362 -0.7297 -3.8225
22666SOL    HW268577   5.107   5.623   5.894 -1.7462 -0.2297 -0.8914
22667SOL     OW68578   4.370   2.183   1.291  0.4359  0.0351 -0.4885
22667SOL    HW168579   4.275   2.171   1.294  0.4519 -0.2943  2.7366
22667SOL    HW268580   4.405   2.094   1.287  0.4986 -0.2598  3.2244
22668SOL     OW68581   8.634   6.685   1.339  0.1219 -0.2979  0.1939
22668SOL    HW168582   8.685   6.704   1.417 -0.2452 -0.1113  0.3880
22668SOL    HW268583   8.568   6.622   1.367 -0.6160  0.4838  0.2660
22669SOL     OW68584   6.958   7.708   6.713  0.0307 -0.5369 -0.2597
22669SOL    HW168585   6.930   7.626   6.755  0.5797  0.3376  1.9453
22669SOL    HW268586   7.052   7.697   6.701  0.6099  0.6833  2.4605
22670SOL     OW68587   2.282   3.317   9.984 -0.7059 -0.0858 -0.4180
22670SOL    HW168588   2.360   3.261   9.979 -1.0119 -0.6051  0.3969
22670SOL    HW268589   2.307   3.396   9.935  0.7264  0.2087  0.7073
22671SOL     OW68590   6.701   7.342   9.383 -0.3139  0.1946  0.1592
22671SOL    HW168591   6.789   7.323   9.414 -0.7784 -2.3128  0.1154
22671SOL    HW268592   6.643   7.287   9.436 -1.6343  0.1082 -1.2837
22672SOL     OW68593   0.658   4.820   7.425  0.6532  0.2210 -0.7533
22672SOL    HW168594   0.705   4.766   7.489  0.4458  0.4068 -0.4416
22672SOL    HW268595   0.587   4.859   7.475  0.8879  0.8988 -0.9419
22673SOL     OW68596   7.375   2.332   7.252 -0.6359  0.0530  0.0923
22673SOL    HW168597   7.396   2.424   7.266  1.1144 -0.2070 -0.5759
22673SOL    HW268598   7.460   2.288   7.251 -1.1868 -1.1266 -2.5673
22674SOL     OW68599   6.203   7.289   2.236 -0.4828  0.0743  0.1597
22674SOL    HW168600   6.206   7.260   2.327  0.9171  0.5560  0.2837
22674SOL    HW268601   6.194   7.384   2.240 -0.2811  0.1124 -0.2068
22675SOL     OW68602   1.070   7.262   7.955 -0.4166  0.6688  0.5589
22675SOL    HW168603   1.075   7.358   7.952 -0.4647  0.6627  0.3157
22675SOL    HW268604   0.999   7.239   7.896  0.0569  0.4426  0.0725
22676SOL     OW68605   0.121   4.858   3.714  0.4904 -0.4090  0.1452
22676SOL    HW168606   0.215   4.868   3.696  0.1625 -0.4445 -1.7341
22676SOL    HW268607   0.085   4.945   3.701  0.1846 -0.5020  0.3663
22677SOL     OW68608   5.697   5.813   2.754 -0.6210 -0.4153  0.1112
22677SOL    HW168609   5.629   5.746   2.757 -2.4078  1.3556  1.8238
22677SOL    HW268610   5.737   5.803   2.667 -1.8311 -2.6730 -0.2505
22678SOL     OW68611   8.493   8.219   7.460 -0.0087 -0.3057  0.0919
22678SOL    HW168612   8.472   8.192   7.370  0.7357 -0.6268  0.0061
22678SOL    HW268613   8.449   8.303   7.471 -1.4840 -1.0178 -0.0087
22679SOL     OW68614   5.520   6.651   4.401 -0.1450 -0.1601 -0.5210
22679SOL    HW168615   5.546   6.689   4.486  1.9435 -2.8173  0.1681
22679SOL    HW268616   5.520   6.725   4.341  1.9547  1.2558  1.0711
22680SOL     OW68617   9.947   2.891   3.562  0.0189 -0.3687  0.2634
22680SOL    HW168618  10.007   2.957   3.597 -0.2282  0.1247 -0.2130
22680SOL    HW268619   9.900   2.859   3.639 -0.0632  0.2307  0.4751
22681SOL     OW68620   2.695   6.376   7.782  0.1027  0.6602  0.4040
22681SOL    HW168621   2.602   6.356   7.796 -0.9255  2.7835 -2.3275
22681SOL    HW268622   2.729   6.298   7.738 -0.1332 -0.4583  2.1258
22682SOL     OW68623   9.653   5.863   2.200  0.3966  0.0710  0.4563
22682SOL    HW168624   9.674   5.824   2.115 -0.7351  2.5887 -1.0869
22682SOL    HW268625   9.599   5.797   2.244  1.5684 -1.5542 -0.4470
22683SOL     OW68626   0.825   3.195   9.063 -0.5052  0.4248 -0.5258
22683SOL    HW168627   0.743   3.233   9.029 -1.3081 -0.8939 -0.1291
22683SOL    HW268628   0.803   3.104   9.082  0.7717  0.3258  0.6165
22684SOL     OW68629   8.805   3.430   5.291  0.2655 -1.0597 -0.5745
22684SOL    HW168630   8.745   3.447   5.218 -0.4770 -2.7840 -0.4314
22684SOL    HW268631   8.890   3.462   5.261 -0.9458  3.3877 -0.0196
22685SOL     OW68632   7.381   6.622   1.761  0.3947 -0.8607  0.2957
22685SOL    HW168633   7.316   6.663   1.818 -1.0784 -0.7143 -1.4374
22685SOL    HW268634   7.453   6.599   1.821 -0.3419  0.8090  1.9309
22686SOL     OW68635   9.610   6.003   2.440  0.1428  0.8114 -0.0587
22686SOL    HW168636   9.578   6.081   2.394 -0.8945  0.3506 -0.1302
22686SOL    HW268637   9.634   5.942   2.370  2.4953  1.6262 -0.0503
22687SOL     OW68638   1.923   3.037   2.441  0.0650 -0.0471  0.9608
22687SOL    HW168639   2.004   3.078   2.473  1.8091  0.0874 -2.9933
22687SOL    HW268640   1.856   3.104   2.454  1.2562  1.1044  1.5115
22688SOL     OW68641   0.439   3.882   8.015 -0.1062  0.2438 -0.2609
22688SOL    HW168642   0.370   3.857   8.077  0.5027 -0.2813  0.2334
22688SOL    HW268643   0.480   3.799   7.991  0.7771  0.5951 -0.0238
22689SOL     OW68644   8.705   6.839   4.570  0.5960 -0.2638  0.0023
22689SOL    HW168645   8.719   6.825   4.664  0.7281  0.2817  0.0652
22689SOL    HW268646   8.647   6.914   4.565  0.2023 -0.5842 -0.3479
22690SOL     OW68647   3.149   4.924   8.461 -0.3012 -1.1116  0.2609
22690SOL    HW168648   3.230   4.932   8.410 -0.9186 -1.5204 -0.8167
22690SOL    HW268649   3.138   5.010   8.502  1.0686 -1.2848  1.0382
22691SOL     OW68650   9.332   1.498   7.216 -0.3250  0.5014 -0.4335
22691SOL    HW168651   9.287   1.558   7.276  0.5107  2.1525 -1.3834
22691SOL    HW268652   9.411   1.545   7.190  1.8765 -2.1404  0.8861
22692SOL     OW68653   4.710   0.160   1.390  0.4551  0.1075 -0.1851
22692SOL    HW168654   4.682   0.204   1.470 -1.3737 -0.0143 -0.7194
22692SOL    HW268655   4.729   0.232   1.329  0.3233  0.1749 -0.1464
22693SOL     OW68656   9.680   1.625   5.099  0.0063 -0.7853  0.0267
22693SOL    HW168657   9.724   1.593   5.178 -0.1209 -1.0446 -0.0089
22693SOL    HW268658   9.747   1.677   5.055 -0.2550  0.3156  0.8751
22694SOL     OW68659   6.457   6.762   3.571  0.0925  0.3091  0.1426
22694SOL    HW168660   6.390   6.723   3.628 -0.6122 -0.1648 -0.9802
22694SOL    HW268661   6.538   6.719   3.599 -0.2337  0.0978  0.8031
22695SOL     OW68662   2.637   1.408   8.723  0.4713 -0.2731  0.5114
22695SOL    HW168663   2.564   1.356   8.756 -0.8498  1.0617 -0.1668
22695SOL    HW268664   2.622   1.413   8.629  3.4452 -2.9075 -0.2593
22696SOL     OW68665   6.979   7.877   1.067 -0.2998 -0.4394  0.0032
22696SOL    HW168666   7.051   7.872   1.130 -0.4723 -1.2061  0.1575
22696SOL    HW268667   7.017   7.920   0.990  0.2826 -0.6949  0.1423
22697SOL     OW68668   7.271   8.615   6.363  0.4245 -0.3393  0.6038
22697SOL    HW168669   7.353   8.589   6.404  1.7130  1.0199 -1.0171
22697SOL    HW268670   7.248   8.698   6.404 -0.8741 -1.2861  1.9412
22698SOL     OW68671   2.003   9.005   9.741 -0.2073  0.1913  0.2890
22698SOL    HW168672   2.098   9.007   9.732  0.1006  1.5899  2.7312
22698SOL    HW268673   1.981   9.090   9.780 -1.9308 -1.4864  3.4386
22699SOL     OW68674   3.123   1.374   2.329 -0.7478  0.4566  0.4927
22699SOL    HW168675   3.065   1.384   2.405 -1.4029  0.4834  0.0038
22699SOL    HW268676   3.203   1.420   2.353 -0.0372 -1.4624  2.0892
22700SOL     OW68677   2.495   0.814   4.138 -0.6387 -0.2826 -0.0111
22700SOL    HW168678   2.457   0.748   4.080 -2.4253  0.7050 -0.0258
22700SOL    HW268679   2.513   0.889   4.081  1.9124 -0.8762 -0.1103
22701SOL     OW68680   9.907   7.168   2.238  0.4097  0.3864 -0.1669
22701SOL    HW168681   9.947   7.149   2.153 -0.3126 -0.9717 -0.2255
22701SOL    HW268682   9.820   7.203   2.217  1.5183  3.5742 -0.0471
22702SOL     OW68683   8.486   0.108   6.786  0.3061  0.1803 -0.5153
22702SOL    HW168684   8.450   0.020   6.795 -0.7513  0.5004 -1.3538
22702SOL    HW268685   8.505   0.136   6.876 -1.2074 -0.1576 -0.0620
22703SOL     OW68686   0.487   7.537   7.677 -0.1587  0.4832  0.5232
22703SOL    HW168687   0.495   7.513   7.770  0.7270  1.3617  0.6920
22703SOL    HW268688   0.571   7.511   7.639 -0.5006  0.1791 -0.0304
22704SOL     OW68689   6.485   1.363   9.035  0.0944 -0.5657  0.0024
22704SOL    HW168690   6.488   1.393   8.944 -1.4330 -2.4049 -0.7378
22704SOL    HW268691   6.564   1.311   9.046  1.6490  1.7696  0.6310
22705SOL     OW68692   3.877   2.494   9.571 -0.4066  0.2706 -0.7115
22705SOL    HW168693   3.939   2.504   9.643 -2.2989  0.4392  0.9826
22705SOL    HW268694   3.903   2.561   9.508  1.8315 -0.4446 -0.6443
22706SOL     OW68695   1.076   9.244   5.989  0.2266  0.2455  0.3208
22706SOL    HW168696   1.015   9.313   5.965  0.4961  0.5525  0.5166
22706SOL    HW268697   1.030   9.194   6.057  0.0478  0.2501  0.2043
22707SOL     OW68698   5.708   5.705   4.329 -0.4532  0.1835  0.8335
22707SOL    HW168699   5.624   5.675   4.365 -1.9391  1.4495 -1.3270
22707SOL    HW268700   5.704   5.800   4.335 -0.6585  0.4576 -2.1570
22708SOL     OW68701   6.693   9.410   8.397  0.1364 -0.0101  0.1322
22708SOL    HW168702   6.658   9.497   8.415  0.1273 -0.2217  1.2119
22708SOL    HW268703   6.774   9.427   8.348 -0.5660  0.5424 -0.8514
22709SOL     OW68704   0.403   4.856   2.733 -0.3127 -0.1336  0.2145
22709SOL    HW168705   0.360   4.777   2.700 -0.8525 -0.1094  0.8461
22709SOL    HW268706   0.413   4.912   2.655  0.1520 -0.8486 -0.2497
22710SOL     OW68707   7.834   2.834   8.953 -0.1143 -0.5786 -0.3112
22710SOL    HW168708   7.857   2.927   8.956 -0.2765 -0.5573  0.9699
22710SOL    HW268709   7.779   2.821   9.030  0.0283 -1.7661 -0.3919
22711SOL     OW68710   1.943   8.777   1.090 -0.1651 -0.1712 -0.4628
22711SOL    HW168711   1.980   8.703   1.042 -1.9757 -2.1178  0.9511
22711SOL    HW268712   2.018   8.833   1.109  1.5421 -2.2909 -0.4872
22712SOL     OW68713   8.321   0.114   7.632  0.7047 -0.2204  0.2043
22712SOL    HW168714   8.288   0.024   7.635 -0.2206  0.1096  0.0290
22712SOL    HW268715   8.305   0.143   7.543 -0.0965  0.5173  0.5710
22713SOL     OW68716   5.636   5.240   9.458  0.0194 -0.4208  0.3074
22713SOL    HW168717   5.545   5.263   9.478 -0.4227  0.1542 -2.1283
22713SOL    HW268718   5.687   5.287   9.524 -1.3678  0.0804  1.0707
22714SOL     OW68719   2.354   8.453   1.712  0.2520  0.4150 -0.2268
22714SOL    HW168720   2.429   8.418   1.760  0.0620  2.6147  1.7945
22714SOL    HW268721   2.393   8.497   1.636  0.7298 -0.9854 -0.8335
22715SOL     OW68722   2.800   9.022   0.127 -0.1779  0.4119  0.1045
22715SOL    HW168723   2.857   8.947   0.147  0.5004  1.0620  0.6459
22715SOL    HW268724   2.856   9.082   0.078 -0.1296  1.4288  1.3472
22716SOL     OW68725   4.771   3.971   3.265  0.3970 -0.8230  0.1084
22716SOL    HW168726   4.702   4.013   3.314  0.1356 -0.7027 -0.3552
22716SOL    HW268727   4.780   4.024   3.185  1.7520 -0.2101  0.6380
22717SOL     OW68728  -0.002   9.547   1.681  0.6469 -0.1161  0.2167
22717SOL    HW168729   0.080   9.524   1.636 -0.1342  1.4539 -2.2282
22717SOL    HW268730  -0.028   9.466   1.726  3.0183 -0.9269  0.2496
22718SOL     OW68731   1.318   2.790   5.434 -0.2908  0.1417  0.5065
22718SOL    HW168732   1.400   2.817   5.393  0.0265 -0.6884  0.5675
22718SOL    HW268733   1.252   2.801   5.366  0.2185 -1.1551 -0.2496
22719SOL     OW68734   6.874   2.287   2.154  0.2966 -0.1391 -0.2242
22719SOL    HW168735   6.805   2.227   2.184 -1.7091  2.3223  0.5207
22719SOL    HW268736   6.935   2.291   2.227  1.0449 -1.9629 -0.6844
22720SOL     OW68737   7.526   1.914   4.347 -0.6362  0.4069  0.6863
22720SOL    HW168738   7.532   1.890   4.439 -0.9176  0.8044  0.8124
22720SOL    HW268739   7.508   1.832   4.301  1.2366 -0.1008  0.7753
22721SOL     OW68740   3.529   3.563   3.084  0.8273 -0.5148  0.3261
22721SOL    HW168741   3.445   3.577   3.128  0.3580 -0.9699 -0.4023
22721SOL    HW268742   3.544   3.642   3.033  0.3177 -0.8543 -0.3653
22722SOL     OW68743   3.163   7.070   4.384  0.2180  0.5597  0.6008
22722SOL    HW168744   3.244   7.060   4.434  0.6410 -1.6108 -0.3976
22722SOL    HW268745   3.096   7.083   4.451  0.8741 -1.5466  1.7915
22723SOL     OW68746   6.157   7.766   4.431  0.2054 -0.6036  0.2132
22723SOL    HW168747   6.096   7.719   4.487 -1.8707 -0.4279 -1.7655
22723SOL    HW268748   6.151   7.857   4.461 -1.2751 -0.4223 -0.5571
22724SOL     OW68749   2.440   7.896   4.197 -0.0893 -0.3801  0.3712
22724SOL    HW168750   2.528   7.857   4.197  0.3040  0.4344 -0.7830
22724SOL    HW268751   2.436   7.944   4.114 -0.3491  2.5077  1.9585
22725SOL     OW68752   2.247   6.890   9.460 -0.1761 -0.5028 -0.6107
22725SOL    HW168753   2.329   6.840   9.461 -0.9687 -1.8413 -0.4807
22725SOL    HW268754   2.265   6.965   9.517  0.7823 -1.0773 -0.1247
22726SOL     OW68755   8.230   1.518   2.966  0.2632 -0.1720 -0.3890
22726SOL    HW168756   8.169   1.554   2.901 -0.2873 -0.2473  0.0757
22726SOL    HW268757   8.195   1.547   3.050  1.5150  0.7541 -0.1505
22727SOL     OW68758   7.496   5.696   1.671 -0.2673  0.0497 -0.3838
22727SOL    HW168759   7.510   5.711   1.765  1.1364 -1.9417 -0.2079
22727SOL    HW268760   7.429   5.760   1.647 -1.8475 -0.4112  2.3140
22728SOL     OW68761   4.706   2.443   9.934 -0.1839 -0.3285  0.2485
22728SOL    HW168762   4.651   2.420   9.859 -1.1837  0.6800  0.6386
22728SOL    HW268763   4.735   2.360   9.970  0.5195 -0.8288 -1.4000
22729SOL     OW68764   5.331   3.643   8.315  0.2727 -0.2795  0.9019
22729SOL    HW168765   5.338   3.633   8.220 -3.8274  1.7032  0.1316
22729SOL    HW268766   5.401   3.703   8.338  1.0638 -0.4166 -0.9492
22730SOL     OW68767   1.052   7.696   6.433 -0.0296  0.3966 -0.0157
22730SOL    HW168768   1.080   7.724   6.519  1.1222  0.1008 -0.2862
22730SOL    HW268769   0.963   7.730   6.424  0.0100  0.8030  1.1016
22731SOL     OW68770   1.296   1.901   4.465 -0.0727  1.3413  0.1686
22731SOL    HW168771   1.264   1.944   4.386 -2.2547 -0.9256 -0.2964
22731SOL    HW268772   1.381   1.864   4.440 -0.1368  1.7494 -0.6826
22732SOL     OW68773   2.193   6.288   7.029  0.2928  0.4013  0.4946
22732SOL    HW168774   2.199   6.296   7.124  0.0060  0.8219  0.4811
22732SOL    HW268775   2.105   6.252   7.014  0.2534  0.5398  0.3837
22733SOL     OW68776   4.009   5.929   0.682 -0.3447 -0.0439 -0.0597
22733SOL    HW168777   4.082   5.878   0.717  0.0275 -0.8378 -1.8732
22733SOL    HW268778   4.023   6.017   0.716  1.1990 -0.2848  0.0214
22734SOL     OW68779   5.962   3.488   5.983  0.1622 -0.4417  0.3992
22734SOL    HW168780   5.997   3.410   5.940  0.8658  0.4578 -0.7229
22734SOL    HW268781   5.874   3.499   5.946  0.3566 -0.2768 -0.0171
22735SOL     OW68782   2.047   4.949   8.865  0.4532  0.5321 -0.6049
22735SOL    HW168783   2.078   5.019   8.807  1.0666 -0.9220 -2.1232
22735SOL    HW268784   2.126   4.920   8.911 -0.0597  1.7796  1.1312
22736SOL     OW68785   9.232   9.711   7.244  0.4017  0.6885 -0.2535
22736SOL    HW168786   9.256   9.775   7.311  1.9764  1.2657 -1.3347
22736SOL    HW268787   9.199   9.763   7.171  2.7146  0.3980 -1.5629
22737SOL     OW68788   8.891   7.334   9.824  0.1763  0.3094 -0.4329
22737SOL    HW168789   8.952   7.267   9.791  0.0145  0.0508 -0.2178
22737SOL    HW268790   8.866   7.384   9.747  0.2297  0.0643 -0.6111
22738SOL     OW68791   6.344   5.625   2.851  0.3843  0.1208 -0.3796
22738SOL    HW168792   6.292   5.611   2.772  1.7027 -1.2894 -1.0607
22738SOL    HW268793   6.412   5.558   2.846  0.7630  0.2929  1.7426
22739SOL     OW68794   6.968   4.766   5.137 -0.2956 -0.0067 -0.1356
22739SOL    HW168795   6.964   4.847   5.189 -0.0546  0.7120 -1.1990
22739SOL    HW268796   6.884   4.762   5.092 -0.8482 -1.0910  0.9598
22740SOL     OW68797   3.258   5.548   3.441  0.2861 -0.0658  0.5410
22740SOL    HW168798   3.176   5.557   3.392  0.4790 -0.2661  0.1805
22740SOL    HW268799   3.251   5.464   3.486  0.0717  0.1577  0.9340
22741SOL     OW68800   7.493   5.154   5.667  0.2899  0.3052 -0.3727
22741SOL    HW168801   7.511   5.227   5.726  0.4857 -1.5743  2.0672
22741SOL    HW268802   7.400   5.161   5.647  0.4604  1.5990 -0.8075
22742SOL     OW68803   6.974   5.432   7.500 -0.5409  0.4739  0.5238
22742SOL    HW168804   6.958   5.502   7.563 -1.0506 -0.1399  1.0898
22742SOL    HW268805   7.058   5.394   7.527 -0.9866 -0.1018  1.1531
22743SOL     OW68806   3.059   1.939   8.208 -0.0561  0.1321 -0.1813
22743SOL    HW168807   3.115   1.862   8.195 -0.8816 -0.3435 -1.0200
22743SOL    HW268808   3.093   1.980   8.288 -0.4436 -1.8499  1.0584
22744SOL     OW68809   1.231   8.660   0.440 -0.4561 -0.1051 -0.6606
22744SOL    HW168810   1.158   8.646   0.499 -0.4487 -0.8596 -0.8164
22744SOL    HW268811   1.212   8.744   0.397 -2.1555 -1.1121 -1.9983
22745SOL     OW68812   9.774   6.083   5.281 -0.0745 -0.2921 -0.5068
22745SOL    HW168813   9.853   6.111   5.327 -0.0651  0.9523 -1.2148
22745SOL    HW268814   9.804   6.057   5.194 -0.5861  2.1085 -1.5064
22746SOL     OW68815   3.085   5.106   7.522 -0.3092  0.2099 -0.6788
22746SOL    HW168816   3.067   5.187   7.476 -0.6547  1.1279  0.9899
22746SOL    HW268817   3.101   5.133   7.612 -0.6204 -1.5872 -0.0444
22747SOL     OW68818   5.251   3.116   8.693 -0.1098 -0.8041  0.0756
22747SOL    HW168819   5.276   3.025   8.709 -0.2821 -1.0646 -1.0123
22747SOL    HW268820   5.328   3.155   8.651 -0.0441 -0.4517  0.5180
22748SOL     OW68821   1.026   6.496   3.208 -0.5883 -0.3073 -0.1830
22748SOL    HW168822   1.114   6.466   3.185  0.4412  2.2951 -0.0405
22748SOL    HW268823   0.991   6.428   3.265  1.7870 -0.9212  0.6423
22749SOL     OW68824   6.003   4.115   7.007  0.0085 -0.4695  0.4237
22749SOL    HW168825   5.988   4.209   7.020 -1.6949 -0.7957  1.0461
22749SOL    HW268826   6.072   4.093   7.070 -1.3188 -0.0923  2.0669
22750SOL     OW68827   2.500   3.473   3.053 -0.6420  0.0022  0.1786
22750SOL    HW168828   2.416   3.463   3.097 -1.0540  1.2446 -0.2791
22750SOL    HW268829   2.544   3.543   3.101 -0.0174 -0.3954  0.1956
22751SOL     OW68830   3.695   4.504   6.057 -0.3026 -0.5964 -0.0372
22751SOL    HW168831   3.675   4.478   6.147  0.1651  0.6472  0.4417
22751SOL    HW268832   3.788   4.523   6.056 -0.4185  0.0197 -0.6186
22752SOL     OW68833   4.073   1.351   6.497 -0.0632 -0.3666 -0.0214
22752SOL    HW168834   4.091   1.416   6.564  2.5676  0.1047 -1.0731
22752SOL    HW268835   3.991   1.379   6.458  0.1368  1.3419  0.6914
22753SOL     OW68836   1.495   7.119   7.646 -0.0677 -0.2238 -0.0232
22753SOL    HW168837   1.555   7.191   7.628  0.2393 -0.3645  0.4315
22753SOL    HW268838   1.474   7.128   7.739  0.0249 -0.7549  0.0533
22754SOL     OW68839   0.573   1.723   1.527 -0.0015 -0.6755  0.0283
22754SOL    HW168840   0.516   1.800   1.519  1.1391  0.1034 -0.7789
22754SOL    HW268841   0.659   1.759   1.547  0.4978 -1.7647 -0.1193
22755SOL     OW68842   2.884   3.189   2.432 -0.7372 -0.0253  0.2942
22755SOL    HW168843   2.924   3.241   2.501 -1.3776 -1.5256  1.8770
22755SOL    HW268844   2.791   3.212   2.435 -0.7732 -0.1210 -0.0498
22756SOL     OW68845   3.799   3.446   2.656  0.0731 -0.0450  0.7236
22756SOL    HW168846   3.793   3.375   2.592  1.6081  1.1282 -0.7947
22756SOL    HW268847   3.708   3.466   2.678 -0.5366 -0.0355 -1.6178
22757SOL     OW68848   3.891   5.284   4.723  0.0933 -0.2800  0.2784
22757SOL    HW168849   3.821   5.332   4.679  0.5398 -0.8498 -1.1279
22757SOL    HW268850   3.940   5.243   4.652 -0.1629 -2.6906  1.3798
22758SOL     OW68851   6.320   0.118   0.833 -0.1723  0.4731 -1.0790
22758SOL    HW168852   6.369   0.192   0.798  1.1660 -0.4156 -1.1672
22758SOL    HW268853   6.259   0.157   0.896  0.8073  1.6083 -0.7861
22759SOL     OW68854   8.766   4.178   4.547  0.2383  0.1300 -0.4149
22759SOL    HW168855   8.855   4.152   4.525 -0.1834 -0.9154 -0.9592
22759SOL    HW268856   8.716   4.162   4.467 -0.1761  2.1066 -0.5885
22760SOL     OW68857   5.269   1.273   9.671  0.2808  0.2451 -0.0022
22760SOL    HW168858   5.247   1.305   9.583 -2.2215  0.9219  0.7865
22760SOL    HW268859   5.185   1.247   9.709  1.3865 -0.7021  1.9655
22761SOL     OW68860   6.640   9.893   7.151 -0.3646  0.4397  0.1105
22761SOL    HW168861   6.622   9.969   7.206 -2.5323  1.0314 -1.3147
22761SOL    HW268862   6.561   9.840   7.156 -0.8658  0.7799 -2.7866
22762SOL     OW68863   8.492   0.184   1.515  0.2866 -0.4319  0.1038
22762SOL    HW168864   8.410   0.209   1.557 -0.1853 -0.1557 -0.9397
22762SOL    HW268865   8.511   0.097   1.549 -0.0743 -0.2086  0.8811
22763SOL     OW68866   2.303   7.587   3.903 -0.2026 -0.3944 -0.3524
22763SOL    HW168867   2.243   7.534   3.850 -1.1579 -1.1704  1.4036
22763SOL    HW268868   2.390   7.554   3.881 -0.5904 -0.8387 -1.2633
22764SOL     OW68869   3.618   0.023   5.571  0.5472  0.1220  0.6950
22764SOL    HW168870   3.539  -0.009   5.527  0.5139 -0.4515  1.1713
22764SOL    HW268871   3.586   0.090   5.632  0.4913  0.2407  0.5390
22765SOL     OW68872   2.306   9.920   4.236  0.2574 -0.0166 -0.0472
22765SOL    HW168873   2.295   9.833   4.275 -2.8896  0.8709  1.3993
22765SOL    HW268874   2.360   9.968   4.299  0.7839 -0.4985 -0.1253
22766SOL     OW68875   5.379   3.886   0.611 -0.1856 -0.3288 -0.3028
22766SOL    HW168876   5.439   3.832   0.661  0.2401  1.7246  1.5796
22766SOL    HW268877   5.338   3.944   0.676 -2.4795 -0.0653 -1.8262
22767SOL     OW68878   1.887   0.864   4.304 -0.1809 -0.1436  0.1080
22767SOL    HW168879   1.885   0.900   4.393 -1.3957 -0.0946  0.0792
22767SOL    HW268880   1.890   0.942   4.247 -0.8557 -0.1238  0.0880
22768SOL     OW68881   3.027   7.038   3.527 -0.4857 -0.2890 -0.1120
22768SOL    HW168882   3.106   7.030   3.581 -0.9963 -0.1709  0.6599
22768SOL    HW268883   3.022   7.131   3.506 -1.1735 -0.0449  1.0211
22769SOL     OW68884   5.394   6.593   2.797 -0.5464 -0.2507 -0.4239
22769SOL    HW168885   5.483   6.574   2.828 -0.2324  1.3980 -0.2407
22769SOL    HW268886   5.337   6.571   2.870 -0.1578 -0.0270 -0.0511
22770SOL     OW68887   5.353   9.246   9.606 -0.7649  0.0685  0.6857
22770SOL    HW168888   5.402   9.265   9.526 -0.5401 -1.3250  0.4692
22770SOL    HW268889   5.351   9.329   9.653  0.4414  0.5346 -0.0399
22771SOL     OW68890   7.951   1.516   1.920  0.3312 -0.2937 -0.0345
22771SOL    HW168891   7.992   1.440   1.881 -1.6167 -2.6967  2.2186
22771SOL    HW268892   7.858   1.493   1.927 -0.1301  1.7019  1.9664
22772SOL     OW68893   0.805   0.271   9.967  0.5286  0.2890 -0.0987
22772SOL    HW168894   0.855   0.191   9.985  1.7176  0.0497 -3.6088
22772SOL    HW268895   0.871   0.338   9.949 -0.3920  0.9602 -1.1537
22773SOL     OW68896   9.219   7.148   1.133  0.8612 -0.1051  0.1830
22773SOL    HW168897   9.241   7.198   1.055  1.2036  0.7992  0.8333
22773SOL    HW268898   9.255   7.200   1.205  2.1701 -1.8122  0.8247
22774SOL     OW68899   9.422   7.624   3.193  0.2340  0.3452  0.0603
22774SOL    HW168900   9.463   7.709   3.183 -0.1942  0.4232 -1.2714
22774SOL    HW268901   9.448   7.575   3.115 -0.9540 -0.1192 -0.0668
22775SOL     OW68902   7.873   3.829   7.100 -0.2094  0.3256 -0.0783
22775SOL    HW168903   7.793   3.880   7.109 -0.2892 -0.0062  1.1710
22775SOL    HW268904   7.844   3.744   7.067 -0.0250  1.1749 -2.6912
22776SOL     OW68905   2.347   6.952   4.081 -0.3496 -0.1453 -0.0810
22776SOL    HW168906   2.255   6.933   4.101 -0.2548 -1.1750 -0.5336
22776SOL    HW268907   2.392   6.946   4.165 -0.5526 -0.5983  0.0002
22777SOL     OW68908   0.009   1.347   2.113 -0.5142  0.3530 -0.6513
22777SOL    HW168909   0.095   1.376   2.142  0.1348 -1.2982 -0.7841
22777SOL    HW268910  -0.040   1.331   2.194 -0.3141  0.2695 -0.5449
22778SOL     OW68911   3.487   5.465   0.090 -0.0395 -0.1022 -0.5254
22778SOL    HW168912   3.539   5.456   0.010 -2.3364 -1.5924 -1.9649
22778SOL    HW268913   3.517   5.392   0.145 -0.0129 -0.4430 -0.9838
22779SOL     OW68914   1.581   4.841   2.159 -0.3237  0.0312  0.2308
22779SOL    HW168915   1.626   4.896   2.223  1.0842 -1.9122  1.0239
22779SOL    HW268916   1.533   4.778   2.213 -0.2508 -0.7737 -0.6285
22780SOL     OW68917   2.562   1.789   9.963  0.3474 -0.3998  0.0790
22780SOL    HW168918   2.629   1.800   9.897  1.9975 -1.0888  1.5662
22780SOL    HW268919   2.479   1.793   9.914  1.3649  1.8550 -1.6076
22781SOL     OW68920   9.718   8.181   2.417  0.3183 -0.3893 -0.1251
22781SOL    HW168921   9.697   8.264   2.375 -0.3951 -0.5866 -0.1731
22781SOL    HW268922   9.654   8.173   2.488  0.9154 -0.4981  0.4111
22782SOL     OW68923   2.311   0.432   2.771  0.4697  0.6190 -0.0548
22782SOL    HW168924   2.356   0.508   2.806  0.7971  0.1931  0.4801
22782SOL    HW268925   2.223   0.435   2.811  0.2607  1.0626 -0.5418
22783SOL     OW68926   3.371   6.737   1.877  0.2413  0.1765  0.2294
22783SOL    HW168927   3.324   6.785   1.809  0.7643 -0.9079 -0.9386
22783SOL    HW268928   3.451   6.788   1.891 -0.5389  1.2052  1.1408
22784SOL     OW68929   6.512   9.223   5.277  0.1056  0.3137 -0.1345
22784SOL    HW168930   6.517   9.269   5.194 -0.1105 -1.0685 -0.9507
22784SOL    HW268931   6.564   9.143   5.264  0.6378  0.3980  1.2883
22785SOL     OW68932   8.325   2.180   4.503 -0.0618  0.2122  0.8045
22785SOL    HW168933   8.245   2.228   4.522  0.6529  1.2118  1.3316
22785SOL    HW268934   8.331   2.115   4.574  0.2217  0.9382  1.4578
22786SOL     OW68935   7.286   3.680   6.732 -0.0580 -0.2449  0.0498
22786SOL    HW168936   7.338   3.713   6.658  1.0710 -1.2629  0.3483
22786SOL    HW268937   7.340   3.695   6.809 -1.1821  0.7043  0.6819
22787SOL     OW68938   3.904   8.457   6.074 -0.2812  0.3307  0.4813
22787SOL    HW168939   3.903   8.431   5.982  1.0933  1.8879 -0.0394
22787SOL    HW268940   3.866   8.383   6.121  2.2219 -2.0468 -0.9583
22788SOL     OW68941   0.434   3.604   9.787 -0.0329 -0.2367  0.3625
22788SOL    HW168942   0.439   3.646   9.701  0.2419 -0.6556  0.1739
22788SOL    HW268943   0.354   3.551   9.783 -0.2936  0.1372  0.5447
22789SOL     OW68944   3.147   4.604   2.070 -0.0344  0.1073 -0.4349
22789SOL    HW168945   3.051   4.606   2.068 -0.1700  0.2832  2.3204
22789SOL    HW268946   3.174   4.686   2.029 -1.1357  0.8176  0.2122
22790SOL     OW68947   5.223   2.611   2.763  0.1411  0.1370  0.0246
22790SOL    HW168948   5.201   2.673   2.832  1.6024  1.8212 -0.9371
22790SOL    HW268949   5.317   2.623   2.749  0.0445 -0.7784 -1.6444
22791SOL     OW68950   7.376   2.998   2.150  0.4611 -0.0026  0.2688
22791SOL    HW168951   7.461   3.030   2.121 -0.1723  0.8281 -0.7898
22791SOL    HW268952   7.393   2.910   2.183  1.7655  0.2616  0.3576
22792SOL     OW68953   0.780   8.147   3.669 -0.1325 -0.7499  0.0200
22792SOL    HW168954   0.722   8.211   3.710  0.0772 -1.1909  1.0595
22792SOL    HW268955   0.855   8.142   3.729  0.6268 -0.7429 -0.9124
22793SOL     OW68956   1.224   5.493   0.201 -0.7555  0.9930  0.4688
22793SOL    HW168957   1.305   5.485   0.151 -0.8933 -0.1330  0.4022
22793SOL    HW268958   1.239   5.567   0.259  0.4651  0.5635  0.7228
22794SOL     OW68959   0.772   1.491   0.259  0.1639 -0.2195  0.4736
22794SOL    HW168960   0.836   1.420   0.251  1.6925  1.3252 -3.5515
22794SOL    HW268961   0.821   1.562   0.301 -0.0391 -0.1421  0.5809
22795SOL     OW68962   1.237   7.877   8.270  0.0157  1.1190  0.3562
22795SOL    HW168963   1.318   7.923   8.291  2.0475 -0.7001 -2.7287
22795SOL    HW268964   1.236   7.802   8.329  1.1904  0.5878 -0.2673
22796SOL     OW68965   1.262   1.781   5.686  0.1088  0.2902 -0.2474
22796SOL    HW168966   1.301   1.760   5.601 -0.5703  2.5483 -1.1751
22796SOL    HW268967   1.209   1.704   5.707  0.2574 -0.2999 -1.8944
22797SOL     OW68968   4.809   4.515   7.498  0.0054 -0.2552 -0.0105
22797SOL    HW168969   4.747   4.478   7.436  0.4423  1.0179 -1.2456
22797SOL    HW268970   4.799   4.609   7.489  1.1122 -0.0320  0.8130
22798SOL     OW68971   8.428   4.803   0.604 -0.3394 -0.2882 -0.4355
22798SOL    HW168972   8.357   4.790   0.667 -1.2086  1.7588 -0.8938
22798SOL    HW268973   8.394   4.870   0.544  2.5702  2.0603  0.3113
22799SOL     OW68974   8.807   0.519   1.347  0.2187  0.5012 -0.7026
22799SOL    HW168975   8.856   0.599   1.366  1.8188 -0.2956 -1.3020
22799SOL    HW268976   8.799   0.475   1.431  1.3605  0.2153 -0.7230
22800SOL     OW68977   9.507   8.852   5.793 -0.0191  0.2240  0.2268
22800SOL    HW168978   9.505   8.784   5.726  0.3092 -0.1493  0.5866
22800SOL    HW268979   9.572   8.915   5.762 -0.2001  0.2871 -0.0248
22801SOL     OW68980   5.936   7.574   2.916 -0.9083  0.0825  0.1975
22801SOL    HW168981   5.855   7.626   2.915 -1.2533 -0.4670 -0.4005
22801SOL    HW268982   5.914   7.498   2.970 -0.1224  0.9667  1.8644
22802SOL     OW68983   0.268   3.606   9.045 -0.8283 -0.5141  0.0698
22802SOL    HW168984   0.354   3.636   9.076 -1.1668  0.8382 -0.2621
22802SOL    HW268985   0.282   3.588   8.952 -0.6778 -1.2439  0.2238
22803SOL     OW68986   7.690   1.367   1.862 -0.8621  0.0818 -0.6729
22803SOL    HW168987   7.725   1.278   1.865 -1.0441  0.0217  1.3883
22803SOL    HW268988   7.698   1.393   1.770  1.8997 -0.9702 -0.8343
22804SOL     OW68989   4.721   9.694   4.670 -0.4273  0.0405  0.8216
22804SOL    HW168990   4.680   9.769   4.712 -1.3771 -0.7576  1.3962
22804SOL    HW268991   4.810   9.692   4.705 -0.6750  0.3834  1.4909
22805SOL     OW68992   5.710   3.321   9.365 -1.0717  0.6446 -0.4259
22805SOL    HW168993   5.767   3.397   9.374  0.9057 -0.2965 -3.4949
22805SOL    HW268994   5.749   3.254   9.421  0.5097  0.2333 -1.9587
22806SOL     OW68995   3.851   6.916   6.584 -0.2696  0.3318 -0.1330
22806SOL    HW168996   3.773   6.912   6.529  0.4861  1.3928 -1.3294
22806SOL    HW268997   3.908   6.979   6.540 -0.1488  2.2565  2.5238
22807SOL     OW68998   1.835   1.839   0.342  0.1577 -0.2974 -0.3072
22807SOL    HW168999   1.816   1.932   0.350 -0.6067 -0.5528  1.3559
22807SOL    HW269000   1.764   1.804   0.288  1.1366  0.2450 -2.0290
22808SOL     OW69001   9.634   7.071   5.729  0.6459  0.3171 -0.1704
22808SOL    HW169002   9.557   7.124   5.708  0.8390 -0.1449 -2.1823
22808SOL    HW269003   9.709   7.125   5.703  0.9227 -0.1281 -0.3136
22809SOL     OW69004   0.770   6.006   6.526 -0.5440  0.6206 -0.7558
22809SOL    HW169005   0.747   5.921   6.563 -0.0490  0.1472 -1.5341
22809SOL    HW269006   0.851   6.031   6.571 -0.5857  0.6020 -0.6686
22810SOL     OW69007   5.597   5.492   3.562 -0.0980  0.6947 -0.0410
22810SOL    HW169008   5.512   5.522   3.531 -0.2273  1.4615  1.0009
22810SOL    HW269009   5.582   5.402   3.592 -0.4653  0.7172 -0.1596
22811SOL     OW69010   7.571   6.937   7.128 -0.2904  0.1899  0.5379
22811SOL    HW169011   7.597   6.878   7.057  1.0677  0.7348  0.5420
22811SOL    HW269012   7.498   6.987   7.092  0.4987  0.5896 -0.5660
22812SOL     OW69013   9.686   5.437   9.345 -0.5887 -0.0547 -0.0606
22812SOL    HW169014   9.778   5.414   9.342 -0.6370 -0.3662  0.7673
22812SOL    HW269015   9.653   5.414   9.258  0.1059  0.0618 -0.3628
22813SOL     OW69016   2.838   1.738   8.196 -0.1055  0.6720 -0.2645
22813SOL    HW169017   2.748   1.749   8.168 -0.1514  0.0782 -0.3749
22813SOL    HW269018   2.883   1.818   8.168 -0.3036  0.3926 -1.4211
22814SOL     OW69019   8.535   9.398   7.619 -0.0316 -0.2136  0.6683
22814SOL    HW169020   8.602   9.455   7.579 -1.1846  0.8066  0.1397
22814SOL    HW269021   8.566   9.309   7.600 -0.8562  0.1319 -3.3624
22815SOL     OW69022   6.127   9.143   8.617  0.3485 -0.1808  0.2444
22815SOL    HW169023   6.179   9.138   8.697  1.0991  1.3426 -0.1274
22815SOL    HW269024   6.039   9.168   8.647  0.9593  1.7606  0.5027
22816SOL     OW69025   9.691   1.478   7.412  0.2214  0.0041  0.1298
22816SOL    HW169026   9.654   1.566   7.425 -0.1244 -0.3292  1.4695
22816SOL    HW269027   9.615   1.421   7.403  0.4056 -0.4335  1.2122
22817SOL     OW69028   0.422   1.414   9.314 -0.2990 -0.4426 -0.2560
22817SOL    HW169029   0.461   1.400   9.228 -0.3560  1.2943 -0.6079
22817SOL    HW269030   0.337   1.455   9.296 -0.0093  0.6047  0.6227
22818SOL     OW69031   0.840   9.898   2.319  0.0031  0.1054  0.6094
22818SOL    HW169032   0.931   9.922   2.302  0.0499  0.5361  1.3811
22818SOL    HW269033   0.789   9.968   2.278  0.0809  0.6398  1.3980
22819SOL     OW69034   7.251   2.641   8.415  0.0964 -0.4473  0.0409
22819SOL    HW169035   7.270   2.621   8.324  0.9623  0.3284  0.0395
22819SOL    HW269036   7.291   2.570   8.465  0.8827 -0.1169 -0.1095
22820SOL     OW69037   2.102   3.702   4.101 -0.3502 -0.2535 -0.0122
22820SOL    HW169038   2.042   3.770   4.132  1.9336  2.3022 -0.8927
22820SOL    HW269039   2.122   3.725   4.011  3.2891  0.1313  0.7313
22821SOL     OW69040   8.654   6.997   7.555  0.0738  0.0369  0.1297
22821SOL    HW169041   8.748   6.994   7.537 -0.1795 -1.4211 -1.1223
22821SOL    HW269042   8.614   7.021   7.471 -0.9838 -4.8039 -1.0896
22822SOL     OW69043   4.567   6.103   8.945  0.7457  0.1724 -0.3307
22822SOL    HW169044   4.645   6.096   9.001  2.1309  1.8307 -1.9310
22822SOL    HW269045   4.600   6.084   8.857 -1.2005 -1.4666 -0.7786
22823SOL     OW69046   5.825   0.576   0.488  0.5984 -0.5551 -0.3406
22823SOL    HW169047   5.732   0.593   0.502  0.9469  0.1653  1.3525
22823SOL    HW269048   5.830   0.483   0.466 -0.6982 -0.1454 -2.6698
22824SOL     OW69049   2.877   2.351   3.378  0.3795 -0.0748 -0.5757
22824SOL    HW169050   2.883   2.447   3.372 -0.0824 -0.0032 -0.0054
22824SOL    HW269051   2.791   2.335   3.417  0.5661 -0.7118 -0.4153
22825SOL     OW69052   3.902   3.292   4.110  0.2245 -0.1943  0.1257
22825SOL    HW169053   3.922   3.229   4.180  0.9134 -1.0961 -0.8615
22825SOL    HW269054   3.862   3.366   4.156 -3.3751 -2.4616  1.1293
22826SOL     OW69055   7.619   7.264   0.167  0.3392 -0.1232  0.2769
22826SOL    HW169056   7.658   7.207   0.101  0.9090  1.0654 -0.4629
22826SOL    HW269057   7.690   7.324   0.191 -1.0397  2.3590 -1.3902
22827SOL     OW69058   3.171   9.114   2.275 -0.4517 -0.1765 -1.0153
22827SOL    HW169059   3.146   9.036   2.325  2.6915 -0.3851  0.4572
22827SOL    HW269060   3.210   9.079   2.195  2.5379 -0.4087  0.3748
22828SOL     OW69061   1.285   5.247   4.016 -0.2161  0.0785  0.3397
22828SOL    HW169062   1.321   5.307   3.951  1.2157 -0.1783  0.8550
22828SOL    HW269063   1.230   5.186   3.966 -0.2214  0.6994 -0.4242
22829SOL     OW69064   5.173   5.815   4.823 -0.0260 -0.3568 -1.0983
22829SOL    HW169065   5.241   5.881   4.821  0.9373 -1.3144 -0.8754
22829SOL    HW269066   5.145   5.806   4.731  0.9545 -0.7530 -1.3728
22830SOL     OW69067   8.667   2.848   4.180 -0.2422 -0.0046  0.0825
22830SOL    HW169068   8.719   2.849   4.261 -0.1602  1.9967  0.0526
22830SOL    HW269069   8.640   2.757   4.171  2.4539 -0.9575  0.5976
22831SOL     OW69070   1.414   0.473   4.197  0.5333 -0.1513  0.9535
22831SOL    HW169071   1.366   0.480   4.279  1.2676 -0.3747  1.4158
22831SOL    HW269072   1.396   0.384   4.166  1.4328 -0.5905  1.6415
22832SOL     OW69073   9.708   5.700   7.728  0.6955 -0.1850  0.1634
22832SOL    HW169074   9.632   5.641   7.727  0.3020  0.2984 -1.4106
22832SOL    HW269075   9.721   5.723   7.636  1.4473  1.4279  0.6498
22833SOL     OW69076   4.467   9.744   1.063 -0.3305 -0.3080 -0.2109
22833SOL    HW169077   4.399   9.736   1.129 -2.2312  1.6089 -1.7422
22833SOL    HW269078   4.535   9.682   1.089 -0.6935  0.7223  3.7674
22834SOL     OW69079   0.859   4.304   7.798 -0.5515  0.0577 -0.5060
22834SOL    HW169080   0.927   4.364   7.826  0.2513 -0.3795 -1.4397
22834SOL    HW269081   0.862   4.233   7.862 -1.0093  0.6485  0.1827
22835SOL     OW69082   8.247   5.917   2.609  0.4219 -0.5640 -0.4005
22835SOL    HW169083   8.247   6.008   2.638  1.2087 -0.1489 -1.6129
22835SOL    HW269084   8.155   5.890   2.614 -0.3736  1.2802 -2.9057
22836SOL     OW69085   8.927   8.177   0.750 -0.2269 -0.2620 -0.2320
22836SOL    HW169086   8.976   8.100   0.723 -0.8780 -0.6495 -0.3321
22836SOL    HW269087   8.906   8.161   0.842  0.0815  0.0380 -0.1071
22837SOL     OW69088   6.280   3.131   9.437  0.4434 -0.6172 -0.1213
22837SOL    HW169089   6.206   3.186   9.409  0.5711 -0.9740 -1.2150
22837SOL    HW269090   6.241   3.066   9.494  0.3796  0.9659  1.7619
22838SOL     OW69091   9.218   4.991   4.872 -0.5776 -0.2480  0.1224
22838SOL    HW169092   9.282   4.920   4.867  0.5641  0.7381  0.2944
22838SOL    HW269093   9.183   4.998   4.783 -1.2540 -1.5027  0.2757
22839SOL     OW69094   4.300   3.613   3.661 -0.2514  0.5481  0.1524
22839SOL    HW169095   4.264   3.538   3.614 -1.0362  1.8002 -1.2996
22839SOL    HW269096   4.253   3.614   3.745 -1.5917  0.5091 -0.5828
22840SOL     OW69097   2.550   6.584   5.283 -0.1039  0.2292  0.9632
22840SOL    HW169098   2.612   6.583   5.210  1.4742  1.1867  2.2171
22840SOL    HW269099   2.503   6.501   5.275  2.6948 -1.5188  1.0437
22841SOL     OW69100   2.050   8.899   0.803 -0.2859  0.4178 -0.3136
22841SOL    HW169101   1.956   8.904   0.787 -0.3798 -0.1566  0.0084
22841SOL    HW269102   2.061   8.818   0.854  0.2326  1.0792  0.6678
22842SOL     OW69103   5.775   9.631   3.709 -0.2056 -0.0677 -0.2672
22842SOL    HW169104   5.801   9.703   3.651  0.9095 -0.2261  0.0131
22842SOL    HW269105   5.681   9.645   3.724  0.1137  1.7223  0.3095
22843SOL     OW69106   8.006   9.872   9.175 -0.2555  0.3104  0.1592
22843SOL    HW169107   7.968   9.814   9.241 -2.8122  0.4561 -1.0422
22843SOL    HW269108   7.971   9.958   9.197 -0.0647  0.5905 -0.6241
22844SOL     OW69109   7.236   9.490   0.620  0.2737  0.4122  0.6183
22844SOL    HW169110   7.156   9.543   0.630  0.3365  0.4464  0.9406
22844SOL    HW269111   7.235   9.464   0.528  0.3483  1.1407  0.4071
22845SOL     OW69112   2.931   0.724   9.315 -0.2852  0.1401  0.0436
22845SOL    HW169113   2.896   0.656   9.257 -0.6887  0.1852  0.2282
22845SOL    HW269114   2.939   0.801   9.260 -2.5368  0.7523  0.4693
22846SOL     OW69115   0.355   7.293   1.065 -0.1830 -0.2086 -0.4892
22846SOL    HW169116   0.356   7.359   0.995 -0.8520 -0.7390 -1.0178
22846SOL    HW269117   0.447   7.278   1.084 -0.0107  0.6782 -0.5483
22847SOL     OW69118   9.347   1.586   0.194  0.1866 -0.4043  0.4702
22847SOL    HW169119   9.389   1.535   0.264 -1.2649 -1.4238  0.6427
22847SOL    HW269120   9.302   1.657   0.241 -0.8926 -1.1619  0.6064
22848SOL     OW69121   1.240   8.375   6.371 -0.0452 -0.9207  0.2429
22848SOL    HW169122   1.267   8.419   6.290  0.7308  0.6166  1.2879
22848SOL    HW269123   1.308   8.309   6.386  1.3405  0.5862  0.9992
22849SOL     OW69124   9.518   1.889   8.829 -0.3085 -0.2103 -1.1556
22849SOL    HW169125   9.473   1.966   8.865  1.3972  0.8524 -1.1327
22849SOL    HW269126   9.505   1.821   8.894 -1.2565  0.2638 -0.8260
22850SOL     OW69127   4.254   7.843   2.365 -0.2258 -0.1918 -0.0161
22850SOL    HW169128   4.217   7.754   2.367 -0.4813 -0.0907 -0.1726
22850SOL    HW269129   4.240   7.877   2.453  0.9188 -0.7256  0.3901
22851SOL     OW69130   4.318   1.686   7.280  0.1206  0.5609  0.1485
22851SOL    HW169131   4.314   1.769   7.326 -2.0519 -0.2934  1.6736
22851SOL    HW269132   4.395   1.693   7.224  0.0254  3.5508  0.2497
22852SOL     OW69133   0.925   9.048   8.223 -0.1364 -0.5474  0.3093
22852SOL    HW169134   0.833   9.072   8.227  0.1570  1.1068 -1.3433
22852SOL    HW269135   0.962   9.078   8.306 -0.9905 -0.8063  0.7880
22853SOL     OW69136   2.500   0.046   9.961  0.4521 -0.4017  0.3120
22853SOL    HW169137   2.541   0.064   9.876  0.5630 -4.0216 -0.5685
22853SOL    HW269138   2.408   0.069   9.948  0.7184  0.3417 -0.3400
22854SOL     OW69139   2.798   1.863   9.800 -0.0213 -0.3776 -0.0786
22854SOL    HW169140   2.825   1.772   9.816  1.0580 -0.1027 -0.2826
22854SOL    HW269141   2.849   1.915   9.862 -1.1421  0.0495  0.5244
22855SOL     OW69142   8.432   4.599   7.037 -0.2261 -0.3588 -0.4753
22855SOL    HW169143   8.338   4.584   7.044 -0.6443  0.1539 -3.5556
22855SOL    HW269144   8.444   4.690   7.063 -0.5747 -0.3909 -0.1902
22856SOL     OW69145   2.165   7.936   3.643 -0.3244  0.2584 -0.6639
22856SOL    HW169146   2.117   7.894   3.715 -1.7159 -0.4753 -1.9814
22856SOL    HW269147   2.244   7.882   3.634 -0.6211 -0.2425 -0.3369
22857SOL     OW69148   4.511   4.218   4.071  0.3885  0.2006  0.1386
22857SOL    HW169149   4.566   4.283   4.028  2.6617 -2.8975 -2.1527
22857SOL    HW269150   4.567   4.183   4.141 -0.5721  0.2902  0.9625
22858SOL     OW69151   6.592   2.023   5.094  0.2985  0.0022  0.3942
22858SOL    HW169152   6.535   1.955   5.058  0.1639  0.3375 -0.0373
22858SOL    HW269153   6.661   2.033   5.028  1.0807 -0.6717  1.0814
22859SOL     OW69154   5.741   6.581   5.067  0.0940  0.7986  0.2307
22859SOL    HW169155   5.690   6.552   5.143  1.2412 -4.0090 -0.4812
22859SOL    HW269156   5.829   6.597   5.103  0.1782  0.3349  0.2492
22860SOL     OW69157   4.198   8.802   8.868 -0.0803 -0.0094 -0.1153
22860SOL    HW169158   4.210   8.760   8.952 -1.4297  0.4718  0.3537
22860SOL    HW269159   4.117   8.764   8.833 -2.1407  2.9859  0.9430
22861SOL     OW69160   4.049   8.808   4.631  0.6681 -0.2480  0.3627
22861SOL    HW169161   4.089   8.794   4.546  0.8090 -1.0366  0.5530
22861SOL    HW269162   4.110   8.866   4.677  0.2424  0.7751 -0.3096
22862SOL     OW69163   1.095   6.318   4.592  0.3074  0.2176  0.2259
22862SOL    HW169164   1.070   6.234   4.630  1.8402 -0.1481  0.5020
22862SOL    HW269165   1.099   6.301   4.498  0.8001 -0.0737  0.2977
22863SOL     OW69166   9.910   0.762   8.199 -0.4607 -0.5041 -0.4619
22863SOL    HW169167   9.944   0.714   8.124  1.5773 -0.9240  0.6535
22863SOL    HW269168   9.869   0.696   8.254  0.5865 -0.6909  0.1248
22864SOL     OW69169   6.204   7.826   2.826  0.4731  0.5414 -0.0093
22864SOL    HW169170   6.270   7.784   2.880  0.5165  0.7079  0.0703
22864SOL    HW269171   6.150   7.755   2.793  0.5553  0.4244  0.1096
22865SOL     OW69172   5.691   4.855   9.189 -0.2724  0.1110  0.3205
22865SOL    HW169173   5.613   4.832   9.238 -0.0791 -0.4386  0.3747
22865SOL    HW269174   5.701   4.785   9.125  0.6242 -0.2554  0.8391
22866SOL     OW69175   4.161   5.776   2.276  0.5761  0.3559 -0.2510
22866SOL    HW169176   4.201   5.698   2.314 -0.3187  0.4628  0.9695
22866SOL    HW269177   4.069   5.753   2.266  0.4218  1.0487 -0.4602
22867SOL     OW69178   3.336   0.331   1.162  0.7369  0.0249  0.4797
22867SOL    HW169179   3.365   0.399   1.223  1.5405 -1.4819  1.8422
22867SOL    HW269180   3.414   0.279   1.145 -0.1489 -1.3972  0.5980
22868SOL     OW69181   9.237   7.217   0.847 -0.6818  0.1386 -0.0321
22868SOL    HW169182   9.296   7.281   0.807 -0.2604  0.7176  1.4361
22868SOL    HW269183   9.156   7.266   0.861 -0.3224  0.4309  1.1963
22869SOL     OW69184   3.468   2.847   8.555  0.1630  0.3928 -0.5922
22869SOL    HW169185   3.459   2.752   8.543 -0.5166  0.4283 -0.3685
22869SOL    HW269186   3.500   2.857   8.644  3.1026  0.2449 -1.5013
22870SOL     OW69187   8.723   1.711   2.349 -0.2275 -0.3947  0.4204
22870SOL    HW169188   8.629   1.724   2.362 -0.2674 -0.1773 -0.0414
22870SOL    HW269189   8.756   1.685   2.434 -0.9344 -1.7640  0.3081
22871SOL     OW69190   3.946   2.546   5.134 -0.3710  0.4912 -1.0640
22871SOL    HW169191   4.020   2.585   5.180 -0.0069  0.3062 -1.4851
22871SOL    HW269192   3.949   2.454   5.158 -1.2137  0.7062 -0.0935
22872SOL     OW69193   6.125   3.449   5.477 -0.3605  0.5181  0.3913
22872SOL    HW169194   6.085   3.469   5.392 -0.4941  0.9437  0.5515
22872SOL    HW269195   6.059   3.475   5.541  0.6501  2.5094  0.7207
22873SOL     OW69196   3.364   4.403   3.295 -0.7029 -0.2772 -0.2090
22873SOL    HW169197   3.294   4.354   3.252 -0.7231 -0.6443  0.2315
22873SOL    HW269198   3.351   4.386   3.388  0.0054 -0.3990 -0.1212
22874SOL     OW69199   2.938   2.773   4.756 -0.0017  0.0023 -0.0447
22874SOL    HW169200   2.974   2.855   4.791 -2.3724  0.8518  0.6404
22874SOL    HW269201   2.870   2.802   4.694 -0.5556 -1.4404 -0.1455
22875SOL     OW69202   3.045   7.058   7.217 -0.5024  0.3520 -0.2174
22875SOL    HW169203   3.063   7.016   7.301 -0.2344  1.5515  0.3460
22875SOL    HW269204   2.967   7.013   7.184 -0.6157 -0.1287  0.6679
22876SOL     OW69205   4.895   8.544   6.404 -0.3638 -0.0808  0.0183
22876SOL    HW169206   4.979   8.588   6.419  0.0921 -0.5291 -1.1120
22876SOL    HW269207   4.898   8.467   6.460 -1.3870  1.4984  2.4299
22877SOL     OW69208   4.498   8.415   6.856  0.0712  0.8427 -0.3065
22877SOL    HW169209   4.552   8.457   6.923  1.1281  0.3448 -0.8229
22877SOL    HW269210   4.455   8.487   6.811 -1.2646  1.1626  1.3756
22878SOL     OW69211   6.057   6.654   4.695 -0.1410  0.1750  0.3158
22878SOL    HW169212   6.021   6.583   4.640  1.8118  0.3700 -1.3178
22878SOL    HW269213   6.013   6.733   4.664  1.2726  0.3535 -1.4001
22879SOL     OW69214   7.709   5.572   6.177  0.0144  0.5868  0.2359
22879SOL    HW169215   7.621   5.589   6.213 -0.0659  0.1465  0.2478
22879SOL    HW269216   7.764   5.556   6.253 -0.0896 -0.0369  0.1855
22880SOL     OW69217   3.144   6.238   3.480 -0.1748  0.0114 -0.0964
22880SOL    HW169218   3.217   6.229   3.419 -0.3823 -0.0703 -0.3356
22880SOL    HW269219   3.160   6.321   3.525 -0.3634  0.3915 -0.7204
22881SOL     OW69220   4.198   1.821   8.169 -0.0834 -0.0001  0.1669
22881SOL    HW169221   4.124   1.761   8.160 -0.4099  0.4904 -0.5394
22881SOL    HW269222   4.251   1.805   8.091 -0.5187  1.0799 -0.3689
22882SOL     OW69223   3.109   2.051   3.896 -0.1479 -0.1530  0.1159
22882SOL    HW169224   3.200   2.023   3.886 -0.0803 -0.1519  0.6725
22882SOL    HW269225   3.065   2.022   3.816  0.2902 -0.3570 -0.0524
22883SOL     OW69226   4.791   6.149   7.960  0.2015  0.0633  0.3093
22883SOL    HW169227   4.707   6.193   7.945 -0.6618 -1.6288 -0.1050
22883SOL    HW269228   4.821   6.182   8.044 -0.9119  0.6593  0.4928
22884SOL     OW69229   3.808   2.913   1.593 -0.3451 -0.2280 -0.8586
22884SOL    HW169230   3.901   2.893   1.587 -0.4926 -0.5454 -2.4318
22884SOL    HW269231   3.765   2.828   1.596 -0.5113 -0.1731  2.9107
22885SOL     OW69232   0.033   2.066   4.418 -0.8920 -0.3865 -0.7200
22885SOL    HW169233   0.018   1.971   4.420  0.0454 -0.5389 -0.5453
22885SOL    HW269234  -0.013   2.098   4.496  1.1248 -1.0869  0.8511
22886SOL     OW69235   4.151   9.465   0.894 -0.0431 -0.1252 -0.0033
22886SOL    HW169236   4.146   9.518   0.814 -0.4156 -0.1589 -0.0042
22886SOL    HW269237   4.237   9.424   0.890  0.2986  0.5663  0.0490
22887SOL     OW69238   2.242   1.968   8.311 -0.1254  0.2623 -0.1684
22887SOL    HW169239   2.278   2.011   8.233 -1.5211 -0.5350 -1.2908
22887SOL    HW269240   2.152   2.001   8.316  0.2620  1.1245  1.7502
22888SOL     OW69241   8.054   9.056   6.376  0.4754 -0.0598 -0.6822
22888SOL    HW169242   8.116   9.058   6.303  0.1963  0.2122 -0.9100
22888SOL    HW269243   8.080   8.979   6.427 -0.3466 -1.2046 -1.9493
22889SOL     OW69244   5.676   3.797   3.452  0.0703  0.1485  0.4181
22889SOL    HW169245   5.587   3.828   3.467 -0.2477 -0.6368  0.1669
22889SOL    HW269246   5.666   3.718   3.399  0.6947 -1.9027  3.1632
22890SOL     OW69247   3.746   1.103   1.004 -0.0993 -0.3582  0.2098
22890SOL    HW169248   3.670   1.136   1.052 -1.0193 -1.5669 -0.3455
22890SOL    HW269249   3.799   1.060   1.070  0.6395  1.3234  0.7770
22891SOL     OW69250   9.254   4.011   0.833  0.2597 -0.1936  0.0249
22891SOL    HW169251   9.317   3.951   0.873  0.9418  1.2743  1.2641
22891SOL    HW269252   9.169   3.974   0.855  0.6606 -0.9028  0.4371
22892SOL     OW69253   0.354   4.742   7.412 -0.1371 -0.5727 -0.2223
22892SOL    HW169254   0.281   4.733   7.473  0.3046 -1.5743  0.1727
22892SOL    HW269255   0.412   4.669   7.432  0.8664  0.0672 -0.6934
22893SOL     OW69256   0.955   7.403   9.894  0.0027 -0.2421  0.2508
22893SOL    HW169257   0.916   7.466   9.833  0.0660 -1.0457 -0.6464
22893SOL    HW269258   0.915   7.320   9.871 -0.9426 -0.3667  2.1919
22894SOL     OW69259   6.196   5.228   2.716  0.2104 -0.2209  0.0695
22894SOL    HW169260   6.223   5.242   2.807 -1.1971  0.7408  0.3760
22894SOL    HW269261   6.100   5.229   2.719  0.1398  0.2128 -1.4852
22895SOL     OW69262   6.757   4.892   7.558 -0.2473  0.3459  0.6231
22895SOL    HW169263   6.833   4.888   7.500 -0.3983  0.0512  0.4416
22895SOL    HW269264   6.682   4.894   7.498 -0.3867  0.5572  0.8027
22896SOL     OW69265   9.412   4.793   4.916 -0.0242 -0.0500 -0.5088
22896SOL    HW169266   9.454   4.755   4.839  0.0472 -2.3837  0.5877
22896SOL    HW269267   9.416   4.723   4.982 -1.7734  1.1947  1.0040
22897SOL     OW69268   6.894   4.333   3.411  0.7386  0.1674 -0.7627
22897SOL    HW169269   6.802   4.338   3.385  0.3949  0.0836  0.3868
22897SOL    HW269270   6.931   4.265   3.354 -0.0419 -0.2031 -0.8470
22898SOL     OW69271   8.523   1.631   5.263 -0.1820  0.0939  0.3963
22898SOL    HW169272   8.578   1.567   5.308 -1.2583 -1.5342 -0.4820
22898SOL    HW269273   8.475   1.675   5.334 -1.4780 -2.0609  0.9545
22899SOL     OW69274   2.473   5.922   0.319 -0.4455  0.3203 -0.0503
22899SOL    HW169275   2.399   5.870   0.350 -1.2486  1.8548  0.7308
22899SOL    HW269276   2.453   5.940   0.227  0.0901 -1.1420 -0.4669
22900SOL     OW69277   2.869   0.457   0.135 -1.0744 -0.1544  0.2218
22900SOL    HW169278   2.870   0.441   0.040 -0.8660 -1.7120  0.4689
22900SOL    HW269279   2.945   0.408   0.168 -0.0855  1.7963  0.9950
22901SOL     OW69280   2.358   6.438   9.611  0.1091  0.8771 -0.1633
22901SOL    HW169281   2.375   6.367   9.548 -0.2824  0.6130  0.0240
22901SOL    HW269282   2.414   6.416   9.686 -0.9585  0.0585  0.4153
22902SOL     OW69283   2.441   5.659   8.135  0.1903 -0.2299  0.4962
22902SOL    HW169284   2.529   5.645   8.097  0.1209 -1.7706  0.8359
22902SOL    HW269285   2.455   5.657   8.229 -0.1848 -0.2103  0.5523
22903SOL     OW69286   4.884   6.493   2.302 -0.1800 -0.0320  0.4424
22903SOL    HW169287   4.893   6.428   2.233 -0.5280 -0.0130  0.3782
22903SOL    HW269288   4.889   6.577   2.256 -0.1231 -0.0155  0.4779
22904SOL     OW69289   4.684   7.168   1.515  0.5704 -0.5110  0.5808
22904SOL    HW169290   4.693   7.073   1.513 -1.0449 -0.6925  0.6239
22904SOL    HW269291   4.630   7.186   1.592 -1.4702  0.1857 -0.9428
22905SOL     OW69292   6.274   3.363   5.091  0.1529  0.4426 -0.2388
22905SOL    HW169293   6.270   3.307   5.168 -1.1690  0.1768 -0.4737
22905SOL    HW269294   6.324   3.440   5.119 -0.3256  0.3556  0.8855
22906SOL     OW69295   4.813   3.781   6.054 -0.2863 -0.1001 -0.0544
22906SOL    HW169296   4.833   3.701   6.005 -0.7873 -0.9012  0.9984
22906SOL    HW269297   4.738   3.757   6.109 -0.2578  1.0073  0.4850
22907SOL     OW69298   6.936   1.070   9.263  0.2834 -0.3343 -0.4456
22907SOL    HW169299   6.979   1.057   9.179  0.8114 -1.8615  0.0230
22907SOL    HW269300   6.988   1.137   9.307  0.2301  0.1929 -1.1782
22908SOL     OW69301   3.359   8.603   6.445 -0.2112  0.1279 -0.0990
22908SOL    HW169302   3.284   8.544   6.433 -0.4153  0.3981 -0.1536
22908SOL    HW269303   3.402   8.571   6.525  0.1240 -0.5697 -0.5423
22909SOL     OW69304   5.395   0.948   1.288  0.3511 -0.0594 -1.0220
22909SOL    HW169305   5.458   1.012   1.322  0.4152  0.3210 -1.8191
22909SOL    HW269306   5.310   0.979   1.319  0.3515  0.5759 -1.6157
22910SOL     OW69307   9.764   4.817   2.056 -0.4536 -0.2572 -0.6722
22910SOL    HW169308   9.672   4.813   2.082 -0.3022 -2.2154 -0.2920
22910SOL    HW269309   9.785   4.728   2.029  2.1359 -0.6713  2.1858
22911SOL     OW69310   2.518   3.475   7.214 -0.6675  0.4351 -0.0566
22911SOL    HW169311   2.453   3.419   7.255 -0.9888  1.0025  0.2245
22911SOL    HW269312   2.490   3.482   7.123 -1.2633  1.0407  0.1654
22912SOL     OW69313   9.280   0.544   1.251  0.1135  0.0148 -0.4868
22912SOL    HW169314   9.197   0.534   1.204  0.0295  1.0680 -0.6033
22912SOL    HW269315   9.282   0.637   1.275  1.4276  0.0759 -0.7919
22913SOL     OW69316   8.506   0.887   1.149 -0.1607 -0.1497  0.2447
22913SOL    HW169317   8.501   0.830   1.072 -0.4554 -0.7420  0.7009
22913SOL    HW269318   8.600   0.900   1.161 -0.1098 -0.0410 -0.2216
22914SOL     OW69319   8.873   7.519   1.961  0.3412  0.1293 -0.3609
22914SOL    HW169320   8.929   7.591   1.931  1.3975 -0.7975 -0.6849
22914SOL    HW269321   8.788   7.536   1.919  0.5511  1.2213 -0.3649
22915SOL     OW69322   0.978   1.418   7.730 -0.1300 -0.2288 -0.1189
22915SOL    HW169323   1.014   1.428   7.818 -0.7842 -1.5724  0.3320
22915SOL    HW269324   1.041   1.461   7.673 -0.4865  2.1436  1.1359
22916SOL     OW69325   0.114   3.577   1.237  0.3011  0.2061 -0.4775
22916SOL    HW169326   0.190   3.595   1.181  0.7006  1.3141  0.3892
22916SOL    HW269327   0.152   3.560   1.323 -0.4401  0.7139 -0.0472
22917SOL     OW69328   1.145   5.971   0.839  0.0165 -0.0008 -0.1270
22917SOL    HW169329   1.144   6.061   0.806  0.6522 -0.0167 -0.1991
22917SOL    HW269330   1.053   5.951   0.857 -0.1561  0.5722 -0.3561
22918SOL     OW69331   6.365   0.065   6.804 -0.3070  0.0883  0.4289
22918SOL    HW169332   6.446   0.109   6.828  0.1901 -1.2452  1.2737
22918SOL    HW269333   6.362   0.070   6.709  1.6260 -1.2619  0.2326
22919SOL     OW69334   0.126   6.256   4.305  0.6976  0.6966 -0.6779
22919SOL    HW169335   0.189   6.325   4.321 -0.4244  1.3445  1.2963
22919SOL    HW269336   0.176   6.175   4.313  1.6331  1.2122 -1.1052
22920SOL     OW69337   0.472   3.245   0.134 -0.3954  0.4174 -0.5281
22920SOL    HW169338   0.394   3.217   0.182  0.4914 -0.7109  0.2971
22920SOL    HW269339   0.543   3.241   0.199  0.7646 -0.7252 -1.8097
22921SOL     OW69340   1.092   4.703   9.845 -0.2908 -0.0341  0.3935
22921SOL    HW169341   1.093   4.610   9.872 -0.5134 -0.1866 -0.1184
22921SOL    HW269342   1.003   4.718   9.815 -0.0426  0.1416 -0.2545
22922SOL     OW69343   7.316   9.467   6.121 -0.3879  0.0510  0.5044
22922SOL    HW169344   7.261   9.500   6.051 -0.1571  0.7392  0.6358
22922SOL    HW269345   7.256   9.453   6.195 -0.3993  0.7566  0.6348
22923SOL     OW69346   2.231   2.014   8.622  0.1469 -0.4206  0.4003
22923SOL    HW169347   2.200   2.025   8.533  1.7807  0.3528 -0.1044
22923SOL    HW269348   2.269   1.926   8.623  0.2846 -0.3621  0.2882
22924SOL     OW69349   5.643   3.731   6.204  0.7654 -0.4577 -0.4625
22924SOL    HW169350   5.703   3.791   6.248 -1.8103  1.2862  0.9054
22924SOL    HW269351   5.618   3.668   6.271 -0.4630  0.0732 -0.3946
22925SOL     OW69352   7.626   4.963   8.749 -0.9029 -0.2454 -0.1093
22925SOL    HW169353   7.545   4.916   8.768 -0.0759 -1.1649  1.3640
22925SOL    HW269354   7.612   5.003   8.663 -2.2852 -1.7720 -0.6344
22926SOL     OW69355   5.269   9.448   7.761  0.3912  0.4337 -0.1069
22926SOL    HW169356   5.246   9.372   7.707  1.8805 -0.3514  0.2934
22926SOL    HW269357   5.347   9.485   7.719 -0.0483  1.4728 -0.0340
22927SOL     OW69358   6.166   0.766   4.421  1.1081  0.2577  0.0878
22927SOL    HW169359   6.175   0.861   4.429  1.5071  0.4731 -2.1787
22927SOL    HW269360   6.192   0.748   4.331  0.5737 -1.9593  0.3368
22928SOL     OW69361   1.343   5.979   1.071  0.6763  0.1071 -0.5487
22928SOL    HW169362   1.319   5.960   0.981 -0.6806 -0.4354 -0.1008
22928SOL    HW269363   1.259   5.991   1.116  1.3436  1.3176  0.4417
22929SOL     OW69364   9.594   0.398   1.042  0.0010  0.0050 -0.4348
22929SOL    HW169365   9.518   0.429   0.992 -1.1088  0.0476  1.2086
22929SOL    HW269366   9.664   0.390   0.976 -1.8596 -1.7040 -2.3441
22930SOL     OW69367   1.952   0.356   2.072 -0.1245 -0.0210  0.1222
22930SOL    HW169368   1.948   0.311   2.156  2.6383 -3.2717 -1.2658
22930SOL    HW269369   1.926   0.290   2.007 -0.3580  1.8002 -1.7719
22931SOL     OW69370   1.446   5.520   8.622 -0.4667 -0.2724 -0.6088
22931SOL    HW169371   1.471   5.428   8.624  1.9124  0.3032  0.5820
22931SOL    HW269372   1.530   5.567   8.616 -1.6183  1.8216 -1.4406
22932SOL     OW69373   8.852   5.506   2.680 -0.3974 -0.0579 -0.5082
22932SOL    HW169374   8.808   5.568   2.622 -0.4146 -0.5898 -1.0787
22932SOL    HW269375   8.945   5.522   2.665 -0.3626  1.2125  0.8553
22933SOL     OW69376   6.240   6.927   8.882 -0.1365  0.1822 -0.3266
22933SOL    HW169377   6.294   6.975   8.819 -0.3438  0.7016 -0.1168
22933SOL    HW269378   6.270   6.958   8.968 -2.2323  2.2031 -0.2108
22934SOL     OW69379   3.865   3.386  -0.002 -0.0237  0.2456  0.0208
22934SOL    HW169380   3.885   3.349   0.084 -0.0872  1.1385  0.4342
22934SOL    HW269381   3.775   3.359  -0.019  0.5202 -1.3269 -0.5286
22935SOL     OW69382   1.599   6.781   1.465  0.3456  0.2337 -0.1107
22935SOL    HW169383   1.519   6.833   1.467  0.7826  0.9436 -0.9955
22935SOL    HW269384   1.568   6.690   1.459 -0.3900  0.4845 -0.1714
22936SOL     OW69385   0.757   6.859   1.743 -0.5368  0.1402  0.1118
22936SOL    HW169386   0.662   6.864   1.737 -0.5176 -0.7394 -1.5458
22936SOL    HW269387   0.782   6.795   1.675  1.2114  0.1916  0.6552
22937SOL     OW69388   8.229   8.146   3.887  0.0996 -0.0177  0.2251
22937SOL    HW169389   8.313   8.186   3.865  1.5406 -3.3067 -0.8902
22937SOL    HW269390   8.164   8.199   3.842  1.5553  2.3662  0.7588
22938SOL     OW69391   8.414   9.822   5.256  0.0674 -0.0964 -0.3832
22938SOL    HW169392   8.483   9.756   5.246  0.7244  0.5845 -0.3717
22938SOL    HW269393   8.405   9.832   5.351  1.3831  1.2853 -0.3833
22939SOL     OW69394   3.154   9.029   9.500  0.8266 -0.5034  0.1557
22939SOL    HW169395   3.161   8.941   9.464  0.5533 -0.1238 -0.8588
22939SOL    HW269396   3.092   9.074   9.442  1.8442  0.7016 -0.0405
22940SOL     OW69397   8.601   5.299   7.003 -0.1990 -0.3123  0.5699
22940SOL    HW169398   8.535   5.297   6.933  2.0769  0.6916 -1.7553
22940SOL    HW269399   8.614   5.392   7.021 -0.6848 -0.5421  2.3741
22941SOL     OW69400   8.990   9.863   5.829 -0.2190  0.0610 -0.3954
22941SOL    HW169401   8.944   9.929   5.776 -0.4929 -0.3940 -0.7337
22941SOL    HW269402   9.079   9.897   5.837 -0.8912  1.5536  1.2773
22942SOL     OW69403   9.126   6.090   3.136  0.4925  0.0486 -0.0253
22942SOL    HW169404   9.147   6.159   3.199 -1.2146  1.0262 -0.4758
22942SOL    HW269405   9.044   6.052   3.167 -0.2964  0.4369 -1.5230
22943SOL     OW69406   2.324   1.121   7.512 -0.2998  0.2738  0.5321
22943SOL    HW169407   2.384   1.119   7.586 -1.7019  0.8519  1.7373
22943SOL    HW269408   2.369   1.071   7.443  1.0721 -0.2040  1.7195
22944SOL     OW69409   8.560   3.532   0.328 -0.3379  0.3523 -0.4437
22944SOL    HW169410   8.593   3.470   0.263 -1.6860  0.2151 -1.0427
22944SOL    HW269411   8.595   3.501   0.411 -0.8162 -1.1158 -0.7537
22945SOL     OW69412   6.054   7.047   9.775  0.9600 -0.4889  0.2919
22945SOL    HW169413   6.105   6.992   9.834  0.6481 -1.7468 -0.5626
22945SOL    HW269414   6.120   7.101   9.731  1.4338 -1.1694  0.1444
22946SOL     OW69415   6.647   4.815   9.408 -0.0563  0.2504 -0.0510
22946SOL    HW169416   6.650   4.728   9.448  0.7817 -0.1738 -0.9782
22946SOL    HW269417   6.697   4.805   9.327 -0.3620  1.4819 -0.4073
22947SOL     OW69418   3.316   6.221   3.031  0.0194 -0.5062 -0.5505
22947SOL    HW169419   3.403   6.230   2.992 -0.1383 -2.2978 -1.3939
22947SOL    HW269420   3.255   6.244   2.960 -0.2177  0.3678 -0.0768
22948SOL     OW69421   7.994   1.821   5.363 -0.2735  0.2720  0.1888
22948SOL    HW169422   7.983   1.786   5.451 -2.1797 -0.1233 -0.1476
22948SOL    HW269423   7.919   1.787   5.314 -1.2713  3.3269 -0.6501
22949SOL     OW69424   3.995   9.633   4.224 -0.6306  0.1333 -0.2356
22949SOL    HW169425   3.963   9.547   4.196  1.0194 -0.2959 -0.9455
22949SOL    HW269426   3.970   9.692   4.153  2.3899 -0.7129 -2.2100
22950SOL     OW69427   5.834   9.655   2.477  0.4748  0.2710  0.2631
22950SOL    HW169428   5.836   9.573   2.427  1.2250  1.1883 -1.2861
22950SOL    HW269429   5.758   9.646   2.535  0.6402 -1.5795  0.2579
22951SOL     OW69430   1.764   4.209   2.324  0.3552  0.1760  0.5703
22951SOL    HW169431   1.818   4.264   2.268  0.0996  1.8486  1.8708
22951SOL    HW269432   1.826   4.154   2.372  0.7395  0.4689  0.4126
22952SOL     OW69433   1.190   3.583   0.352  0.2209 -0.1130  0.2907
22952SOL    HW169434   1.276   3.544   0.370  0.5990  0.3610 -0.4085
22952SOL    HW269435   1.173   3.640   0.426  2.0229  2.2851 -1.0076
22953SOL     OW69436   3.228   4.308   0.493  0.6245 -0.1237  0.3177
22953SOL    HW169437   3.212   4.372   0.423  1.3441  0.2286  0.4612
22953SOL    HW269438   3.145   4.302   0.540  0.2332 -0.1077 -0.3538
22954SOL     OW69439   0.066   9.630   2.913 -0.6041  0.4176  0.0002
22954SOL    HW169440   0.135   9.565   2.926 -0.5465  0.6322  0.8428
22954SOL    HW269441   0.034   9.614   2.825 -0.0119 -0.2007 -0.1104
22955SOL     OW69442   4.815   7.664   3.620 -0.4127 -0.2104 -0.3039
22955SOL    HW169443   4.886   7.609   3.651 -0.8982 -0.0187  1.2880
22955SOL    HW269444   4.856   7.727   3.562  0.5464 -0.7157 -0.1919
22956SOL     OW69445   3.943   5.884   5.434  0.1525  0.0711 -0.6658
22956SOL    HW169446   3.925   5.943   5.360 -0.4582 -0.1720 -0.7165
22956SOL    HW269447   4.026   5.915   5.469 -1.5321  2.9266  1.2126
22957SOL     OW69448   9.729   7.594   5.456 -0.4191  0.5672 -0.2789
22957SOL    HW169449   9.644   7.638   5.464 -0.4294  0.2316  1.8508
22957SOL    HW269450   9.763   7.624   5.371 -2.7021  0.6047 -1.2582
22958SOL     OW69451   4.106   9.134   2.374 -0.8526 -0.0490  0.2925
22958SOL    HW169452   4.152   9.090   2.302 -1.1222 -1.1533  0.7692
22958SOL    HW269453   4.124   9.079   2.451 -2.7705 -0.4108  0.5298
22959SOL     OW69454   2.757   5.578   3.330  0.0023 -0.5550  1.0694
22959SOL    HW169455   2.735   5.540   3.245 -0.7824  0.5319  0.7692
22959SOL    HW269456   2.680   5.630   3.354  1.1509  1.1410  1.2791
22960SOL     OW69457   4.570   2.452   0.203  0.0977 -0.4340 -0.8276
22960SOL    HW169458   4.588   2.495   0.119  0.7032  0.4153 -0.2821
22960SOL    HW269459   4.492   2.498   0.236  1.6175  1.3527  0.4573
22961SOL     OW69460   6.284   3.350   8.243 -0.2062  0.3707  0.1494
22961SOL    HW169461   6.321   3.366   8.156  1.0703 -0.2652  0.5459
22961SOL    HW269462   6.201   3.306   8.226 -0.6630  1.5481 -0.7723
22962SOL     OW69463   1.941   1.329   5.392 -0.3956  0.5537  0.0170
22962SOL    HW169464   1.852   1.329   5.357 -0.3339  0.0622 -0.1459
22962SOL    HW269465   1.942   1.401   5.455 -0.3789  1.7324 -1.2986
22963SOL     OW69466   5.651   9.061   1.289 -0.1893 -0.1393 -0.0130
22963SOL    HW169467   5.573   9.116   1.279 -0.3040 -0.2068  0.4632
22963SOL    HW269468   5.619   8.972   1.279 -0.3572 -0.2240  1.1636
22964SOL     OW69469   8.101   5.636   7.204 -0.1351  1.0574 -0.3872
22964SOL    HW169470   8.172   5.685   7.245  0.8424 -1.0489  0.6024
22964SOL    HW269471   8.065   5.696   7.139  1.4731  2.7759  0.2124
22965SOL     OW69472   5.457   8.418   7.922  0.0290 -0.2192 -0.0225
22965SOL    HW169473   5.493   8.382   7.840  1.0316 -1.0179  0.7391
22965SOL    HW269474   5.444   8.342   7.978  0.7199  0.4332  1.0662
22966SOL     OW69475   9.995   8.005   8.622  0.4011 -0.0879 -0.5598
22966SOL    HW169476  10.037   7.943   8.682 -0.7380 -0.2347  0.1270
22966SOL    HW269477   9.902   7.985   8.628  0.0466  1.3782 -0.6935
22967SOL     OW69478   8.855   8.151   9.254  0.5261  1.1956  0.4975
22967SOL    HW169479   8.771   8.195   9.262  0.1584  0.5823  0.0600
22967SOL    HW269480   8.839   8.062   9.286  0.8492  0.8919 -0.1779
22968SOL     OW69481   7.541   2.031   7.825  0.2819 -0.1837  0.3986
22968SOL    HW169482   7.488   2.044   7.747  0.7603 -0.3772  0.0364
22968SOL    HW269483   7.556   2.119   7.860 -0.4152 -0.1438  0.5977
22969SOL     OW69484   3.579   1.730   6.707  0.5942 -0.6928 -0.2889
22969SOL    HW169485   3.650   1.667   6.700  1.7747  0.3338  1.6717
22969SOL    HW269486   3.601   1.797   6.642  1.9217  0.0164  0.8292
22970SOL     OW69487   1.559   1.398   7.617 -0.7139 -0.3541 -0.3405
22970SOL    HW169488   1.645   1.371   7.587 -0.8821 -0.7139 -0.5073
22970SOL    HW269489   1.559   1.378   7.711 -0.3179  0.4348 -0.1654
22971SOL     OW69490   8.384   8.280   0.423 -0.0562 -0.7216 -0.2786
22971SOL    HW169491   8.401   8.220   0.495  0.5634  0.4267  0.5671
22971SOL    HW269492   8.468   8.325   0.409 -0.4406 -0.2222 -1.0550
22972SOL     OW69493   0.452   2.620   8.746 -0.8835  0.3049  0.2799
22972SOL    HW169494   0.493   2.541   8.712 -1.2562  1.0665 -2.1326
22972SOL    HW269495   0.367   2.591   8.779 -0.8585 -0.3771 -0.2300
22973SOL     OW69496   4.331   7.283   8.676  0.4536  0.3027  0.6944
22973SOL    HW169497   4.294   7.364   8.640  0.3659  0.4875  1.2010
22973SOL    HW269498   4.254   7.229   8.696  0.4015  0.9291  2.3308
22974SOL     OW69499   5.347   8.445   3.458 -0.1450  0.4552  0.0519
22974SOL    HW169500   5.288   8.383   3.414  2.3290 -1.0146 -1.4698
22974SOL    HW269501   5.289   8.505   3.504 -2.7800 -2.3570  0.7769
22975SOL     OW69502   6.173   1.443   9.372 -0.0538 -0.1093  1.0253
22975SOL    HW169503   6.083   1.419   9.396  0.0038 -0.4899  0.8598
22975SOL    HW269504   6.196   1.384   9.301 -0.4233  1.3937 -0.4048
22976SOL     OW69505   7.798   2.130   4.067  0.2864  0.2083  0.3590
22976SOL    HW169506   7.711   2.148   4.034 -0.2117  0.9321  1.9768
22976SOL    HW269507   7.786   2.061   4.133  0.8257  0.7301  1.0297
22977SOL     OW69508   8.261   4.041   6.417 -0.0107 -0.2363 -0.4677
22977SOL    HW169509   8.332   3.979   6.429 -0.5885 -0.4499  2.5450
22977SOL    HW269510   8.181   3.988   6.424 -0.5183  0.3101 -1.7336
22978SOL     OW69511   7.911   6.956   4.109 -0.6425  0.3093 -0.0960
22978SOL    HW169512   7.825   6.979   4.074 -0.6420 -0.8860 -0.9391
22978SOL    HW269513   7.970   7.022   4.072 -0.7149 -0.6561 -2.0828
22979SOL     OW69514   6.521   7.077   6.895  0.2057  0.3424 -0.0323
22979SOL    HW169515   6.573   7.157   6.902 -1.1797  1.5114 -2.0279
22979SOL    HW269516   6.582   7.013   6.857  1.9794 -0.3580  3.5628
22980SOL     OW69517   2.637   9.132   0.300 -0.8142 -0.0828  0.0948
22980SOL    HW169518   2.706   9.100   0.242  0.5199  1.5024  0.7200
22980SOL    HW269519   2.611   9.056   0.352  0.0985 -0.8243 -0.5027
22981SOL     OW69520   1.052   0.545   7.951 -0.4108 -0.3255  0.2501
22981SOL    HW169521   1.030   0.463   7.993  0.6714  0.2535  2.0563
22981SOL    HW269522   1.051   0.526   7.857 -1.4035 -2.0470  0.5859
22982SOL     OW69523   9.743   4.902   1.644  0.5119 -0.5886  0.1913
22982SOL    HW169524   9.837   4.911   1.660  0.6994  0.3199 -1.2823
22982SOL    HW269525   9.728   4.807   1.641  1.2342 -0.7528  1.1055
22983SOL     OW69526   8.801   1.870   0.298  0.2291  0.1167  0.2167
22983SOL    HW169527   8.840   1.897   0.380 -0.1949 -2.1138  1.2411
22983SOL    HW269528   8.708   1.887   0.308 -0.0422 -1.5877  0.8751
22984SOL     OW69529   1.102   9.278   4.333 -0.5350 -0.5567  0.2541
22984SOL    HW169530   1.055   9.337   4.393 -2.2426 -1.7293  0.1564
22984SOL    HW269531   1.035   9.247   4.273  0.5835 -1.5866 -0.5097
22985SOL     OW69532   6.582   0.239   3.667  0.2603 -0.4924 -0.6401
22985SOL    HW169533   6.646   0.275   3.606  1.1691 -2.8036 -1.1691
22985SOL    HW269534   6.626   0.163   3.706 -1.9534 -1.9263 -0.7055
22986SOL     OW69535   7.132   1.297   8.574  0.5458 -0.1570  0.0418
22986SOL    HW169536   7.163   1.209   8.553  2.0773  0.5846 -1.0349
22986SOL    HW269537   7.212   1.346   8.594 -0.0813  1.4214 -1.1122
22987SOL     OW69538   3.083   5.193   8.543  0.6990 -0.3490  0.3607
22987SOL    HW169539   3.008   5.185   8.602  0.5409  0.9129  0.3680
22987SOL    HW269540   3.144   5.250   8.590  0.7002  0.4270 -0.5342
22988SOL     OW69541   0.828   9.438   0.193 -0.0246 -0.0107 -0.1916
22988SOL    HW169542   0.858   9.504   0.130  0.2743  1.3838  1.3259
22988SOL    HW269543   0.734   9.453   0.200 -0.2200 -0.7851 -0.9530
22989SOL     OW69544   5.725   2.971   2.955 -0.0179  0.2743 -0.0954
22989SOL    HW169545   5.788   2.905   2.928  0.6267  0.7799  0.1575
22989SOL    HW269546   5.764   3.054   2.928 -0.0575  0.6769  1.0445
22990SOL     OW69547   6.912   1.031   1.889 -0.1023  0.0972 -0.3797
22990SOL    HW169548   6.995   1.079   1.894  0.3725 -0.7753  0.4906
22990SOL    HW269549   6.927   0.965   1.821  0.5432 -1.1773  0.9598
22991SOL     OW69550   8.562   5.911   0.526 -0.2121 -0.2791  0.1692
22991SOL    HW169551   8.635   5.900   0.466 -2.0139 -0.2154 -2.1604
22991SOL    HW269552   8.485   5.885   0.476 -2.0853  1.7464  1.7819
22992SOL     OW69553   7.808   6.511   8.604  0.1596 -0.5650 -0.0716
22992SOL    HW169554   7.893   6.541   8.637  0.4459 -1.1964 -0.2213
22992SOL    HW269555   7.777   6.448   8.670 -0.5333  0.1850  0.3460
22993SOL     OW69556   7.089   4.562   8.903  0.0134 -0.3907 -0.3565
22993SOL    HW169557   7.069   4.634   8.963  1.3271  0.2184 -0.6047
22993SOL    HW269558   7.154   4.599   8.844  1.0846 -1.9381 -0.1865
22994SOL     OW69559   1.831   5.955   7.703 -0.0791  0.3027  0.0497
22994SOL    HW169560   1.823   5.873   7.752  2.8486 -0.2396 -0.1796
22994SOL    HW269561   1.742   5.989   7.698 -1.9872 -4.1485 -2.0912
22995SOL     OW69562   6.323   4.289   7.157  0.1790  0.3233 -0.4483
22995SOL    HW169563   6.244   4.332   7.190 -0.4585 -1.5487  0.6017
22995SOL    HW269564   6.299   4.196   7.149  2.3906 -0.3854  0.3523
22996SOL     OW69565   1.744   9.835   7.508  0.6560  0.2442 -0.0495
22996SOL    HW169566   1.737   9.789   7.425  0.7021  1.6161 -0.8374
22996SOL    HW269567   1.662   9.885   7.515  1.5043  1.7124 -0.2619
22997SOL     OW69568   9.736   1.250   7.570  0.0225 -0.5106  0.0168
22997SOL    HW169569   9.771   1.338   7.555 -0.7603  0.1066  1.5566
22997SOL    HW269570   9.796   1.211   7.633 -2.5794  1.1450  3.9866
22998SOL     OW69571   1.229   5.835   9.432 -0.1626 -0.2571  0.5492
22998SOL    HW169572   1.259   5.871   9.348 -1.7164 -2.4764 -1.0865
22998SOL    HW269573   1.144   5.875   9.446 -0.2792 -0.5222  0.6058
22999SOL     OW69574   8.458   3.419   8.477  0.2486 -0.0081  0.0664
22999SOL    HW169575   8.417   3.332   8.471  1.4000 -0.5091 -0.8388
22999SOL    HW269576   8.477   3.430   8.570 -0.5962 -0.3884  0.2996
23000SOL     OW69577   9.808   4.048   7.002 -0.2812 -0.5079  0.4184
23000SOL    HW169578   9.831   3.956   7.019 -0.4895 -0.5333  0.5642
23000SOL    HW269579   9.892   4.091   6.988 -0.1094 -0.5270  1.3163
23001SOL     OW69580   9.192   3.655   8.143  0.5634  0.4045  0.3893
23001SOL    HW169581   9.172   3.580   8.086  1.1331 -0.0157  0.7394
23001SOL    HW269582   9.156   3.630   8.228  4.2196 -1.2800  1.6123
23002SOL     OW69583   6.459   7.983   8.997 -0.0308  0.1691 -0.3264
23002SOL    HW169584   6.391   7.919   8.977  0.4127 -0.9250  1.3644
23002SOL    HW269585   6.423   8.035   9.069  0.7052 -0.1108  0.2629
23003SOL     OW69586   8.258   6.414   5.815  0.3157 -0.4201  0.1684
23003SOL    HW169587   8.353   6.414   5.810  0.4332  3.1174  0.3304
23003SOL    HW269588   8.238   6.385   5.904  1.3440  0.4298  0.6940
23004SOL     OW69589   9.609   5.836   4.586  0.1395 -0.3112 -0.5181
23004SOL    HW169590   9.542   5.894   4.622  2.5795  0.4462  3.4005
23004SOL    HW269591   9.565   5.752   4.574 -1.9143  0.6017  0.1506
23005SOL     OW69592   4.282   2.084   9.309  0.4326 -0.1662  0.0356
23005SOL    HW169593   4.207   2.027   9.328  1.3305 -0.9812  1.2737
23005SOL    HW269594   4.286   2.143   9.384  1.4232 -0.5873  0.3346
23006SOL     OW69595   4.930   7.407   0.971  0.5483 -0.1725  1.0234
23006SOL    HW169596   4.854   7.451   1.010  0.9409 -0.1227  1.7543
23006SOL    HW269597   4.898   7.374   0.887 -0.2624 -0.1002  1.2933
23007SOL     OW69598   9.947   1.691   4.022  0.1398  0.2156  0.0406
23007SOL    HW169599   9.878   1.649   3.969 -0.4493  0.9024  0.2472
23007SOL    HW269600   9.930   1.660   4.111 -0.1164  0.6649  0.1468
23008SOL     OW69601   3.392   7.589   3.685 -0.5224  0.6281  0.1617
23008SOL    HW169602   3.409   7.632   3.769  0.0165 -0.3981  0.6060
23008SOL    HW269603   3.479   7.566   3.652 -0.8005 -1.7409  0.8514
23009SOL     OW69604   0.819   1.087   4.224  0.2767  0.7605 -0.1477
23009SOL    HW169605   0.835   1.119   4.313 -0.4083  2.2797 -0.5308
23009SOL    HW269606   0.867   1.004   4.219 -0.2085  0.3041  1.8359
23010SOL     OW69607   9.695   6.517   8.488 -0.4854 -0.2759 -0.3516
23010SOL    HW169608   9.788   6.497   8.501 -0.3241 -1.1461 -2.4626
23010SOL    HW269609   9.655   6.500   8.573  1.4116  0.9862  0.8552
23011SOL     OW69610   0.818   5.438   6.365  1.0960  0.5427 -0.1618
23011SOL    HW169611   0.749   5.438   6.431  0.5874 -0.2132 -0.6817
23011SOL    HW269612   0.879   5.369   6.394  2.4476  2.1551  1.0866
23012SOL     OW69613   1.672   8.378   2.039  0.1764 -0.1372  0.4371
23012SOL    HW169614   1.651   8.382   1.946  0.7529  0.5829  0.3249
23012SOL    HW269615   1.766   8.364   2.042  0.0539 -0.9038  0.9195
23013SOL     OW69616   0.025   4.802   9.474 -0.4343  0.1543 -0.2612
23013SOL    HW169617  -0.043   4.807   9.540  0.9265  0.4552  1.1865
23013SOL    HW269618   0.090   4.868   9.501  0.1267  0.3587 -1.9499
23014SOL     OW69619   0.631   9.767   6.494  0.0668 -0.2199  0.3568
23014SOL    HW169620   0.557   9.708   6.510 -0.0957  0.0133  0.4808
23014SOL    HW269621   0.709   9.713   6.507 -0.0813 -0.4440  0.3164
23015SOL     OW69622   8.591   5.934   5.074  0.1671 -0.0990  0.0017
23015SOL    HW169623   8.512   5.901   5.033  1.0723 -0.1298 -1.8077
23015SOL    HW269624   8.662   5.905   5.017  1.5522 -0.4489  1.7854
23016SOL     OW69625   7.025   2.876   0.035 -0.2325  0.3569 -0.3069
23016SOL    HW169626   7.041   2.812   0.105  0.7663  1.4480  0.5016
23016SOL    HW269627   6.960   2.834  -0.021 -0.7343 -0.7388  1.0303
23017SOL     OW69628   1.253   7.495   2.655 -0.4345 -1.0857 -0.5547
23017SOL    HW169629   1.277   7.413   2.697 -0.3026 -0.5481  0.4397
23017SOL    HW269630   1.231   7.470   2.565 -1.8070 -2.3969  0.1165
23018SOL     OW69631   4.575   9.600   2.007 -0.5729  0.3782 -0.3775
23018SOL    HW169632   4.615   9.573   2.089 -1.1287  0.7872  0.0305
23018SOL    HW269633   4.625   9.552   1.940  0.1631  0.3709  0.1559
23019SOL     OW69634   3.492   4.001   4.345 -0.1046 -0.7013 -0.1957
23019SOL    HW169635   3.497   3.911   4.313  0.7548 -0.6831 -0.1196
23019SOL    HW269636   3.560   4.047   4.297  0.0800 -0.3000  0.4478
23020SOL     OW69637   3.302   7.433   9.222 -0.0495  0.1379  0.2878
23020SOL    HW169638   3.251   7.355   9.244 -0.7065  0.4373 -0.1087
23020SOL    HW269639   3.385   7.400   9.188 -0.8979 -0.4632 -1.3430
23021SOL     OW69640   1.254   9.397   7.614  0.4077 -0.0461 -0.2073
23021SOL    HW169641   1.326   9.380   7.554  1.8854 -1.2006  1.7654
23021SOL    HW269642   1.229   9.311   7.647  1.8912  0.6542  3.2081
23022SOL     OW69643   0.298   5.402   2.523 -0.3298  0.5833 -0.3386
23022SOL    HW169644   0.357   5.407   2.598 -0.5536  2.4391 -0.2200
23022SOL    HW269645   0.232   5.338   2.547  1.6322 -1.6049 -0.4997
23023SOL     OW69646   8.688   6.253   1.702 -0.1393 -0.0154 -0.3951
23023SOL    HW169647   8.598   6.278   1.722 -1.3801 -3.5544 -0.7629
23023SOL    HW269648   8.719   6.209   1.782  0.8768  0.2253 -0.6448
23024SOL     OW69649   9.194   7.305   8.635 -0.3546  0.0690  0.3666
23024SOL    HW169650   9.188   7.372   8.566 -1.0650 -0.1585  0.1909
23024SOL    HW269651   9.247   7.345   8.703 -0.4965  0.6917  0.1212
23025SOL     OW69652   3.765   4.163   8.599 -0.4287  0.1295  0.5088
23025SOL    HW169653   3.687   4.121   8.562 -1.8151  2.6878  0.2675
23025SOL    HW269654   3.809   4.202   8.524 -0.9037  1.6895  0.9932
23026SOL     OW69655   8.394   9.784   6.771  0.5051  0.0905  0.0891
23026SOL    HW169656   8.382   9.690   6.782 -1.4829  0.2444 -0.3463
23026SOL    HW269657   8.398   9.796   6.676  1.4148  0.3946  0.1580
23027SOL     OW69658   6.518   1.583   6.840  0.0864  0.0884 -0.3248
23027SOL    HW169659   6.515   1.678   6.849 -3.7161  0.1061  0.2376
23027SOL    HW269660   6.495   1.566   6.749 -1.1729 -0.2250  0.0224
23028SOL     OW69661   2.314   2.337   2.426  0.0808  0.2284  0.1804
23028SOL    HW169662   2.232   2.361   2.468 -0.2709 -1.9052  0.8303
23028SOL    HW269663   2.368   2.415   2.433 -1.0959  0.9563  1.7756
23029SOL     OW69664   1.540   8.518   3.199  0.0004  0.6169 -0.1790
23029SOL    HW169665   1.605   8.541   3.133  0.8233  2.0386  1.0910
23029SOL    HW269666   1.478   8.591   3.198 -0.7481 -0.0067 -0.3059
23030SOL     OW69667   8.437   8.314   3.711  0.7055 -0.2445  0.3957
23030SOL    HW169668   8.521   8.327   3.755  1.4646  0.0187 -1.0878
23030SOL    HW269669   8.442   8.367   3.632  0.1288 -2.0874 -0.9613
23031SOL     OW69670   1.263   1.090   4.718 -0.5388  0.0750  0.3526
23031SOL    HW169671   1.256   1.166   4.775 -0.6948 -0.3045  0.8446
23031SOL    HW269672   1.301   1.022   4.773 -1.5069 -0.5546  0.2598
23032SOL     OW69673   5.007   2.297   1.621  0.4575 -0.6253  0.4447
23032SOL    HW169674   5.082   2.338   1.577  2.9256 -0.1392  4.5185
23032SOL    HW269675   4.940   2.366   1.622  1.6442  0.5890  0.4360
23033SOL     OW69676   4.048   2.960   2.308 -0.0672 -0.1907 -0.0487
23033SOL    HW169677   4.108   2.904   2.358 -1.4537 -1.0436  0.7186
23033SOL    HW269678   4.001   2.899   2.251 -0.2370  0.4696 -0.6208
23034SOL     OW69679   2.281   5.284   3.799 -0.0453  0.5765 -0.2803
23034SOL    HW169680   2.375   5.299   3.793  0.3094 -1.2794  0.0620
23034SOL    HW269681   2.273   5.195   3.833 -1.9421  1.5740  2.2054
23035SOL     OW69682   3.694   3.196   5.141  0.3443  0.4082 -0.2283
23035SOL    HW169683   3.683   3.138   5.066 -0.0591  0.1110  0.0559
23035SOL    HW269684   3.736   3.275   5.105 -1.0032  0.7966 -1.0025
23036SOL     OW69685   1.954   8.950   6.356 -0.4950  0.1415 -0.3242
23036SOL    HW169686   1.943   9.045   6.359 -2.7899 -0.1002  0.8740
23036SOL    HW269687   2.006   8.935   6.277 -1.3979  2.2755 -1.4114
23037SOL     OW69688   6.371   5.584   2.440 -0.5959  0.0547 -0.2346
23037SOL    HW169689   6.309   5.608   2.510 -1.0105  0.8810 -0.8702
23037SOL    HW269690   6.438   5.533   2.485 -1.9490 -1.2399  0.4111
23038SOL     OW69691   0.641   8.283   6.293  0.3226 -0.5249  0.1997
23038SOL    HW169692   0.625   8.204   6.344  1.8752 -0.6970  0.4539
23038SOL    HW269693   0.688   8.341   6.353 -0.9501  0.6825  0.0804
23039SOL     OW69694   4.431   7.545   2.204 -0.7947  0.1240  0.1351
23039SOL    HW169695   4.389   7.531   2.119  1.7155  0.1906 -1.1845
23039SOL    HW269696   4.456   7.458   2.233  0.1991  0.2860 -0.2098
23040SOL     OW69697   0.337   4.956   8.392  0.2549  0.1889 -0.7221
23040SOL    HW169698   0.361   4.901   8.466  2.0454  1.5112 -0.2268
23040SOL    HW269699   0.324   5.043   8.431  0.8382  0.8150 -1.8682
23041SOL     OW69700   8.712   4.260   2.587  0.4992 -0.0929 -0.3371
23041SOL    HW169701   8.755   4.219   2.662 -0.2017 -0.6758 -0.2408
23041SOL    HW269702   8.761   4.229   2.511  0.9681  0.1879 -0.1600
23042SOL     OW69703   6.438   1.207   9.508  0.1658 -0.3361  0.6796
23042SOL    HW169704   6.520   1.211   9.460 -0.4890  0.1240 -0.4561
23042SOL    HW269705   6.399   1.123   9.482  0.0595 -0.3309  0.8208
23043SOL     OW69706   6.189   0.096   3.720  0.5929 -0.0856 -0.0450
23043SOL    HW169707   6.112   0.118   3.772  0.1595  1.1836 -1.1473
23043SOL    HW269708   6.263   0.127   3.771  0.1437  1.6344 -0.3735
23044SOL     OW69709   7.162   5.938   1.392  0.0769  0.6060 -0.2261
23044SOL    HW169710   7.193   6.028   1.400  0.5389  0.6959 -2.5421
23044SOL    HW269711   7.119   5.934   1.307 -0.1030 -1.3353 -0.1013
23045SOL     OW69712   1.709   4.675   5.735  0.1024  0.6282  0.5715
23045SOL    HW169713   1.630   4.690   5.684 -0.5259 -1.8510  0.6883
23045SOL    HW269714   1.678   4.639   5.818  1.2786  1.2931  1.3229
23046SOL     OW69715   5.351   8.018   2.878 -0.2318  0.0130 -0.0955
23046SOL    HW169716   5.294   8.014   2.802 -1.2678 -0.2724  0.6630
23046SOL    HW269717   5.330   8.101   2.920  0.7973  0.4726 -0.4434
23047SOL     OW69718   7.457   5.631   2.620  0.3926 -0.4921 -0.5613
23047SOL    HW169719   7.512   5.669   2.552  1.1216 -1.1540 -0.3570
23047SOL    HW269720   7.498   5.547   2.640 -0.0922 -0.5295  0.3448
23048SOL     OW69721   2.144   7.084   0.565  0.0704 -0.2070 -0.5937
23048SOL    HW169722   2.227   7.040   0.549 -1.3597 -2.5541 -2.2146
23048SOL    HW269723   2.080   7.034   0.515 -2.8238 -0.2840  2.7889
23049SOL     OW69724   8.104   7.888   4.421  0.1240 -0.1904 -0.4698
23049SOL    HW169725   8.193   7.879   4.386  0.4617 -1.5210  0.6163
23049SOL    HW269726   8.117   7.900   4.515 -0.8469 -0.9391 -0.2212
23050SOL     OW69727   1.518   9.314   3.495 -0.0548  0.5122  0.1375
23050SOL    HW169728   1.465   9.311   3.415 -0.3302  2.4170  0.1910
23050SOL    HW269729   1.456   9.342   3.563  0.0917 -1.4319  1.1335
23051SOL     OW69730   5.269   0.676   2.934  0.1036 -0.1378  0.5708
23051SOL    HW169731   5.362   0.662   2.953  0.0957  0.7032  1.2348
23051SOL    HW269732   5.266   0.758   2.886 -0.2231 -0.5949 -0.2244
23052SOL     OW69733   3.012   3.118   2.842 -0.1498 -0.4233  1.1854
23052SOL    HW169734   3.082   3.053   2.843  0.8420  0.6124  1.2882
23052SOL    HW269735   2.996   3.137   2.934 -1.9342 -2.0270  1.2714
23053SOL     OW69736   4.510   7.462   6.557 -0.6122 -0.3549  0.0067
23053SOL    HW169737   4.491   7.404   6.631  0.8221  0.3743  0.9972
23053SOL    HW269738   4.446   7.533   6.565 -1.6370 -1.1898 -0.5459
23054SOL     OW69739   0.457   9.539   1.112 -0.6223  0.4610 -0.7785
23054SOL    HW169740   0.453   9.450   1.076 -0.9708  0.0394  0.2652
23054SOL    HW269741   0.386   9.586   1.068 -2.6494 -0.7159  1.0847
23055SOL     OW69742   6.119   3.343   1.395  0.1411 -0.1607 -1.0849
23055SOL    HW169743   6.029   3.321   1.419 -0.1210  0.7478 -1.2370
23055SOL    HW269744   6.172   3.279   1.443 -0.5558 -0.3975 -0.6194
23056SOL     OW69745   2.343   2.930   9.773  0.4182  0.8042  0.1541
23056SOL    HW169746   2.340   2.835   9.761 -1.0686  0.7690  0.5591
23056SOL    HW269747   2.372   2.942   9.863 -0.8960  0.6602  0.6190
23057SOL     OW69748   7.541   1.558   7.985  0.2784  0.7692 -0.2067
23057SOL    HW169749   7.545   1.512   7.901  0.4903 -2.0516  1.2303
23057SOL    HW269750   7.448   1.568   8.002  0.1646 -1.0356  0.3778
23058SOL     OW69751   4.204   5.585   4.719 -0.7197  0.0426 -0.3190
23058SOL    HW169752   4.183   5.529   4.644 -2.8518  0.4215 -0.0610
23058SOL    HW269753   4.124   5.635   4.735 -0.1900  0.2665  1.9813
23059SOL     OW69754   9.480   9.316   7.654  0.7840 -0.3178 -0.1310
23059SOL    HW169755   9.479   9.395   7.707 -1.1058 -1.5426  1.8456
23059SOL    HW269756   9.388   9.297   7.636  1.3126 -0.6886 -2.8231
23060SOL     OW69757   4.531   6.829   3.358  0.1720 -0.2997  0.0598
23060SOL    HW169758   4.495   6.798   3.275  1.5736  0.9834 -1.0671
23060SOL    HW269759   4.605   6.770   3.376  0.1259 -0.3169  0.1989
23061SOL     OW69760   7.519   1.800   4.610  0.2442 -0.0459 -0.1552
23061SOL    HW169761   7.560   1.856   4.676  2.0364 -0.5315 -0.8022
23061SOL    HW269762   7.500   1.718   4.656  0.7526 -0.1040 -0.0499
23062SOL     OW69763   5.731   7.877   7.729  0.5550 -0.2999  0.7433
23062SOL    HW169764   5.678   7.800   7.710  1.1960 -0.5164 -0.2230
23062SOL    HW269765   5.686   7.919   7.803 -0.1998 -1.1985  0.8166
23063SOL     OW69766   7.740   0.150   4.264 -0.7199 -0.1014  0.6374
23063SOL    HW169767   7.720   0.193   4.347 -1.0210  0.1154  0.4526
23063SOL    HW269768   7.745   0.221   4.200 -0.1368 -0.2348  0.5361
23064SOL     OW69769   8.167   2.598   1.186  0.2604  0.1315 -0.3282
23064SOL    HW169770   8.233   2.533   1.163  0.2082  0.2181 -0.7214
23064SOL    HW269771   8.109   2.552   1.247  0.2161 -0.1974 -0.6126
23065SOL     OW69772   6.762   4.907   2.204  0.0038 -0.2360  0.3730
23065SOL    HW169773   6.670   4.881   2.201  0.3045 -1.3739  0.4250
23065SOL    HW269774   6.790   4.885   2.292 -0.5828  3.5379  1.6666
23066SOL     OW69775   0.013   8.662   1.622 -0.6735 -0.2765  0.1152
23066SOL    HW169776  -0.023   8.606   1.553  2.9620 -1.2887 -1.1627
23066SOL    HW269777   0.033   8.602   1.694  0.0763 -0.0762  0.0852
23067SOL     OW69778   7.852   2.376   6.210 -0.0727  0.0844  0.0187
23067SOL    HW169779   7.923   2.440   6.213  0.4819 -0.4762 -0.8829
23067SOL    HW269780   7.864   2.330   6.127 -0.1400 -1.5473  0.8712
23068SOL     OW69781   2.131   2.580   9.793 -0.0241  0.2395  0.3176
23068SOL    HW169782   2.206   2.602   9.737 -0.0240 -0.5536 -0.0012
23068SOL    HW269783   2.055   2.609   9.743  0.0232  0.3840  0.3263
23069SOL     OW69784   4.425   8.917   1.697 -0.4148 -0.1383 -0.0975
23069SOL    HW169785   4.520   8.920   1.705 -0.2719  1.4812 -1.7294
23069SOL    HW269786   4.392   8.970   1.769 -0.2711 -2.6118  1.9240
23070SOL     OW69787   2.853   3.619   5.416  0.7422 -0.0629 -0.0103
23070SOL    HW169788   2.815   3.533   5.434 -0.0088  0.1572 -0.4905
23070SOL    HW269789   2.826   3.673   5.491 -1.2826  0.5085 -1.0610
23071SOL     OW69790   6.591   1.727   3.757 -0.3273 -0.0482  0.1305
23071SOL    HW169791   6.671   1.738   3.807 -0.5109  0.1892  0.3716
23071SOL    HW269792   6.602   1.643   3.713  0.4068  0.3543 -0.4856
23072SOL     OW69793   8.790   9.790   9.657  0.4997 -0.3016 -0.2074
23072SOL    HW169794   8.826   9.788   9.568  3.2157  0.6711  0.7801
23072SOL    HW269795   8.772   9.883   9.672 -0.1325 -0.4883  0.2134
23073SOL     OW69796   6.239   7.077   3.466  0.0005 -0.0873  0.4010
23073SOL    HW169797   6.249   7.121   3.382 -0.9375 -0.3267  0.1481
23073SOL    HW269798   6.323   7.034   3.481  1.5334  3.0526  1.4410
23074SOL     OW69799   2.533   0.325   5.346 -0.0604  0.4641  0.5012
23074SOL    HW169800   2.524   0.420   5.334 -1.6025  0.2099 -0.8218
23074SOL    HW269801   2.445   0.297   5.373 -0.0315 -0.7593 -0.6052
23075SOL     OW69802   8.017   9.863   2.132 -0.2677 -0.3605  0.1492
23075SOL    HW169803   8.075   9.793   2.160  0.8051  0.5517  0.3085
23075SOL    HW269804   7.932   9.821   2.119  0.6029 -1.8774 -0.8366
23076SOL     OW69805   1.972   5.169   8.194  0.6552  0.4191 -0.0970
23076SOL    HW169806   2.029   5.108   8.149  0.9087  0.0325  0.7228
23076SOL    HW269807   1.939   5.227   8.126 -0.9554 -1.6769 -1.1811
23077SOL     OW69808   6.685   8.540   6.847  0.3403 -0.5528  0.0367
23077SOL    HW169809   6.622   8.507   6.911  0.9066  1.7233  1.9411
23077SOL    HW269810   6.750   8.471   6.838  0.4758 -0.7862  2.3243
23078SOL     OW69811   5.440   3.069   3.696  0.0051 -0.1808 -0.1611
23078SOL    HW169812   5.433   3.026   3.781 -1.5410  1.0713  0.4052
23078SOL    HW269813   5.532   3.059   3.671  0.4670 -0.6901  1.5907
23079SOL     OW69814   4.773   3.090   7.163 -0.8803 -0.3454  0.0841
23079SOL    HW169815   4.757   3.159   7.098  0.4556  0.6597  0.7681
23079SOL    HW269816   4.697   3.095   7.222 -1.7308 -0.7605 -0.9370
23080SOL     OW69817   3.103   8.322   7.618  0.2419  0.3515  0.7025
23080SOL    HW169818   3.022   8.335   7.667  0.7964  0.5616  1.5694
23080SOL    HW269819   3.119   8.227   7.624 -0.3485  0.1807 -0.1489
23081SOL     OW69820   5.841   2.755   1.208 -0.2392 -0.8916  0.1547
23081SOL    HW169821   5.896   2.832   1.215 -1.2759 -0.0340 -0.8643
23081SOL    HW269822   5.870   2.698   1.280  0.9013  0.1923  0.5759
23082SOL     OW69823   7.707   2.953   8.601  0.6580 -0.0509 -0.2461
23082SOL    HW169824   7.775   2.937   8.666 -0.9297 -2.0988  1.0337
23082SOL    HW269825   7.725   3.042   8.568  1.2684  1.3151  3.3411
23083SOL     OW69826   8.151   0.304   6.315  0.0814  0.4784 -0.2589
23083SOL    HW169827   8.207   0.258   6.253 -0.1305 -0.1566  0.0154
23083SOL    HW269828   8.075   0.330   6.264 -0.1610 -0.1751 -0.2324
23084SOL     OW69829   5.511   3.062   3.083 -0.0155  0.0390 -0.0439
23084SOL    HW169830   5.579   3.007   3.044  0.8053  0.5443  0.6374
23084SOL    HW269831   5.496   3.131   3.018  0.1551 -0.0581 -0.1877
23085SOL     OW69832   6.153   3.604   1.463 -0.0425  0.1136 -0.5808
23085SOL    HW169833   6.168   3.522   1.417 -2.3347 -0.8604  0.2456
23085SOL    HW269834   6.057   3.614   1.464  0.0480  1.5342  1.4370
23086SOL     OW69835   6.365   2.843   6.887  0.3589 -0.4077  0.2567
23086SOL    HW169836   6.419   2.919   6.869 -1.4494  0.6531 -1.0451
23086SOL    HW269837   6.386   2.819   6.978  0.3317  2.2084  1.0212
23087SOL     OW69838   0.609   3.856   2.176  0.1577 -0.4147 -0.4762
23087SOL    HW169839   0.638   3.805   2.101 -2.7972 -1.2857 -1.1761
23087SOL    HW269840   0.538   3.804   2.214  0.6284  0.6619  2.1219
23088SOL     OW69841   0.807   7.887   7.591 -0.2559  0.7451  0.3125
23088SOL    HW169842   0.748   7.818   7.622  1.4069  0.4664  3.2091
23088SOL    HW269843   0.891   7.843   7.577 -0.1371  1.5008 -1.7862
23089SOL     OW69844   1.512   6.836   7.850  0.3055 -0.3045  0.2567
23089SOL    HW169845   1.551   6.760   7.893  1.3050  0.9551  1.6825
23089SOL    HW269846   1.543   6.911   7.901 -2.2244  0.9400  0.1323
23090SOL     OW69847   4.647   5.212   9.391 -0.4114 -0.0393  0.2429
23090SOL    HW169848   4.595   5.138   9.358  0.0446 -0.3362  0.1650
23090SOL    HW269849   4.693   5.244   9.314  0.3174 -0.4506  0.4944
23091SOL     OW69850   6.180   2.146   3.583  0.4718 -0.2784  0.0987
23091SOL    HW169851   6.164   2.087   3.656 -1.1121  1.9348  1.6697
23091SOL    HW269852   6.244   2.209   3.615  1.9084 -0.8752 -1.4367
23092SOL     OW69853   6.753   3.361   5.061 -0.0003 -0.1461  0.2589
23092SOL    HW169854   6.710   3.444   5.040 -1.1465 -0.9038 -0.4936
23092SOL    HW269855   6.837   3.387   5.098 -0.1279  1.3458 -0.4102
23093SOL     OW69856   0.958   9.047   3.034  0.2068  0.0875  0.2337
23093SOL    HW169857   0.943   9.116   3.099  2.5009  0.7898  0.1134
23093SOL    HW269858   0.922   9.082   2.953 -0.4589  0.2581  0.5950
23094SOL     OW69859   6.966   2.672   5.695  0.1001 -0.6696  0.3002
23094SOL    HW169860   6.912   2.593   5.685 -0.8244 -0.0475  0.2305
23094SOL    HW269861   7.015   2.657   5.776  0.1000 -1.4034  0.1741
23095SOL     OW69862   4.542   1.539   8.491  0.3490 -0.1720 -0.2351
23095SOL    HW169863   4.567   1.602   8.558 -0.5660  0.3789 -0.3893
23095SOL    HW269864   4.615   1.538   8.429  1.2688 -0.7837  0.8139
23096SOL     OW69865   5.495   9.431   4.545 -0.0294 -0.1310 -0.2252
23096SOL    HW169866   5.566   9.487   4.576  1.6836 -2.1805 -0.2144
23096SOL    HW269867   5.491   9.448   4.451 -0.1181  0.6309 -0.0889
23097SOL     OW69868   9.021   4.895   8.610 -0.2391 -0.1808  0.1830
23097SOL    HW169869   9.075   4.887   8.532 -0.7582  0.7938 -0.2906
23097SOL    HW269870   8.979   4.980   8.602  0.6143  0.4978  2.1124
23098SOL     OW69871   3.353   0.182   8.744  0.6408  0.7400  0.3812
23098SOL    HW169872   3.391   0.156   8.660  0.5623  1.4533  0.1226
23098SOL    HW269873   3.396   0.126   8.808 -1.0739 -1.6326 -0.3760
23099SOL     OW69874   2.304   8.444   0.750  0.1563  0.4219 -0.3603
23099SOL    HW169875   2.285   8.513   0.686  0.4285  0.3436 -0.5237
23099SOL    HW269876   2.301   8.363   0.699 -2.5489  0.0389  0.2473
23100SOL     OW69877   9.391   6.696   2.050 -0.4588 -0.2276 -0.0242
23100SOL    HW169878   9.390   6.791   2.050 -1.1702 -0.2342 -0.3350
23100SOL    HW269879   9.363   6.671   1.962 -0.2826 -0.7286  0.0548
23101SOL     OW69880   8.529   0.845   2.699  0.0280 -0.4843  0.2827
23101SOL    HW169881   8.561   0.908   2.636 -1.0294 -1.4285 -1.2623
23101SOL    HW269882   8.607   0.799   2.729  0.3868 -1.5728 -2.1080
23102SOL     OW69883   1.836   6.287   3.669 -0.1190  0.0679 -0.0346
23102SOL    HW169884   1.751   6.262   3.632 -0.2511 -1.5945  1.2231
23102SOL    HW269885   1.892   6.302   3.594 -1.2662  0.2029 -0.8886
23103SOL     OW69886   7.741   6.070   3.952  0.5734  0.3579 -0.0183
23103SOL    HW169887   7.726   6.136   4.020 -1.7020 -0.0681 -0.0100
23103SOL    HW269888   7.826   6.092   3.915  1.5449  1.0626  2.4528
23104SOL     OW69889   2.159   7.429   3.755  0.0643  0.0016 -0.1389
23104SOL    HW169890   2.064   7.434   3.742 -0.1313  1.2344  1.4756
23104SOL    HW269891   2.191   7.381   3.679 -1.7390  0.4403 -1.2356
23105SOL     OW69892   7.387   1.406   1.673  0.0642  0.5882  0.0106
23105SOL    HW169893   7.474   1.444   1.659 -0.1229  1.1938  0.4614
23105SOL    HW269894   7.400   1.312   1.661  1.0892  0.5043  1.5613
23106SOL     OW69895   3.254   5.860   1.937  0.3144 -0.3796 -0.1928
23106SOL    HW169896   3.307   5.789   1.900 -0.9430 -1.6313  0.2761
23106SOL    HW269897   3.189   5.815   1.991 -0.6107  1.1423  0.0251
23107SOL     OW69898   7.555   1.335   7.701 -0.0697 -0.1520  0.2350
23107SOL    HW169899   7.641   1.352   7.739  0.0857  0.9509 -0.5690
23107SOL    HW269900   7.568   1.259   7.644  0.5467  0.4327 -0.4215
23108SOL     OW69901   0.951   9.437   8.716  0.3953 -0.2067  0.0148
23108SOL    HW169902   1.046   9.435   8.710  0.4655 -0.6096  1.0729
23108SOL    HW269903   0.930   9.530   8.721  0.6434 -0.0656 -1.2431
23109SOL     OW69904   5.307   7.967   6.140  0.3199  0.0345  0.0933
23109SOL    HW169905   5.332   7.877   6.119  0.5268  0.1479 -0.1580
23109SOL    HW269906   5.273   7.962   6.229  1.4177 -0.0951  0.5211
23110SOL     OW69907   2.051   5.970   9.030 -0.1233  0.5038 -0.4524
23110SOL    HW169908   2.052   6.057   8.988 -0.3417  0.1394 -1.2334
23110SOL    HW269909   2.117   5.920   8.982 -0.4992  0.0284 -0.4812
23111SOL     OW69910   4.720   4.408   2.266  0.2151 -0.1947 -0.0648
23111SOL    HW169911   4.674   4.485   2.234  0.9876  0.0069 -0.6945
23111SOL    HW269912   4.773   4.378   2.193  0.5622 -0.8414  0.4335
23112SOL     OW69913   0.550   9.213   2.524 -0.2149  0.6980  0.4753
23112SOL    HW169914   0.487   9.145   2.550 -0.3969  0.6502 -0.0752
23112SOL    HW269915   0.629   9.165   2.500 -0.5231  0.6399 -0.4351
23113SOL     OW69916   0.639   5.913   8.433  0.4651  0.0367  0.0441
23113SOL    HW169917   0.712   5.875   8.383 -0.7047 -0.1671 -1.5948
23113SOL    HW269918   0.654   6.007   8.428  1.9719 -0.0381  1.9258
23114SOL     OW69919   5.510   8.786   7.652  0.2297  0.6919 -0.8063
23114SOL    HW169920   5.505   8.703   7.700 -0.5535  1.4963  0.5796
23114SOL    HW269921   5.462   8.769   7.571  0.4157 -0.3113 -0.7252
23115SOL     OW69922   8.249   3.857   3.231  0.1769 -0.2623  0.3885
23115SOL    HW169923   8.310   3.902   3.172 -0.6517 -1.3459 -1.4004
23115SOL    HW269924   8.287   3.866   3.318  1.4876  1.3751 -0.3172
23116SOL     OW69925   3.601   6.155   1.979  0.0240  0.2651 -0.6104
23116SOL    HW169926   3.576   6.225   1.919 -0.7734 -0.5498 -1.2810
23116SOL    HW269927   3.682   6.184   2.019  0.1498  1.1913 -1.5041
23117SOL     OW69928   5.845   5.793   5.250 -0.2343 -0.3770 -0.2805
23117SOL    HW169929   5.922   5.736   5.253 -0.3950 -0.6233 -0.7340
23117SOL    HW269930   5.880   5.880   5.235  0.0470 -0.2756  0.9009
23118SOL     OW69931   1.031   7.641   0.307 -0.0755 -0.3772 -0.1508
23118SOL    HW169932   0.937   7.634   0.322 -0.3281  1.2179 -0.7359
23118SOL    HW269933   1.049   7.735   0.314  1.3501 -0.5811 -0.7419
23119SOL     OW69934   7.336   6.891   0.227  0.2779  0.2765  0.7055
23119SOL    HW169935   7.416   6.848   0.257  0.3298 -0.3386 -0.2494
23119SOL    HW269936   7.324   6.965   0.286  0.8338 -0.3778  1.6699
23120SOL     OW69937   3.518   2.519   5.120 -0.0013  0.5004  0.2913
23120SOL    HW169938   3.430   2.537   5.153  0.3123 -0.5737  1.8210
23120SOL    HW269939   3.551   2.450   5.177  1.6862  0.5956 -0.5179
23121SOL     OW69940   3.994   7.295   8.494 -0.4545 -0.7009 -0.0956
23121SOL    HW169941   4.051   7.261   8.563  0.0840  2.4403  1.1444
23121SOL    HW269942   3.909   7.254   8.512 -0.1238 -0.6057  1.9619
23122SOL     OW69943   7.303   0.121   1.981 -0.4107 -0.1624  0.2411
23122SOL    HW169944   7.375   0.102   2.041 -0.4907  1.3306  0.8644
23122SOL    HW269945   7.229   0.143   2.039 -0.5261  1.1824 -0.3664
23123SOL     OW69946   5.108   1.964   6.741  0.1784 -0.5585  0.3349
23123SOL    HW169947   5.084   1.995   6.828 -1.0157 -1.4848  0.3612
23123SOL    HW269948   5.179   1.901   6.756  1.4015  0.7951  0.4303
23124SOL     OW69949   8.388   5.637   0.160 -0.7599 -0.2377 -0.6190
23124SOL    HW169950   8.324   5.668   0.096 -2.5288  1.9134  1.9592
23124SOL    HW269951   8.385   5.702   0.231  3.5806 -0.5798  0.1738
23125SOL     OW69952   4.503   9.051   5.487 -0.1089  0.1450  0.0153
23125SOL    HW169953   4.531   8.961   5.468 -0.3777  0.3337 -1.3815
23125SOL    HW269954   4.571   9.086   5.544  1.0329 -0.3296 -1.0033
23126SOL     OW69955   7.765   1.929   8.254  0.2562 -0.0851 -0.5517
23126SOL    HW169956   7.707   1.972   8.316  0.8063  0.2184 -0.2431
23126SOL    HW269957   7.707   1.900   8.183 -0.4130 -0.6924  0.2352
23127SOL     OW69958   3.156   2.881   0.413 -0.3067 -0.5860  0.2562
23127SOL    HW169959   3.187   2.924   0.333 -0.2030  1.0413  1.1158
23127SOL    HW269960   3.076   2.835   0.387 -1.9910  2.3721 -0.2500
23128SOL     OW69961   0.878   3.135   4.216  0.3051  0.1956 -0.2113
23128SOL    HW169962   0.867   3.105   4.307  1.3320 -0.3270 -0.2472
23128SOL    HW269963   0.952   3.084   4.183  1.0726  1.6266 -0.7938
23129SOL     OW69964   2.961   9.492   4.814 -0.1838 -0.0578  0.1973
23129SOL    HW169965   3.036   9.492   4.874 -0.0676 -0.1916  0.0546
23129SOL    HW269966   2.939   9.585   4.803  0.4095  0.0382 -0.3086
23130SOL     OW69967   1.475   2.522   1.993  0.2790  0.7727 -0.0646
23130SOL    HW169968   1.525   2.496   2.070 -0.2158 -0.8640 -0.2558
23130SOL    HW269969   1.383   2.509   2.019  0.0919 -3.7505 -2.0794
23131SOL     OW69970   4.039   6.591   9.217 -0.2421 -0.1465 -0.9226
23131SOL    HW169971   3.992   6.534   9.156  0.3103 -1.9474  0.2771
23131SOL    HW269972   4.121   6.546   9.235  0.0584  0.8362  0.3687
23132SOL     OW69973   7.594   0.864   0.426 -0.1050  0.3169 -0.6503
23132SOL    HW169974   7.635   0.941   0.386  0.5692 -0.3744 -1.2954
23132SOL    HW269975   7.630   0.789   0.379 -0.5753 -0.4203  0.1289
23133SOL     OW69976   6.020   5.319   3.543 -0.2292 -0.3001  0.3154
23133SOL    HW169977   5.977   5.403   3.526 -2.2548 -1.0445  1.5163
23133SOL    HW269978   5.956   5.253   3.520  1.5588 -1.6165 -1.2229
23134SOL     OW69979   3.984   2.583   3.943 -0.1977 -0.0702 -0.8049
23134SOL    HW169980   4.043   2.550   4.010 -1.0325  0.0653  0.0281
23134SOL    HW269981   3.921   2.513   3.929 -1.3109  0.6855  0.1567
23135SOL     OW69982   9.297   9.625   9.663 -0.3135 -0.3660  0.7200
23135SOL    HW169983   9.211   9.587   9.648 -0.5832  0.6028 -0.3318
23135SOL    HW269984   9.283   9.719   9.661  0.7430 -0.1891  0.7253
23136SOL     OW69985   6.314   1.033   0.952 -0.0180 -0.0349 -0.5578
23136SOL    HW169986   6.329   1.127   0.954  2.5475 -0.3769 -0.7887
23136SOL    HW269987   6.219   1.024   0.957 -0.3191  2.5394 -0.3698
23137SOL     OW69988   2.494   8.576   4.003  0.1602 -0.2831  0.5034
23137SOL    HW169989   2.585   8.580   3.973 -0.4253  0.6706 -1.2812
23137SOL    HW269990   2.446   8.536   3.930 -0.8660 -0.7864  1.4226
23138SOL     OW69991   7.840   3.518   1.341  0.1331 -0.0858  0.0023
23138SOL    HW169992   7.746   3.530   1.351  0.3137  2.0345 -0.2669
23138SOL    HW269993   7.853   3.512   1.246  0.1271 -2.2196  0.1001
23139SOL     OW69994   0.424   2.989   5.540 -0.0466 -0.4326 -0.3141
23139SOL    HW169995   0.422   3.085   5.535 -2.0789 -0.4467 -0.4725
23139SOL    HW269996   0.425   2.970   5.634 -0.2169 -0.2623 -0.2778
23140SOL     OW69997   6.435   0.811   3.224 -0.5209 -0.0967 -0.3619
23140SOL    HW169998   6.516   0.835   3.179 -0.0358  2.2065  1.5554
23140SOL    HW269999   6.447   0.841   3.314 -3.0410 -0.8121  0.3067
23141SOL     OW70000   3.011   2.698   5.004 -0.2157  0.0288  0.8125
23141SOL    HW170001   2.941   2.669   5.063 -0.0288 -1.7374  0.2203
23141SOL    HW270002   2.975   2.687   4.916  0.5748 -0.2660  0.5140
23142SOL     OW70003   0.235   0.386   8.932  0.1270  0.2575 -0.1199
23142SOL    HW170004   0.185   0.440   8.993 -1.2464  0.6441 -1.5276
23142SOL    HW270005   0.267   0.447   8.866  0.4751 -0.3180 -0.4976
23143SOL     OW70006   4.378   5.865   9.336  0.4613  0.3166  0.4439
23143SOL    HW170007   4.403   5.900   9.422 -1.6077  0.0104  1.2250
23143SOL    HW270008   4.284   5.852   9.342  0.2935  0.1066 -1.8412
23144SOL     OW70009   9.731   3.858   1.625 -0.3857  0.5131  0.6312
23144SOL    HW170010   9.737   3.916   1.550  0.0694  0.7395  0.8369
23144SOL    HW270011   9.693   3.912   1.695  2.4577  1.4047  1.6194
23145SOL     OW70012   0.513   4.931   9.021  0.7464  0.1706 -0.2073
23145SOL    HW170013   0.466   4.847   9.019  1.1066 -0.1053  1.4678
23145SOL    HW270014   0.508   4.959   9.112  0.5689  2.0404 -0.7502
23146SOL     OW70015   7.657   3.023   9.904 -0.3760  0.4532 -0.1817
23146SOL    HW170016   7.723   3.077   9.948  1.3084  0.0453 -2.1074
23146SOL    HW270017   7.654   2.943   9.956  1.2464  0.1531 -0.4998
23147SOL     OW70018   9.349   2.767   5.965 -0.4950  0.3791 -0.8145
23147SOL    HW170019   9.300   2.708   6.022 -0.8383  1.5622  0.1484
23147SOL    HW270020   9.423   2.796   6.017 -0.9585  1.6936 -0.8351
23148SOL     OW70021   0.990   9.665   3.230 -0.1240 -0.3479  0.1772
23148SOL    HW170022   0.979   9.739   3.170  0.0473 -0.1347  0.4067
23148SOL    HW270023   0.933   9.686   3.304  0.5717 -0.0341  0.6256
23149SOL     OW70024   9.140   0.377   3.766  0.0273 -0.3110  0.1641
23149SOL    HW170025   9.106   0.430   3.837  0.4285 -1.5939  1.3652
23149SOL    HW270026   9.232   0.361   3.789  0.1035 -0.9437 -0.5178
23150SOL     OW70027   2.957   0.736   0.498  0.6303 -0.1386 -0.2677
23150SOL    HW170028   2.880   0.686   0.470  0.8649 -0.0140 -1.1514
23150SOL    HW270029   2.988   0.691   0.576 -0.6093  0.0766  0.3647
23151SOL     OW70030   2.480   6.663   4.854  0.3184  0.1228  0.0158
23151SOL    HW170031   2.483   6.718   4.932  1.3781  1.1767 -0.7285
23151SOL    HW270032   2.400   6.691   4.808  0.8652  1.0939 -0.3738
23152SOL     OW70033   4.902   1.884   4.394  0.5639  0.0624  0.1370
23152SOL    HW170034   4.911   1.838   4.477  0.2861 -2.0829 -0.9668
23152SOL    HW270035   4.904   1.977   4.418 -0.7775 -0.4813  2.6499
23153SOL     OW70036   0.408   1.322   2.700  0.8537  0.2149 -0.3383
23153SOL    HW170037   0.386   1.232   2.675  2.5391 -0.8354  1.6660
23153SOL    HW270038   0.348   1.342   2.772  1.1373  0.3264 -0.1328
23154SOL     OW70039   9.343   4.547   4.622 -0.2301  0.2252 -0.1381
23154SOL    HW170040   9.418   4.604   4.639 -0.0379  0.3902 -1.4055
23154SOL    HW270041   9.266   4.602   4.638 -0.0748  0.2039  0.6869
23155SOL     OW70042   7.279   7.109   8.881  0.0283 -0.3798 -0.5232
23155SOL    HW170043   7.332   7.113   8.960 -0.5576  0.4465 -0.1486
23155SOL    HW270044   7.263   7.016   8.867  1.4481 -0.6400 -0.5828
23156SOL     OW70045   8.873   1.766   8.645 -0.6229  0.5350  0.0574
23156SOL    HW170046   8.936   1.830   8.613  0.3160  0.1120  1.0250
23156SOL    HW270047   8.926   1.695   8.681 -1.5898 -1.3905 -2.0438
23157SOL     OW70048   0.246   6.543   7.437  0.7979  0.0552  0.2473
23157SOL    HW170049   0.283   6.602   7.502  0.4620  1.6863 -0.9560
23157SOL    HW270050   0.300   6.465   7.441  0.8403  0.1522  2.3867
23158SOL     OW70051   8.004   9.117   0.991  0.2071 -0.3476  0.0683
23158SOL    HW170052   8.080   9.069   1.023 -0.9199 -1.5772  1.0258
23158SOL    HW270053   8.020   9.208   1.017  0.3205 -0.9579  2.2990
23159SOL     OW70054   4.999   4.282   9.704 -0.3461 -0.8061  0.4349
23159SOL    HW170055   4.936   4.245   9.642 -1.0896 -0.6146  1.0645
23159SOL    HW270056   5.070   4.219   9.707 -0.1653 -0.6790 -0.8272
23160SOL     OW70057   1.877   3.229   7.384 -0.0769  0.1878  0.8094
23160SOL    HW170058   1.946   3.185   7.335  0.8535  2.9118 -0.5669
23160SOL    HW270059   1.922   3.266   7.461 -0.5132 -0.0294  1.1703
23161SOL     OW70060   1.801   6.110   4.896 -0.3313  0.5862  0.0645
23161SOL    HW170061   1.774   6.019   4.902 -0.2999  0.5374 -0.4777
23161SOL    HW270062   1.726   6.160   4.929 -0.8346  0.4185 -0.8094
23162SOL     OW70063   2.173   2.865   7.052  0.0381  0.1618 -0.1455
23162SOL    HW170064   2.148   2.781   7.014  2.2203 -1.9487  2.5892
23162SOL    HW270065   2.262   2.881   7.019  0.3341  0.4439  0.7614
23163SOL     OW70066   7.577   8.809   2.994 -0.0073  0.7414  0.1987
23163SOL    HW170067   7.582   8.757   3.074  0.8531 -0.1793 -0.4413
23163SOL    HW270068   7.668   8.832   2.974 -0.2385  1.1992 -0.3776
23164SOL     OW70069   4.277   5.675   8.462 -0.0780  0.0226  0.0022
23164SOL    HW170070   4.310   5.600   8.412  2.2683  0.2523  1.0557
23164SOL    HW270071   4.345   5.692   8.527 -1.0170  2.4383  0.4638
23165SOL     OW70072   8.993   3.815   9.511 -0.5177 -0.0394  0.3079
23165SOL    HW170073   8.930   3.749   9.540 -0.0093 -0.5701  0.2234
23165SOL    HW270074   8.954   3.899   9.539 -0.9577 -0.4002  0.8091
23166SOL     OW70075   3.843   0.693   6.272 -0.3080  0.3601 -0.1111
23166SOL    HW170076   3.936   0.713   6.265 -0.6714  2.0268 -0.7942
23166SOL    HW270077   3.814   0.739   6.351 -1.0207  2.0382 -1.2863
23167SOL     OW70078   3.041   9.269   9.096  0.2227  0.1105  0.2359
23167SOL    HW170079   2.960   9.290   9.051  0.9340 -0.2228 -1.2617
23167SOL    HW270080   3.019   9.274   9.189 -0.9750  2.1088 -0.0904
23168SOL     OW70081   0.046   5.858   0.472 -0.3424  0.8039 -0.2685
23168SOL    HW170082   0.136   5.890   0.473 -0.1494  0.2668  0.4278
23168SOL    HW270083   0.005   5.899   0.548 -0.4366  0.3611 -0.0779
23169SOL     OW70084   5.437   5.521   5.449  0.0325  0.3728  0.4759
23169SOL    HW170085   5.394   5.597   5.489 -0.3593 -0.2182  1.1937
23169SOL    HW270086   5.371   5.452   5.450  0.0334  0.2942 -1.1297
23170SOL     OW70087   2.512   6.888   0.792 -0.1737 -0.8339  0.5257
23170SOL    HW170088   2.458   6.967   0.783  0.3125 -0.5600 -0.0460
23170SOL    HW270089   2.511   6.848   0.706 -0.8250 -1.7377  0.9354
23171SOL     OW70090   0.422   6.628   1.150 -0.4699  0.3121 -0.3745
23171SOL    HW170091   0.476   6.706   1.164 -0.7868  0.4449  0.1168
23171SOL    HW270092   0.360   6.653   1.082  1.2515 -0.4218 -2.3133
23172SOL     OW70093   5.136   9.920   4.086  0.1198 -0.1473 -0.0343
23172SOL    HW170094   5.073   9.983   4.121 -0.0388  0.2878 -1.0774
23172SOL    HW270095   5.140   9.939   3.992 -0.8036 -2.4341 -0.6055
23173SOL     OW70096   6.268   7.815   3.366  0.2826 -0.3447 -0.0518
23173SOL    HW170097   6.243   7.735   3.412 -0.8606 -1.6324 -2.6628
23173SOL    HW270098   6.348   7.791   3.319 -0.4557 -0.2515 -1.4197
23174SOL     OW70099   4.010   5.210   6.994 -0.1016  0.5498  0.0105
23174SOL    HW170100   4.023   5.115   6.999 -2.0160  0.1918 -1.0311
23174SOL    HW270101   4.037   5.242   7.080 -0.2865 -1.0588  0.7050
23175SOL     OW70102   1.788   9.288   9.466  0.2494  0.1128  0.5764
23175SOL    HW170103   1.694   9.302   9.477  0.3010 -0.1006  1.2983
23175SOL    HW270104   1.805   9.203   9.505  0.6682 -0.0606  0.0318
23176SOL     OW70105   7.610   0.395   2.074 -0.0033 -0.0420  0.0131
23176SOL    HW170106   7.589   0.326   2.011  0.5639 -1.5279  1.4129
23176SOL    HW270107   7.701   0.380   2.098  1.4229  3.4201 -2.3353
23177SOL     OW70108   7.956   6.781   5.974  0.1955  0.1152 -0.1500
23177SOL    HW170109   8.034   6.770   6.028  0.9341  1.0585 -0.9871
23177SOL    HW270110   7.968   6.719   5.902  0.2617  0.3939 -0.3785
23178SOL     OW70111   9.423   1.923   5.819 -0.3138 -0.0691 -0.5191
23178SOL    HW170112   9.403   1.852   5.879  3.1924  0.0637  1.0373
23178SOL    HW270113   9.404   2.003   5.869 -0.5277  0.0647 -0.8113
23179SOL     OW70114   6.237   4.067   9.410 -0.8702 -0.3265  0.6234
23179SOL    HW170115   6.303   4.107   9.465 -1.7379  0.6457  0.9936
23179SOL    HW270116   6.285   4.005   9.355  0.5922  1.4783 -0.2404
23180SOL     OW70117   4.044   9.576   8.267 -0.2497  0.0671  0.3051
23180SOL    HW170118   4.108   9.629   8.220 -0.6948  0.3348 -0.0065
23180SOL    HW270119   4.004   9.520   8.200  0.4692 -0.9360  0.6864
23181SOL     OW70120   3.308   4.779   8.011  0.2674 -0.0741  0.3188
23181SOL    HW170121   3.292   4.858   7.959  0.9361 -0.2474 -0.1739
23181SOL    HW270122   3.400   4.787   8.038  1.0743 -1.7202 -1.6304
23182SOL     OW70123   9.422   1.734   9.774 -0.3688 -0.3465  0.2136
23182SOL    HW170124   9.401   1.667   9.839 -1.0372  0.4744  0.8664
23182SOL    HW270125   9.499   1.701   9.729  0.4410 -0.6838  1.7909
23183SOL     OW70126   4.352   7.824   4.343  0.9910  0.6686  0.5665
23183SOL    HW170127   4.345   7.897   4.404  1.1680 -1.1788  2.9110
23183SOL    HW270128   4.280   7.838   4.281  1.3616  3.0933  0.5862
23184SOL     OW70129   9.647   0.555   3.992  0.1364  0.1449 -0.2517
23184SOL    HW170130   9.656   0.638   3.945  1.2277  0.5528  0.6239
23184SOL    HW270131   9.576   0.570   4.054 -0.3545  0.0728 -0.7882
23185SOL     OW70132   7.048   7.161   6.461  0.6920  0.7406  0.4008
23185SOL    HW170133   6.959   7.164   6.427  0.9186 -0.6749 -0.4126
23185SOL    HW270134   7.101   7.199   6.392  1.0531 -1.3513 -0.5533
23186SOL     OW70135   6.529   5.987   2.387  0.3145 -0.4638  0.2113
23186SOL    HW170136   6.519   5.909   2.332 -1.5885  1.1096 -1.9021
23186SOL    HW270137   6.520   5.955   2.476 -0.8250 -2.6139 -0.6020
23187SOL     OW70138   4.148   6.212   9.054  0.3386  0.6973  0.5105
23187SOL    HW170139   4.211   6.186   8.986 -0.2115 -1.5289  0.7853
23187SOL    HW270140   4.173   6.160   9.131 -2.3801 -1.0792  0.3431
23188SOL     OW70141   6.914   2.609   0.917  0.2464  0.1065  0.7548
23188SOL    HW170142   6.851   2.537   0.904  0.0910 -0.0421  2.1814
23188SOL    HW270143   6.859   2.687   0.924  0.3032  0.1354  0.8704
23189SOL     OW70144   0.709   3.667   4.655  0.1880  0.2526  0.1584
23189SOL    HW170145   0.739   3.756   4.640 -1.0793  0.9417  1.5033
23189SOL    HW270146   0.753   3.640   4.735 -0.5452  0.2276  0.5649
23190SOL     OW70147   3.780   2.919   0.439 -0.5006  0.0866  0.1404
23190SOL    HW170148   3.787   2.974   0.517  0.4234 -0.5601  0.5283
23190SOL    HW270149   3.780   2.829   0.473  1.3691 -0.2498 -0.6657
23191SOL     OW70150   0.953   4.892   2.722 -0.3914  0.4617  0.1875
23191SOL    HW170151   0.951   4.843   2.640  0.1649  0.6736  0.0464
23191SOL    HW270152   1.022   4.850   2.774 -1.0444  0.0429  0.7261
23192SOL     OW70153   6.483   2.627   8.274 -0.3918  0.0047 -0.5276
23192SOL    HW170154   6.467   2.695   8.208 -0.7206  0.6895  0.2419
23192SOL    HW270155   6.550   2.571   8.235  0.0675  0.9159 -1.0796
23193SOL     OW70156   5.951   0.683   8.700  0.4907  0.5238 -0.3844
23193SOL    HW170157   5.914   0.764   8.664 -1.3892 -0.5908 -1.0637
23193SOL    HW270158   5.876   0.625   8.710  1.7323 -0.9793  0.5868
23194SOL     OW70159   2.996   0.817   1.746  0.0377 -0.3490  0.1704
23194SOL    HW170160   2.991   0.910   1.724 -0.9898 -0.4296 -0.0011
23194SOL    HW270161   3.090   0.799   1.755  0.4618  0.0197 -2.7054
23195SOL     OW70162   1.087   6.249   3.623  0.0337  0.2857 -0.0997
23195SOL    HW170163   1.086   6.343   3.640 -1.6927  0.0772  1.2283
23195SOL    HW270164   1.058   6.209   3.705 -0.1649 -1.3524 -0.9221
23196SOL     OW70165   9.755   9.772   0.658  0.4010  0.3430 -0.5176
23196SOL    HW170166   9.788   9.778   0.747  1.9685  1.7657 -1.1544
23196SOL    HW270167   9.664   9.801   0.664  0.8766  1.7092  0.4202
23197SOL     OW70168   5.162   6.499   8.453  0.6586 -0.5033  0.2044
23197SOL    HW170169   5.215   6.551   8.392  0.5037 -0.6429 -0.0449
23197SOL    HW270170   5.083   6.477   8.404  2.2786 -4.2655 -1.1111
23198SOL     OW70171   6.446   3.103   4.720  0.4061 -0.4464  0.2844
23198SOL    HW170172   6.531   3.103   4.763  0.1123 -2.8143  1.0405
23198SOL    HW270173   6.385   3.071   4.788 -0.8280 -0.1426 -0.6421
23199SOL     OW70174   9.968   9.483   4.621  0.2245 -0.4863 -0.2469
23199SOL    HW170175   9.942   9.433   4.545 -2.9065 -1.4661  1.3019
23199SOL    HW270176   9.937   9.572   4.603  0.1145 -0.5525 -0.3833
23200SOL     OW70177   4.662   1.354   0.770 -0.0888 -0.1553  0.4570
23200SOL    HW170178   4.623   1.305   0.698 -2.5428 -2.4612  3.0927
23200SOL    HW270179   4.607   1.433   0.778  0.7635  0.5842 -0.6766
23201SOL     OW70180   6.334   5.000   2.319  0.5123  0.6114 -1.1155
23201SOL    HW170181   6.261   4.990   2.380  2.0573 -1.2520  0.5610
23201SOL    HW270182   6.343   5.095   2.308  0.8209  1.1714  2.5274
23202SOL     OW70183   5.403   4.185   8.759  0.1092 -0.8171  0.3048
23202SOL    HW170184   5.356   4.267   8.748  0.3317 -0.3421  2.4772
23202SOL    HW270185   5.440   4.190   8.847  0.4702 -3.0793  0.3418
23203SOL     OW70186   2.687   1.721   3.170  0.2845 -0.2598 -0.6412
23203SOL    HW170187   2.758   1.665   3.202  1.0046  0.8774 -0.2265
23203SOL    HW270188   2.727   1.774   3.101 -0.8091 -1.4121 -2.2685
23204SOL     OW70189   8.417   5.430   2.938  0.6291  0.1863 -0.1441
23204SOL    HW170190   8.510   5.449   2.949  0.2538  2.9070 -1.0326
23204SOL    HW270191   8.374   5.481   3.007 -0.2872 -0.1520 -0.4526
23205SOL     OW70192   4.519   9.179   5.957 -0.0740  0.3030  0.0384
23205SOL    HW170193   4.554   9.243   5.896 -0.7076  0.0759 -0.5722
23205SOL    HW270194   4.425   9.194   5.957 -0.1317 -0.0238  0.5911
23206SOL     OW70195   2.367   6.186   3.470  0.0308 -0.3241  0.6401
23206SOL    HW170196   2.386   6.189   3.376 -0.3017 -0.2221  0.5750
23206SOL    HW270197   2.427   6.250   3.508 -0.3591  0.1996  0.4008
23207SOL     OW70198   8.225   4.517   6.479 -0.4344  0.1041 -0.4587
23207SOL    HW170199   8.180   4.549   6.557 -0.6632 -0.9456 -0.1458
23207SOL    HW270200   8.282   4.447   6.512  1.9733  1.8129 -0.7127
23208SOL     OW70201   5.189   7.448   3.186  0.3467  0.2492  0.5825
23208SOL    HW170202   5.276   7.434   3.149  0.2655  0.8265  0.1681
23208SOL    HW270203   5.130   7.406   3.124  0.1798  1.5388 -0.1662
23209SOL     OW70204   6.336   2.915   3.155  0.8838  0.0097  0.3702
23209SOL    HW170205   6.425   2.891   3.129  0.5485 -0.2828 -0.5355
23209SOL    HW270206   6.325   2.875   3.242  0.3842 -3.1284 -1.0141
23210SOL     OW70207   1.301   6.789   5.305 -0.5014 -0.4736  0.2863
23210SOL    HW170208   1.356   6.713   5.325  0.7807  1.0114  3.0307
23210SOL    HW270209   1.363   6.862   5.297 -1.8154  0.5966 -0.6531
23211SOL     OW70210   6.465   3.257   3.139 -0.1156  0.1002  0.3976
23211SOL    HW170211   6.390   3.235   3.085  0.2493  0.9627 -0.4854
23211SOL    HW270212   6.541   3.240   3.083  0.3877 -1.0114  1.3625
23212SOL     OW70213   6.227   0.468   9.955  0.3551  0.1603 -0.0310
23212SOL    HW170214   6.162   0.532   9.927  1.3980  0.1783 -2.7325
23212SOL    HW270215   6.185   0.383   9.939  1.0537  0.1640 -2.1958
23213SOL     OW70216   4.142   5.338   5.269  0.2814 -0.5745  0.4172
23213SOL    HW170217   4.149   5.250   5.234  0.1183 -0.7826  0.8955
23213SOL    HW270218   4.227   5.378   5.253 -0.6273  0.3770 -2.9104
23214SOL     OW70219   4.080   1.865   7.577  0.1158  0.5038  0.3389
23214SOL    HW170220   4.071   1.884   7.670  2.1270 -1.9453  1.1465
23214SOL    HW270221   4.127   1.782   7.574  1.1094  1.0435 -2.8838
23215SOL     OW70222   3.566   6.625   9.789 -0.2542  0.3645 -0.2590
23215SOL    HW170223   3.571   6.642   9.883  0.7151  0.8289 -0.3820
23215SOL    HW270224   3.555   6.530   9.783  0.4617  0.2297  0.3187
23216SOL     OW70225   5.308   8.842   9.439  0.4169  0.0698  0.2982
23216SOL    HW170226   5.328   8.767   9.382 -0.6483 -0.0563  0.0729
23216SOL    HW270227   5.375   8.838   9.508  3.0505  1.4395 -2.0129
23217SOL     OW70228   3.887   4.873   9.959 -0.2574 -0.5351 -0.1464
23217SOL    HW170229   3.834   4.942   9.998  0.4046 -0.3705  0.4928
23217SOL    HW270230   3.826   4.801   9.943 -0.2252 -1.5199  3.3569
23218SOL     OW70231   1.671   3.458   6.961  0.4700  0.9610 -0.3754
23218SOL    HW170232   1.686   3.546   6.927  1.5113  1.0229  0.1843
23218SOL    HW270233   1.759   3.424   6.978  0.1535 -0.5904 -1.5781
23219SOL     OW70234   1.548   5.245   8.567  0.2891 -0.1518 -0.5374
23219SOL    HW170235   1.625   5.227   8.513  0.6352  2.9517 -1.2630
23219SOL    HW270236   1.563   5.194   8.647  2.4749 -0.6205 -1.1718
23220SOL     OW70237   0.528   4.792   7.740 -0.3731  0.3865 -0.3269
23220SOL    HW170238   0.477   4.719   7.703 -2.1914  1.1821  0.4917
23220SOL    HW270239   0.523   4.779   7.835  0.9519  0.5165 -0.2241
23221SOL     OW70240   3.634   0.295   8.907  0.0578 -0.3793  0.4218
23221SOL    HW170241   3.667   0.333   8.988 -0.7877 -0.0261  0.6096
23221SOL    HW270242   3.614   0.204   8.930 -0.8556 -0.0955  0.8227
23222SOL     OW70243   5.857   2.357   0.652  0.2832  0.8524 -0.1492
23222SOL    HW170244   5.814   2.345   0.567 -0.7126  0.3654  0.4108
23222SOL    HW270245   5.839   2.448   0.675 -1.4820  0.3590  0.6049
23223SOL     OW70246   1.720   7.892   7.744 -0.0544  0.2335  0.2785
23223SOL    HW170247   1.728   7.869   7.651 -0.5445 -0.6786  0.4508
23223SOL    HW270248   1.636   7.854   7.771 -0.4531  1.4558  0.8235
23224SOL     OW70249   2.788   6.521   2.866 -0.3942  0.3516 -0.1040
23224SOL    HW170250   2.822   6.599   2.909  1.1423 -0.4434  0.2194
23224SOL    HW270251   2.798   6.538   2.772  1.1940  0.0541 -0.0152
23225SOL     OW70252   8.633   8.392   1.765  0.2596  0.4910 -0.3980
23225SOL    HW170253   8.574   8.459   1.799 -1.3629 -1.2974  0.5046
23225SOL    HW270254   8.634   8.324   1.833  2.0138 -0.3167 -1.1703
23226SOL     OW70255   4.284   8.704   7.414  0.1894  0.2205  0.3039
23226SOL    HW170256   4.207   8.698   7.358 -2.1900  1.9851  3.0906
23226SOL    HW270257   4.334   8.778   7.379 -1.1579  1.1921  0.3801
23227SOL     OW70258   3.208   7.308   5.038  0.3537  0.5684 -0.0405
23227SOL    HW170259   3.255   7.376   5.086  0.9257 -0.0619  0.3027
23227SOL    HW270260   3.129   7.352   5.005  0.8478  1.4654 -0.0556
23228SOL     OW70261   8.865   1.312   6.209 -0.1680 -0.1531 -0.2014
23228SOL    HW170262   8.925   1.319   6.283 -0.4398 -2.7430  0.3397
23228SOL    HW270263   8.785   1.356   6.238 -0.4649 -1.6096  1.3107
23229SOL     OW70264   0.344   6.601   2.142  0.0427  0.0483  0.2597
23229SOL    HW170265   0.438   6.594   2.157 -0.1889 -1.9677  1.0839
23229SOL    HW270266   0.323   6.693   2.158  2.0455  0.8170 -1.1856
23230SOL     OW70267   1.108   2.449   8.209  0.0901 -0.1615 -0.1988
23230SOL    HW170268   1.070   2.423   8.125  0.3399 -0.0058 -0.3614
23230SOL    HW270269   1.124   2.543   8.200 -0.5860  0.0103  0.2977
23231SOL     OW70270   2.401   8.663   4.577 -0.3125  0.5881  0.4853
23231SOL    HW170271   2.357   8.658   4.662 -0.6335  1.2376  0.3666
23231SOL    HW270272   2.356   8.735   4.531 -5.3142 -4.0434 -3.1577
23232SOL     OW70273   0.543   7.854   0.897  0.3057 -0.0914  0.1748
23232SOL    HW170274   0.621   7.799   0.887  0.7177  0.3447  0.9213
23232SOL    HW270275   0.485   7.827   0.825  1.3830 -0.0058 -0.7396
23233SOL     OW70276   8.613   2.168   7.440 -0.4989  0.0345  0.0283
23233SOL    HW170277   8.668   2.104   7.484  0.0058  0.8409  0.6035
23233SOL    HW270278   8.643   2.167   7.349  0.5007  0.4627  0.3333
23234SOL     OW70279   1.378   0.377   7.153 -0.6868 -0.3135  0.4135
23234SOL    HW170280   1.399   0.446   7.091 -1.2854  1.5863  2.2083
23234SOL    HW270281   1.381   0.296   7.101  0.1551  1.0135 -1.7363
23235SOL     OW70282   3.945   5.693   4.700 -0.4033  0.2790 -0.6259
23235SOL    HW170283   3.904   5.741   4.629 -0.9048  1.3348  0.3421
23235SOL    HW270284   3.933   5.749   4.777 -0.6926 -1.2276  0.4710
23236SOL     OW70285   3.635   9.164   4.734 -0.0638  0.2896  0.1155
23236SOL    HW170286   3.681   9.102   4.677  0.5847  1.4580 -0.6825
23236SOL    HW270287   3.589   9.222   4.673 -1.2652  0.1572  0.8663
23237SOL     OW70288   7.169   9.132   5.450 -0.6941  0.1784 -0.6624
23237SOL    HW170289   7.141   9.045   5.421  1.1536 -1.2166  1.4228
23237SOL    HW270290   7.251   9.147   5.405  0.1172 -0.1991  0.6291
23238SOL     OW70291   9.777   1.909   3.966 -0.1399  0.1742  0.1280
23238SOL    HW170292   9.862   1.870   3.991 -0.9350 -0.6311  1.7276
23238SOL    HW270293   9.796   1.957   3.885  2.0461  0.7637  0.9122
23239SOL     OW70294   3.200   0.051   8.041 -0.4807 -0.2358  0.2446
23239SOL    HW170295   3.111   0.049   8.076  0.1013 -0.4584  1.7832
23239SOL    HW270296   3.257   0.046   8.118  0.8771  0.2888 -0.6701
23240SOL     OW70297   3.203   0.507   5.373 -0.4464  0.2251  0.0551
23240SOL    HW170298   3.251   0.482   5.294  1.2363 -0.2982  1.1847
23240SOL    HW270299   3.155   0.427   5.398  1.7671 -0.7578  1.4334
23241SOL     OW70300   0.786   2.210   3.763 -0.2490  1.1635  0.5284
23241SOL    HW170301   0.844   2.209   3.687  1.9796 -0.2086  2.0944
23241SOL    HW270302   0.771   2.302   3.781 -1.7953  1.5229 -2.1881
23242SOL     OW70303   2.986   6.237   3.151  0.5173 -0.2861  0.1809
23242SOL    HW170304   3.042   6.303   3.193 -0.1311 -0.9051  2.1083
23242SOL    HW270305   2.945   6.190   3.223  0.6873 -2.6156 -1.1195
23243SOL     OW70306   1.033   3.308   6.285  0.5446 -1.0462 -0.0698
23243SOL    HW170307   1.098   3.337   6.350 -0.5591 -1.3177  1.1926
23243SOL    HW270308   0.971   3.380   6.278  1.1687 -0.6072 -1.6003
23244SOL     OW70309   7.727   3.495   6.671 -0.1275 -0.2474  0.0915
23244SOL    HW170310   7.671   3.418   6.661 -1.1650  0.4766  0.2234
23244SOL    HW270311   7.804   3.462   6.719 -1.7129 -0.6956  2.5049
23245SOL     OW70312   0.911   6.677   9.944  0.1117  0.3419  0.4809
23245SOL    HW170313   0.988   6.724   9.912 -1.0694  2.4455  0.5164
23245SOL    HW270314   0.945   6.616  10.009  1.8052  0.8319  0.1007
23246SOL     OW70315   7.718   6.364   4.395  0.5863 -0.5841 -0.1351
23246SOL    HW170316   7.738   6.375   4.302  0.5458  0.1352 -0.0641
23246SOL    HW270317   7.803   6.357   4.438  0.8165  2.7978  0.2072
23247SOL     OW70318   3.136   0.142   7.633 -0.0742 -0.4383  0.3946
23247SOL    HW170319   3.047   0.173   7.652  0.4720  1.6819 -0.3449
23247SOL    HW270320   3.122   0.068   7.573 -1.3416 -0.1597  0.3006
23248SOL     OW70321   5.817   6.905   2.924 -0.1171  0.2003 -0.1822
23248SOL    HW170322   5.726   6.921   2.900 -0.0628  0.1772 -0.4037
23248SOL    HW270323   5.820   6.812   2.947 -0.6545  0.6830  2.0866
23249SOL     OW70324   3.484   1.309   5.786 -0.2521 -0.1181 -0.6737
23249SOL    HW170325   3.394   1.305   5.819  0.6897 -2.4501  1.8928
23249SOL    HW270326   3.528   1.233   5.824  3.1676  1.5821 -0.8310
23250SOL     OW70327   4.480   3.834   5.051 -0.5333  0.4141  0.3438
23250SOL    HW170328   4.505   3.922   5.080  0.0448  0.1548  0.6430
23250SOL    HW270329   4.556   3.802   5.003 -0.6167 -0.0475  0.5158
23251SOL     OW70330   2.634   2.054   8.549  0.6061 -0.6631  0.2794
23251SOL    HW170331   2.582   2.109   8.608  1.0878  1.4933 -1.1783
23251SOL    HW270332   2.575   2.036   8.476  1.0515 -0.4678 -0.1340
23252SOL     OW70333   8.451   0.688   7.210 -0.3642 -0.2609  0.5036
23252SOL    HW170334   8.377   0.693   7.270 -1.8521  1.8220 -1.3085
23252SOL    HW270335   8.527   0.711   7.263 -1.3694 -0.1595  1.9420
23253SOL     OW70336   4.538   8.259   0.040  0.1386 -0.0575 -0.4623
23253SOL    HW170337   4.445   8.250   0.064 -0.0941 -0.9994 -1.6553
23253SOL    HW270338   4.537   8.288  -0.051  1.0239 -0.7507 -0.7023
23254SOL     OW70339   1.933   8.342   4.784  0.0857  0.0940  0.3083
23254SOL    HW170340   1.939   8.265   4.840 -1.3674 -0.3661 -0.1231
23254SOL    HW270341   1.871   8.400   4.829 -0.1676  0.2431 -0.2229
23255SOL     OW70342   7.774   2.575   3.872 -0.2713  0.2330 -0.3838
23255SOL    HW170343   7.750   2.484   3.894  0.1658  0.3558  0.6730
23255SOL    HW270344   7.851   2.566   3.816  1.1579 -0.0453  1.5061
23256SOL     OW70345   5.036   3.433   5.147 -0.0438 -0.6022 -0.5133
23256SOL    HW170346   4.972   3.459   5.082  0.9700 -0.6692 -1.5686
23256SOL    HW270347   4.992   3.446   5.231 -0.9546  0.6505 -1.1591
23257SOL     OW70348   3.485   1.987   3.272 -0.3892  0.3417  0.1289
23257SOL    HW170349   3.542   2.063   3.260  0.3023 -0.3073 -0.9274
23257SOL    HW270350   3.545   1.912   3.276 -1.1427 -0.4596 -1.8934
23258SOL     OW70351   7.660   5.545   3.174  0.5410  0.7503  0.0562
23258SOL    HW170352   7.731   5.609   3.175  0.2051  1.1291 -0.3742
23258SOL    HW270353   7.705   5.460   3.169  0.9511  1.0254 -1.4629
23259SOL     OW70354   2.218   2.302   6.513  0.0124  0.0224  0.6716
23259SOL    HW170355   2.204   2.253   6.594 -0.3154 -0.7830  0.1377
23259SOL    HW270356   2.154   2.267   6.452  0.9644 -0.1333 -0.2644
23260SOL     OW70357   5.063   3.815   9.235  0.1468 -0.4555  0.0914
23260SOL    HW170358   5.093   3.773   9.316  0.3762 -2.1602 -0.8507
23260SOL    HW270359   5.142   3.855   9.199  0.4281 -1.2909 -0.2268
23261SOL     OW70360   4.813   9.295   4.727 -0.3638 -0.7418 -0.3118
23261SOL    HW170361   4.766   9.230   4.675 -1.1145 -1.2602  0.9659
23261SOL    HW270362   4.811   9.374   4.674 -0.2129 -1.5097 -1.5087
23262SOL     OW70363   1.899   9.854   1.604 -0.6226 -0.3408 -0.0788
23262SOL    HW170364   1.939   9.807   1.531 -0.0786 -0.3770  0.2393
23262SOL    HW270365   1.806   9.834   1.596 -0.6024 -0.1643 -0.8956
23263SOL     OW70366   8.462   3.149   5.863 -0.2157  0.3521 -0.4144
23263SOL    HW170367   8.462   3.087   5.790 -2.2050  0.2542 -0.4090
23263SOL    HW270368   8.445   3.234   5.822  3.1259  1.1058 -0.4949
23264SOL     OW70369   5.542   9.070   2.367 -0.2854  0.2407 -0.5790
23264SOL    HW170370   5.621   9.121   2.386  0.6145 -0.5821 -1.9257
23264SOL    HW270371   5.499   9.117   2.297  0.5159 -0.7613 -1.7855
23265SOL     OW70372   2.761   0.736   4.111 -0.6654  0.4197  0.4858
23265SOL    HW170373   2.763   0.714   4.018  0.9232  1.0225  0.3271
23265SOL    HW270374   2.688   0.797   4.120 -1.2952 -0.2183 -0.2166
23266SOL     OW70375   9.506   9.297   1.010 -0.0282  0.2760 -0.4924
23266SOL    HW170376   9.441   9.355   0.971 -0.9287 -1.3792 -1.5894
23266SOL    HW270377   9.547   9.254   0.934  2.0956  0.9833  0.1906
23267SOL     OW70378   6.398   0.263   5.613 -0.0341 -0.1387 -0.4503
23267SOL    HW170379   6.367   0.306   5.693  0.6910 -0.6890  0.1387
23267SOL    HW270380   6.370   0.172   5.622  2.6504 -0.9375  0.6457
23268SOL     OW70381   0.017   6.166   5.378  0.1185  0.4103 -0.4578
23268SOL    HW170382   0.040   6.227   5.308  0.8539 -1.1848 -1.6654
23268SOL    HW270383   0.098   6.117   5.395 -0.6200 -0.7213 -0.0535
23269SOL     OW70384   6.022   8.103   2.797 -0.7376  0.5663  0.4376
23269SOL    HW170385   6.097   8.108   2.739 -2.0374 -0.3455 -1.4353
23269SOL    HW270386   6.011   8.193   2.830  1.6975  0.5169  1.5502
23270SOL     OW70387   7.136   9.210   3.847  0.2890 -0.6152  0.0380
23270SOL    HW170388   7.219   9.164   3.842  0.8158  0.4928 -2.9356
23270SOL    HW270389   7.069   9.142   3.836  0.7198 -1.4397  2.0066
23271SOL     OW70390   8.342   9.409   0.462  0.7966  0.0042  0.0095
23271SOL    HW170391   8.400   9.478   0.494 -0.0452  0.5655  0.3528
23271SOL    HW270392   8.284   9.391   0.535 -0.6786  0.7732 -0.9327
23272SOL     OW70393   8.551   9.004   7.637 -0.0129 -0.2546  0.3868
23272SOL    HW170394   8.517   8.960   7.559 -1.5632  0.5746  0.5599
23272SOL    HW270395   8.601   8.936   7.683  0.4709 -0.8990 -1.0255
23273SOL     OW70396   8.901   9.374   5.055 -0.2400  0.0146 -0.0130
23273SOL    HW170397   8.825   9.420   5.020  0.6342  1.4431 -0.1265
23273SOL    HW270398   8.872   9.338   5.139 -1.1314  0.2383 -0.2227
23274SOL     OW70399   3.249   3.455   5.610  0.0118 -0.4293  0.4238
23274SOL    HW170400   3.178   3.400   5.576 -0.4003  0.7627 -0.7266
23274SOL    HW270401   3.208   3.504   5.682 -0.5047  0.5871 -0.5251
23275SOL     OW70402   7.631   0.489   3.965  0.6107  0.4156  0.3874
23275SOL    HW170403   7.559   0.443   4.007  0.9763 -0.3149  0.2362
23275SOL    HW270404   7.589   0.550   3.905  0.0565  1.7686  2.0444
23276SOL     OW70405   7.292   3.332   5.209 -0.2852 -0.3938 -0.1479
23276SOL    HW170406   7.324   3.242   5.208 -0.1271 -0.3407 -1.5194
23276SOL    HW270407   7.342   3.376   5.140 -0.7033  0.6254  0.1780
23277SOL     OW70408   5.483   5.726   7.486  0.0966 -0.4077  0.1470
23277SOL    HW170409   5.424   5.768   7.424 -0.1129 -0.2522  0.4526
23277SOL    HW270410   5.429   5.659   7.529 -0.3405  0.8137  1.6086
23278SOL     OW70411   9.487   0.660   4.659  0.4480  0.5588  0.2460
23278SOL    HW170412   9.540   0.615   4.593 -2.4308 -1.5794 -0.8348
23278SOL    HW270413   9.535   0.646   4.741  1.0176 -2.3785 -0.4609
23279SOL     OW70414   3.719   0.323   0.707  0.5969 -0.3970 -0.0884
23279SOL    HW170415   3.749   0.346   0.619 -3.4662  1.0073 -1.3433
23279SOL    HW270416   3.708   0.228   0.705  0.2762 -0.3488 -1.2467
23280SOL     OW70417   3.479   9.224   5.202  0.1026  0.2348  0.1717
23280SOL    HW170418   3.558   9.279   5.202 -0.1910  0.6722  1.1710
23280SOL    HW270419   3.491   9.166   5.127  0.9445  0.9154 -0.2424
23281SOL     OW70420   4.428   7.648   4.140  0.0713 -0.5417  0.7002
23281SOL    HW170421   4.479   7.567   4.149 -0.8850 -1.2544 -0.0980
23281SOL    HW270422   4.454   7.701   4.216  3.2575 -0.1215 -0.5383
23282SOL     OW70423   9.143   5.457   2.583  0.2301 -0.2691 -0.6751
23282SOL    HW170424   9.086   5.499   2.519  0.2982  0.7032 -0.1307
23282SOL    HW270425   9.216   5.422   2.531  0.7681  1.3251 -1.0676
23283SOL     OW70426   5.595   5.799   1.084 -0.0097 -0.1588  0.3880
23283SOL    HW170427   5.550   5.882   1.072  1.6160  0.6419 -0.4370
23283SOL    HW270428   5.644   5.786   1.003  1.6384 -0.7135  1.4316
23284SOL     OW70429   6.549   2.203   8.463 -0.3796 -0.8622 -0.4656
23284SOL    HW170430   6.590   2.119   8.484 -0.3217 -1.1435 -1.6611
23284SOL    HW270431   6.622   2.259   8.438 -0.3146 -0.1589  1.1737
23285SOL     OW70432   3.658   7.638   9.173  0.1148  0.3133  0.2572
23285SOL    HW170433   3.655   7.705   9.240  1.5886  0.0655  0.6109
23285SOL    HW270434   3.637   7.684   9.092 -1.9505  0.5618  0.8791
23286SOL     OW70435   5.085   4.973   4.452 -0.1203  0.1264 -0.0708
23286SOL    HW170436   5.169   5.011   4.476 -0.3558  1.8037 -1.6526
23286SOL    HW270437   5.086   4.971   4.356 -0.0792 -4.1452 -0.1729
23287SOL     OW70438   2.489   2.005   0.999 -0.6988  0.1993  0.0674
23287SOL    HW170439   2.497   2.095   0.966 -0.5071  0.0928 -0.1788
23287SOL    HW270440   2.548   2.003   1.075  0.1450 -0.0270 -0.5839
23288SOL     OW70441   0.833   3.240   0.595 -0.0191  0.5082  0.1819
23288SOL    HW170442   0.927   3.260   0.594 -0.2030  1.6609 -2.2043
23288SOL    HW270443   0.795   3.306   0.652  0.4811  0.9411  0.0296
23289SOL     OW70444   3.407   3.704   7.755 -0.1228 -0.0931 -0.3454
23289SOL    HW170445   3.372   3.619   7.780 -1.3732  0.4550 -0.1521
23289SOL    HW270446   3.485   3.715   7.810 -0.5573 -0.6488  0.3955
23290SOL     OW70447   2.734   6.710   6.608  0.0812 -0.0964 -0.0013
23290SOL    HW170448   2.775   6.793   6.635  0.9970  0.5353 -2.9819
23290SOL    HW270449   2.645   6.734   6.586 -0.2438 -0.3413  0.9749
23291SOL     OW70450   4.705   9.903   4.027 -0.0184 -0.0820 -0.1663
23291SOL    HW170451   4.671   9.913   4.116 -0.2098 -0.4314 -0.2027
23291SOL    HW270452   4.749   9.987   4.010 -0.9101  0.3954 -0.1463
23292SOL     OW70453   0.153   6.478   7.789 -0.2631 -0.2632  0.2747
23292SOL    HW170454   0.235   6.517   7.760 -1.5667  1.8133 -0.9500
23292SOL    HW270455   0.089   6.549   7.779 -1.7820 -0.9773  3.6019
23293SOL     OW70456   6.689   4.136   8.001  0.8034  0.6122 -0.9562
23293SOL    HW170457   6.774   4.148   8.043  0.7805 -1.8219 -0.0355
23293SOL    HW270458   6.647   4.066   8.051 -0.6388 -0.0871 -3.0026
23294SOL     OW70459   7.792   0.169   2.841  0.2056 -0.0203  0.2227
23294SOL    HW170460   7.886   0.161   2.859 -0.1254 -2.0893  1.2556
23294SOL    HW270461   7.786   0.175   2.746  1.3114 -1.6933  0.0084
23295SOL     OW70462   6.132   5.332   8.162  0.3044  0.2086 -0.6451
23295SOL    HW170463   6.103   5.259   8.217  2.4136 -0.8625 -0.8740
23295SOL    HW270464   6.176   5.290   8.088 -2.0959  1.6107 -3.0655
23296SOL     OW70465   3.145   8.365   8.512  0.0348 -0.1208 -0.5176
23296SOL    HW170466   3.176   8.318   8.434  1.7336 -0.4734  0.3249
23296SOL    HW270467   3.117   8.450   8.479  1.0916 -0.1200 -1.4863
23297SOL     OW70468   7.485   2.694   8.784  0.5062 -0.0057 -0.0122
23297SOL    HW170469   7.448   2.782   8.782  0.8192  0.1946  1.6502
23297SOL    HW270470   7.452   2.657   8.866  0.6697 -1.3164 -0.5194
23298SOL     OW70471   3.136   8.229   9.196  0.1151  0.0909  0.3118
23298SOL    HW170472   3.117   8.202   9.286  1.4372 -0.5302  0.4331
23298SOL    HW270473   3.138   8.325   9.200  0.5417  0.0648  1.0448
23299SOL     OW70474   2.781   6.426   9.660  0.0801 -0.0255 -0.2847
23299SOL    HW170475   2.848   6.408   9.725 -0.1769 -1.6035 -0.4140
23299SOL    HW270476   2.758   6.518   9.674  0.3323 -0.2063  1.5603
23300SOL     OW70477   5.080   7.331   6.713 -0.5169  0.5227 -0.0874
23300SOL    HW170478   5.057   7.395   6.781 -0.1125  0.2814  0.2775
23300SOL    HW270479   5.082   7.383   6.633  0.8013  1.1855  0.3498
23301SOL     OW70480   0.633   2.548   2.097 -0.6868  0.2230  0.3652
23301SOL    HW170481   0.576   2.570   2.171  0.3381 -0.4896  1.4115
23301SOL    HW270482   0.578   2.493   2.041 -0.5857 -1.9352  2.2299
23302SOL     OW70483   2.798   3.405   5.573 -0.0225 -0.3026  0.6597
23302SOL    HW170484   2.740   3.334   5.544  1.8641 -0.9268 -1.8910
23302SOL    HW270485   2.863   3.361   5.628 -0.1999 -0.1251  1.0145
23303SOL     OW70486   8.609   2.141   2.335 -0.3633  0.1754 -0.7047
23303SOL    HW170487   8.572   2.183   2.257  1.3563 -1.6708 -2.6588
23303SOL    HW270488   8.646   2.059   2.303  2.4558  0.3644  1.6284
23304SOL     OW70489   3.896   3.727   2.913  0.5540  0.4655 -0.6896
23304SOL    HW170490   3.981   3.733   2.957  0.0753 -1.9216  0.7319
23304SOL    HW270491   3.901   3.648   2.860  0.1429  1.8290 -2.9229
23305SOL     OW70492   7.889   2.810   8.092  0.1095 -0.0624 -0.5295
23305SOL    HW170493   7.832   2.825   8.168  0.5783 -0.2574 -0.1288
23305SOL    HW270494   7.904   2.716   8.092  1.9682  0.1834  0.5285
23306SOL     OW70495   1.380   2.748   1.194  0.2478  0.2494  0.0680
23306SOL    HW170496   1.317   2.677   1.209 -0.6269  1.1074  0.5923
23306SOL    HW270497   1.365   2.810   1.266  2.0283  0.2667  0.4646
23307SOL     OW70498   8.037   3.694   3.721  0.4203 -0.1096 -0.1446
23307SOL    HW170499   8.044   3.707   3.627 -1.4936 -0.4837 -0.3802
23307SOL    HW270500   8.014   3.602   3.731  1.2957 -0.2461  0.7442
23308SOL     OW70501   3.856   6.570   9.491  0.0288 -0.6297  0.2935
23308SOL    HW170502   3.901   6.488   9.471  0.0041 -0.4670 -0.4601
23308SOL    HW270503   3.884   6.630   9.421 -1.1427 -0.4510 -0.0386
23309SOL     OW70504   9.153   3.069   4.406 -0.0186  0.2412  0.0862
23309SOL    HW170505   9.228   3.122   4.380  0.1258 -0.3114 -0.6728
23309SOL    HW270506   9.079   3.106   4.359 -0.0556  0.2393  0.1435
23310SOL     OW70507   1.240   6.051   5.179 -0.2953 -0.0378 -0.2943
23310SOL    HW170508   1.322   6.058   5.131 -0.4159  0.7154 -0.4054
23310SOL    HW270509   1.213   5.960   5.167  0.2641 -0.1589 -0.6787
23311SOL     OW70510   7.165   3.428   9.480  0.2423  0.5999  0.2825
23311SOL    HW170511   7.109   3.402   9.553 -1.7776 -2.2061 -2.0208
23311SOL    HW270512   7.234   3.361   9.478 -0.7530 -0.4471 -1.3359
23312SOL     OW70513   7.651   6.321   6.524  0.5667  0.4504  0.1709
23312SOL    HW170514   7.581   6.274   6.480  0.9987 -0.9624  0.9207
23312SOL    HW270515   7.704   6.358   6.453 -2.1097  3.5490 -0.4553
23313SOL     OW70516   5.512   2.808   2.883 -0.1733  0.2069  0.1628
23313SOL    HW170517   5.534   2.736   2.824 -1.9467  1.1577 -1.8175
23313SOL    HW270518   5.581   2.873   2.867 -1.1833  0.8889 -1.7730
23314SOL     OW70519   8.051   9.966   6.129 -0.8036 -0.6778  0.1119
23314SOL    HW170520   8.065  10.041   6.071  3.1263 -0.5067  1.0224
23314SOL    HW270521   8.096   9.893   6.086  1.7920 -0.6611  2.4956
23315SOL     OW70522   0.498   4.157   8.039  0.0972 -0.0167 -0.5170
23315SOL    HW170523   0.443   4.229   8.010 -0.9995 -0.2238  0.9438
23315SOL    HW270524   0.453   4.078   8.010  0.8448 -0.1593 -1.3443
23316SOL     OW70525   7.674   8.233   0.708 -0.3100 -0.7202 -0.1444
23316SOL    HW170526   7.600   8.189   0.751  0.2343 -2.3229 -0.8108
23316SOL    HW270527   7.747   8.222   0.769 -0.0566 -1.1583 -0.5238
23317SOL     OW70528   4.869   0.938   0.513  0.2965 -0.1034 -0.2670
23317SOL    HW170529   4.840   0.962   0.424  0.2772  0.4295 -0.1215
23317SOL    HW270530   4.793   0.893   0.551 -0.0775  0.6098 -0.1552
23318SOL     OW70531   9.990   1.711   7.670  0.4342  0.8916  0.2107
23318SOL    HW170532   9.951   1.760   7.597  1.7884  1.1526 -0.3599
23318SOL    HW270533   9.918   1.655   7.701 -0.5842  1.8144 -0.3786
23319SOL     OW70534   7.967   2.434   1.321  0.0904 -0.1858  0.1371
23319SOL    HW170535   7.965   2.450   1.416 -0.3420  1.8338 -0.1649
23319SOL    HW270536   7.881   2.462   1.290 -0.3452 -2.2489 -0.7033
23320SOL     OW70537   7.845   7.370   4.010  0.2895 -0.4213  0.4620
23320SOL    HW170538   7.859   7.463   4.026  0.6574 -0.3852 -0.0465
23320SOL    HW270539   7.750   7.361   4.001  0.1600 -0.2833  1.6198
23321SOL     OW70540   1.289   8.000   2.274 -0.6216 -0.0693 -0.2371
23321SOL    HW170541   1.319   7.910   2.289 -0.0613 -0.0227 -1.0094
23321SOL    HW270542   1.246   8.025   2.355  0.0507 -0.7049  0.3305
23322SOL     OW70543   0.419   1.762   7.132 -0.2185 -0.0054 -0.3819
23322SOL    HW170544   0.511   1.778   7.109  0.2212 -0.9402  0.6332
23322SOL    HW270545   0.379   1.734   7.050  0.4476  0.2388 -0.8021
23323SOL     OW70546   4.309   0.243   2.357 -0.1881  0.8463 -0.7126
23323SOL    HW170547   4.404   0.246   2.359 -0.1954  0.7170  1.1664
23323SOL    HW270548   4.288   0.174   2.294  0.9725  0.2970 -0.5208
23324SOL     OW70549   3.888   5.420   6.864  0.1065 -0.2839 -0.1280
23324SOL    HW170550   3.861   5.380   6.781 -2.3461 -0.5941  0.7268
23324SOL    HW270551   3.932   5.349   6.911 -0.8258 -0.9114 -0.1575
23325SOL     OW70552   9.447   9.005   4.695  0.3872 -0.2044  0.3026
23325SOL    HW170553   9.513   8.940   4.671  1.0685  0.2335  0.9501
23325SOL    HW270554   9.395   9.016   4.615  0.4097 -1.3524  0.1045
23326SOL     OW70555   3.899   9.585  -0.024  0.3443 -0.6775  0.5483
23326SOL    HW170556   3.876   9.501   0.015  0.4620 -0.7047  0.5572
23326SOL    HW270557   3.862   9.650   0.037 -0.2846 -0.7210  0.2201
23327SOL     OW70558   9.185   8.353   7.181  0.1459 -0.1603  0.0154
23327SOL    HW170559   9.211   8.435   7.140  1.0956  0.7562  2.2779
23327SOL    HW270560   9.207   8.364   7.274 -3.0640 -1.5668  1.0909
23328SOL     OW70561   7.371   5.790   9.349  0.2451  0.2691 -0.0081
23328SOL    HW170562   7.392   5.698   9.334 -1.9976  0.0349 -2.6702
23328SOL    HW270563   7.299   5.788   9.413  0.0128  0.1162 -0.2689
23329SOL     OW70564   4.803   3.663   9.264  0.4560 -0.5140  0.1210
23329SOL    HW170565   4.723   3.683   9.217  0.0506 -0.8141  0.6686
23329SOL    HW270566   4.864   3.634   9.197  0.8435  1.8116 -0.6073
23330SOL     OW70567   5.725   8.052   5.959 -0.0761  0.4726 -0.8353
23330SOL    HW170568   5.779   8.121   5.998 -3.4190  3.7444 -1.3816
23330SOL    HW270569   5.693   8.090   5.877 -2.4489 -1.5379 -0.9729
23331SOL     OW70570   4.620   4.752   2.759 -0.1998 -0.5776  0.6274
23331SOL    HW170571   4.573   4.808   2.696 -1.9549  0.2068  2.5088
23331SOL    HW270572   4.695   4.719   2.710  0.0096  2.1053 -1.1091
23332SOL     OW70573   1.219   9.464   8.664  0.0920  0.0484  0.0547
23332SOL    HW170574   1.191   9.549   8.628 -1.2027 -0.1637  0.5321
23332SOL    HW270575   1.223   9.406   8.587 -0.3207  0.2083 -0.0933
23333SOL     OW70576   2.811   0.744   1.568  0.0124  0.2176 -0.1270
23333SOL    HW170577   2.824   0.679   1.636  0.1998  0.1861 -0.1926
23333SOL    HW270578   2.877   0.811   1.585  0.2402  0.0744 -0.4407
23334SOL     OW70579   1.018   3.571   0.123  0.0344 -0.4060 -0.2839
23334SOL    HW170580   1.098   3.566   0.175 -0.1540 -1.3893 -0.0727
23334SOL    HW270581   0.949   3.592   0.187  0.1339  0.6071 -0.4898
23335SOL     OW70582   1.948   3.995   1.900 -0.0850  0.2477 -0.2681
23335SOL    HW170583   1.986   3.934   1.838 -1.1097 -0.6162 -0.0715
23335SOL    HW270584   1.956   3.952   1.985 -0.5949  0.4866 -0.0922
23336SOL     OW70585   0.505   0.214   6.772 -0.3114  0.0469 -0.0087
23336SOL    HW170586   0.523   0.152   6.702 -0.4362 -0.7962  0.7009
23336SOL    HW270587   0.591   0.233   6.811 -0.5396 -1.6528  1.4154
23337SOL     OW70588   2.650   7.409   9.198 -0.0362 -0.0194 -0.8675
23337SOL    HW170589   2.641   7.497   9.235 -0.0596  0.1654 -1.3085
23337SOL    HW270590   2.563   7.389   9.162 -0.1080 -0.3343 -0.5260
23338SOL     OW70591   4.904   6.061   1.343 -0.1399  0.1877  0.2725
23338SOL    HW170592   4.833   5.997   1.333  0.0543  0.1016 -0.6831
23338SOL    HW270593   4.969   6.034   1.277 -0.4888  1.9300 -0.8458
23339SOL     OW70594   5.150   8.572   0.557  0.3703  0.3475  0.0815
23339SOL    HW170595   5.226   8.551   0.612 -0.5384 -0.2720  1.1222
23339SOL    HW270596   5.139   8.666   0.567 -0.3455  0.1195  1.7328
23340SOL     OW70597   3.308   8.367   6.162  0.0454 -0.1962  0.7377
23340SOL    HW170598   3.367   8.441   6.170  1.5050 -1.2370  0.1112
23340SOL    HW270599   3.359   8.292   6.191 -1.0964 -1.0915  0.5347
23341SOL     OW70600   2.779   8.785   7.306  0.3942 -0.1912 -0.0491
23341SOL    HW170601   2.858   8.770   7.255  0.2374 -0.3071 -0.2597
23341SOL    HW270602   2.728   8.704   7.297  1.1023 -0.8779  1.6488
23342SOL     OW70603   8.401   6.792   0.366 -0.1619 -0.3941 -0.7485
23342SOL    HW170604   8.467   6.861   0.358 -0.3607 -0.3176 -2.0208
23342SOL    HW270605   8.452   6.711   0.374  0.0805 -0.2300 -0.6251
23343SOL     OW70606   9.160   6.718   2.236  0.0419 -0.2175  0.0731
23343SOL    HW170607   9.195   6.636   2.271 -0.3629 -0.4384 -0.0245
23343SOL    HW270608   9.216   6.739   2.162  0.0203 -0.5241 -0.0335
23344SOL     OW70609   8.699   9.284   2.065 -0.0871  0.3218  0.1887
23344SOL    HW170610   8.743   9.233   1.997  0.2628 -0.4062  0.9417
23344SOL    HW270611   8.763   9.352   2.088 -0.0077  0.2685  0.1266
23345SOL     OW70612   7.308   6.258   8.412  0.0162  0.2216 -0.2849
23345SOL    HW170613   7.340   6.195   8.347 -0.4037  0.8041 -1.0773
23345SOL    HW270614   7.354   6.234   8.493  0.8058 -0.3081 -0.8706
23346SOL     OW70615   6.134   0.549   7.892 -0.1472 -0.1274  0.0980
23346SOL    HW170616   6.114   0.523   7.802  1.4172 -0.0754 -0.2873
23346SOL    HW270617   6.224   0.580   7.889 -0.4977  1.1084  1.4440
23347SOL     OW70618   1.377   5.409   9.491  0.1732 -0.5609 -0.5491
23347SOL    HW170619   1.428   5.340   9.535 -1.8740 -0.9509  1.4185
23347SOL    HW270620   1.349   5.368   9.409  1.2725 -1.0602 -0.7012
23348SOL     OW70621   6.889   2.257   4.232  0.3344  0.5804 -0.1545
23348SOL    HW170622   6.859   2.346   4.213  0.6958  1.0309  1.2183
23348SOL    HW270623   6.980   2.269   4.262 -0.2609  0.0302  2.0763
23349SOL     OW70624   3.247   5.138   4.756  0.3510 -0.0943  0.1423
23349SOL    HW170625   3.314   5.167   4.694  1.8472 -0.1787  1.6532
23349SOL    HW270626   3.259   5.043   4.763 -1.2844 -0.4349 -1.0681
23350SOL     OW70627   6.057   0.407   0.285 -0.4993 -0.3622  0.2140
23350SOL    HW170628   6.012   0.343   0.341  0.5727 -0.1076  1.4313
23350SOL    HW270629   6.119   0.450   0.344  0.8133 -0.1965 -1.2410
23351SOL     OW70630   6.224   5.453   4.203  0.0915  0.6072  0.4196
23351SOL    HW170631   6.155   5.420   4.261 -0.4513 -0.5022 -0.8217
23351SOL    HW270632   6.189   5.535   4.168 -0.6087  0.0513 -0.2024
23352SOL     OW70633   2.233   5.772   5.248  0.6884  0.3846 -0.6027
23352SOL    HW170634   2.279   5.736   5.172  0.7220  0.0094 -0.4078
23352SOL    HW270635   2.256   5.865   5.248  0.2605  0.4975 -1.3602
23353SOL     OW70636   0.376   3.568   1.736 -0.6805  0.2582 -0.4997
23353SOL    HW170637   0.379   3.636   1.803  0.8847  1.0214 -1.2829
23353SOL    HW270638   0.467   3.559   1.707 -0.9629 -1.6540 -0.9569
23354SOL     OW70639   2.453   7.222   0.832 -1.0495 -0.2174  0.4112
23354SOL    HW170640   2.467   7.297   0.775  0.6967 -1.6337 -1.1654
23354SOL    HW270641   2.541   7.194   0.857 -1.6090 -2.0973  0.4411
23355SOL     OW70642   3.379   1.777   0.458  0.6712  0.0737  0.1055
23355SOL    HW170643   3.334   1.861   0.450 -1.6716 -1.0076  0.8795
23355SOL    HW270644   3.440   1.776   0.385  0.1718  2.1021 -0.4136
23356SOL     OW70645   1.760   1.404   4.483  0.6541  0.4191 -0.3366
23356SOL    HW170646   1.847   1.434   4.457 -0.1318  3.1297 -0.1393
23356SOL    HW270647   1.709   1.406   4.402  0.6762 -0.9060 -0.4031
23357SOL     OW70648   0.045   0.475   1.798 -0.5886 -0.1277 -0.2146
23357SOL    HW170649   0.051   0.447   1.890 -0.5122 -0.8305 -0.4230
23357SOL    HW270650   0.105   0.549   1.791  1.7189 -1.8903 -0.3642
23358SOL     OW70651   2.309   1.500   4.263 -0.2293 -0.2349  0.2774
23358SOL    HW170652   2.343   1.569   4.320  1.8983  1.1351 -2.4178
23358SOL    HW270653   2.359   1.422   4.286  0.9034  0.4109  0.0880
23359SOL     OW70654   5.670   5.926   9.035 -0.4263 -0.0755  0.0131
23359SOL    HW170655   5.606   5.992   9.010  0.0329  0.4305  0.1702
23359SOL    HW270656   5.745   5.941   8.978  0.6000  1.0386  1.5888
23360SOL     OW70657   3.841   6.053   3.217 -0.3495 -0.1406  0.0986
23360SOL    HW170658   3.855   6.069   3.310 -1.1161  0.2573  0.1560
23360SOL    HW270659   3.881   6.128   3.173  1.4050 -1.0765 -0.0162
23361SOL     OW70660   8.247   8.470   4.241 -0.0744 -0.2131 -0.0315
23361SOL    HW170661   8.213   8.401   4.297 -0.3265  1.1463  1.5526
23361SOL    HW270662   8.342   8.464   4.250 -0.0221 -1.2694 -1.0766
23362SOL     OW70663   7.214   1.499   7.886  0.1086  0.3757  0.4556
23362SOL    HW170664   7.275   1.554   7.838 -0.7567  1.2200  0.2855
23362SOL    HW270665   7.180   1.555   7.956 -0.0864 -0.2429  0.8739
23363SOL     OW70666   8.381   2.217   6.054 -0.4514 -0.4885  0.3401
23363SOL    HW170667   8.433   2.294   6.076 -0.4882 -0.3167 -0.1546
23363SOL    HW270668   8.315   2.250   5.993 -0.5451 -0.8873  0.2230
23364SOL     OW70669   4.712   7.206   4.421  0.1050 -0.4451 -0.3648
23364SOL    HW170670   4.656   7.209   4.343  1.1555 -0.2058 -1.1368
23364SOL    HW270671   4.662   7.252   4.488 -0.4340  0.1699 -1.1678
23365SOL     OW70672   1.318   3.494   2.781 -0.3330  0.1569 -0.1899
23365SOL    HW170673   1.224   3.503   2.797 -0.7365  0.2555 -2.3718
23365SOL    HW270674   1.354   3.580   2.801 -0.6713  0.0890  0.7603
23366SOL     OW70675   8.680   7.283   6.545  0.2855 -0.2206  0.1176
23366SOL    HW170676   8.588   7.280   6.518  0.5300 -1.2632 -0.6653
23366SOL    HW270677   8.717   7.353   6.491 -0.1568  0.5820  0.8337
23367SOL     OW70678   5.009   2.131   6.547 -0.2648  0.1703  0.0028
23367SOL    HW170679   5.014   2.063   6.614  0.2011 -0.4300 -0.6263
23367SOL    HW270680   5.085   2.187   6.563 -1.4508  1.4858  1.4713
23368SOL     OW70681   9.733   9.899   9.529 -0.1205  0.2117 -0.0815
23368SOL    HW170682   9.788   9.825   9.503 -0.6173 -0.4153  0.6053
23368SOL    HW270683   9.646   9.877   9.496 -0.3413  0.3306  0.4161
23369SOL     OW70684   8.189   5.734   9.626 -0.4324 -0.1123  0.0907
23369SOL    HW170685   8.181   5.643   9.657 -2.2467 -0.0930 -0.2407
23369SOL    HW270686   8.211   5.784   9.704  0.1878 -0.7740  0.3517
23370SOL     OW70687   6.628   7.625   1.546  0.3470 -0.1820  0.0878
23370SOL    HW170688   6.696   7.684   1.580 -1.0041  0.9952  0.8675
23370SOL    HW270689   6.664   7.590   1.465  1.9009  0.3622  0.5207
23371SOL     OW70690   7.920   4.289   9.633  0.0368  0.9568  0.0835
23371SOL    HW170691   7.848   4.351   9.637 -0.3502  0.5299 -0.0854
23371SOL    HW270692   7.952   4.283   9.723  0.5159  1.8978 -0.0168
23372SOL     OW70693   7.880   6.569   5.559  0.2817 -0.3200 -0.7100
23372SOL    HW170694   7.923   6.545   5.477  1.1844 -1.4218  0.0513
23372SOL    HW270695   7.858   6.661   5.549 -0.2354 -0.5948 -2.4424
23373SOL     OW70696   7.993   8.753   1.106  0.2216 -0.5164  0.4778
23373SOL    HW170697   8.040   8.780   1.027 -1.4014 -0.6109 -0.5614
23373SOL    HW270698   7.941   8.830   1.131  0.4780 -0.5914  1.2819
23374SOL     OW70699   3.798   7.620   3.349  0.0506  0.1684  0.0434
23374SOL    HW170700   3.866   7.636   3.285  0.5433 -1.4644  0.1140
23374SOL    HW270701   3.736   7.692   3.337 -0.1948 -0.3847 -2.6910
23375SOL     OW70702   5.687   0.987   3.824 -0.0010  0.3098  0.2527
23375SOL    HW170703   5.763   1.038   3.796 -0.6068  0.5279 -1.0753
23375SOL    HW270704   5.635   1.048   3.877 -0.9977  1.3232 -1.7719
23376SOL     OW70705   3.752   5.405   4.951  0.1681  0.0510  0.0316
23376SOL    HW170706   3.691   5.341   4.914 -0.5489 -0.0751  1.3784
23376SOL    HW270707   3.832   5.395   4.899  0.6658 -3.1406  1.2143
23377SOL     OW70708   0.409   8.063   6.595  0.9279 -0.5010 -0.2240
23377SOL    HW170709   0.488   8.069   6.541  1.7067 -1.0603  0.8205
23377SOL    HW270710   0.386   8.154   6.613  1.4012 -0.3309 -0.4452
23378SOL     OW70711   8.870   9.025   5.871  0.3281 -0.1514  0.2620
23378SOL    HW170712   8.789   9.010   5.920  1.4406 -1.7380  1.7632
23378SOL    HW270713   8.858   8.977   5.789 -0.6125  0.4551  0.0325
23379SOL     OW70714   2.308   7.109   9.599 -0.2885  0.2982  0.3900
23379SOL    HW170715   2.392   7.128   9.640 -0.3028  0.6090  0.2741
23379SOL    HW270716   2.291   7.184   9.543 -0.5426  0.1369  0.2510
23380SOL     OW70717   3.156   3.465   2.290 -0.2218  0.3752  0.0541
23380SOL    HW170718   3.163   3.527   2.217  0.3106  0.3243  0.0577
23380SOL    HW270719   3.182   3.516   2.367 -0.5414  0.3597  0.1735
23381SOL     OW70720   5.990   2.987   1.238  0.1153 -0.1454 -0.0366
23381SOL    HW170721   6.011   3.040   1.316 -0.3496 -0.5113  0.3399
23381SOL    HW270722   6.064   3.003   1.179 -0.1792  1.2164 -0.0848
23382SOL     OW70723   4.863   3.159   8.962 -0.8688 -0.0382 -0.4746
23382SOL    HW170724   4.836   3.203   9.042 -1.0582  1.5414 -1.3682
23382SOL    HW270725   4.948   3.120   8.983 -0.9080  0.3825  0.4805
23383SOL     OW70726   5.393   8.627   9.259 -0.4121 -0.0817  0.2090
23383SOL    HW170727   5.475   8.675   9.248 -0.7206  0.4701  0.2896
23383SOL    HW270728   5.361   8.612   9.170 -0.1267 -0.4670  0.1721
23384SOL     OW70729   8.339   1.175   1.830 -0.0296  0.2304 -0.1384
23384SOL    HW170730   8.286   1.127   1.766  2.0660 -1.9323 -0.4037
23384SOL    HW270731   8.419   1.198   1.782 -0.2435  2.5808  0.5081
23385SOL     OW70732   4.059   1.132   5.544  0.6550  0.2486  0.0097
23385SOL    HW170733   3.976   1.084   5.550  0.7111  0.1244 -0.1640
23385SOL    HW270734   4.053   1.180   5.461  0.4490  0.8373  0.3601
23386SOL     OW70735   5.642   8.302   3.499  0.3622 -0.3847  0.3101
23386SOL    HW170736   5.624   8.285   3.406 -0.8417  0.2155  0.4081
23386SOL    HW270737   5.564   8.348   3.530  1.3268  0.6771  1.2777
23387SOL     OW70738   0.957   6.723   5.756 -0.1952  0.6796  0.0592
23387SOL    HW170739   0.913   6.801   5.790  1.0807  1.8162 -0.7689
23387SOL    HW270740   0.953   6.732   5.661 -2.1126 -1.5311 -0.1684
23388SOL     OW70741   6.161   6.649   2.484  0.2189 -0.1216  0.1111
23388SOL    HW170742   6.108   6.590   2.431  0.3884 -0.4151  0.2666
23388SOL    HW270743   6.224   6.592   2.528  0.8554  0.2614 -0.3000
23389SOL     OW70744   5.112   1.464   4.502  0.5886 -0.0607  0.0164
23389SOL    HW170745   5.030   1.511   4.487 -0.7000 -1.8175  1.0908
23389SOL    HW270746   5.127   1.417   4.419 -0.3598 -0.9061  0.2891
23390SOL     OW70747   5.107   0.696   9.554 -0.6617  0.8843  0.5392
23390SOL    HW170748   5.155   0.644   9.619 -0.4535  0.8426  0.3540
23390SOL    HW270749   5.094   0.636   9.481  0.9041  1.5141 -0.2996
23391SOL     OW70750   6.374   6.683   8.508  0.1486 -0.1562 -0.7569
23391SOL    HW170751   6.291   6.728   8.491  0.9149  0.6681 -2.4878
23391SOL    HW270752   6.389   6.696   8.602 -0.4392  1.8326 -0.8979
23392SOL     OW70753   7.893   7.330   0.250  0.5234  0.3931 -0.0242
23392SOL    HW170754   7.908   7.320   0.156 -0.5580  1.8267 -0.3793
23392SOL    HW270755   7.977   7.361   0.284  1.3054 -1.3308 -0.2736
23393SOL     OW70756   7.606   2.695   4.239 -0.4716  0.2462 -0.0359
23393SOL    HW170757   7.692   2.736   4.233  0.4533 -1.7371 -1.9385
23393SOL    HW270758   7.612   2.638   4.316  0.3843 -0.7239 -0.7811
23394SOL     OW70759   3.824   6.609   0.944 -0.2641  0.0408  0.3165
23394SOL    HW170760   3.831   6.643   1.033 -0.7271  0.1985  0.2945
23394SOL    HW270761   3.732   6.586   0.934 -0.4161  0.9305 -0.4404
23395SOL     OW70762   4.682   3.865   1.780  0.0585  0.2128 -0.0267
23395SOL    HW170763   4.612   3.914   1.737  0.0333  0.4614  0.2965
23395SOL    HW270764   4.693   3.787   1.726 -0.6956  0.0094  0.1138
23396SOL     OW70765   8.969   1.506   6.829  0.5417 -0.1686 -0.4704
23396SOL    HW170766   8.906   1.522   6.759 -0.5264 -0.9530  0.2838
23396SOL    HW270767   8.972   1.587   6.879 -1.0423 -0.6063  0.3811
23397SOL     OW70768   2.786   7.414   0.526 -0.2211 -0.0056 -0.0151
23397SOL    HW170769   2.828   7.328   0.524  0.2161  0.1702  0.9864
23397SOL    HW270770   2.805   7.452   0.440  0.6349 -0.4164 -0.0194
23398SOL     OW70771   2.011   7.972   2.771  0.3419  0.4640  0.4067
23398SOL    HW170772   1.929   8.008   2.807  0.3825  2.3681 -1.2788
23398SOL    HW270773   2.080   8.010   2.826  0.2401  1.0285  0.1490
23399SOL     OW70774   8.373   2.387   7.188 -0.3599 -0.4758 -0.0198
23399SOL    HW170775   8.367   2.292   7.200 -1.3919 -0.6834 -1.7672
23399SOL    HW270776   8.422   2.398   7.107  0.4732  0.5338  0.6032
23400SOL     OW70777   2.585   3.365   2.092  0.7036 -0.0201 -0.7063
23400SOL    HW170778   2.494   3.394   2.095  0.4761 -0.8012  0.7846
23400SOL    HW270779   2.587   3.301   2.021  0.5183  1.2560 -1.9220
23401SOL     OW70780   6.256   2.973   6.327  0.4750 -0.5917 -0.0069
23401SOL    HW170781   6.276   3.023   6.248 -0.0091 -0.1764  0.1284
23401SOL    HW270782   6.210   2.895   6.295  0.8448 -0.7434 -0.1808
23402SOL     OW70783   3.931   7.754   5.374 -0.2804  0.6288 -0.3365
23402SOL    HW170784   4.021   7.735   5.346 -0.2446 -0.5137  0.4536
23402SOL    HW270785   3.935   7.749   5.470 -1.1283  0.8614 -0.2872
23403SOL     OW70786   5.582   4.136   3.877  0.2178  0.2885  0.1950
23403SOL    HW170787   5.659   4.131   3.933 -0.6058  0.5017  1.3870
23403SOL    HW270788   5.617   4.146   3.788  1.5813  2.0225  0.8605
23404SOL     OW70789   1.818   8.972   1.501 -0.0968 -0.1325  0.6015
23404SOL    HW170790   1.836   8.886   1.463  0.3623  0.7393 -1.2400
23404SOL    HW270791   1.902   8.999   1.539  0.2021  0.2149 -0.3017
23405SOL     OW70792   7.133   2.497   8.685  0.7604  0.2790  0.2780
23405SOL    HW170793   7.052   2.486   8.735 -0.7304  0.1018 -2.0145
23405SOL    HW270794   7.133   2.590   8.662  0.3041 -0.0300 -1.0800
23406SOL     OW70795   3.012   1.790   8.548  0.9596 -0.5323 -0.7481
23406SOL    HW170796   3.043   1.863   8.494  1.3450  0.1388  0.3656
23406SOL    HW270797   2.935   1.757   8.500  1.4270 -0.1114 -1.8292
23407SOL     OW70798   0.086   7.512   9.049 -0.4063 -0.2047 -0.0924
23407SOL    HW170799   0.096   7.446   9.118 -0.3183 -0.8985 -0.7494
23407SOL    HW270800   0.164   7.566   9.056 -0.9713  0.4728  1.1180
23408SOL     OW70801   3.013   2.184   1.191  0.6846 -0.2986  0.1058
23408SOL    HW170802   3.074   2.220   1.127  1.2782  0.1547  0.9137
23408SOL    HW270803   3.068   2.150   1.261  0.1193 -2.2715 -0.3393
23409SOL     OW70804   5.568   3.556   7.202 -0.9569  0.1645  0.1064
23409SOL    HW170805   5.556   3.471   7.161  1.1073  0.0275 -0.2955
23409SOL    HW270806   5.581   3.616   7.129  1.6827  0.0993  0.4421
23410SOL     OW70807   9.869   7.674   3.260  0.7239 -0.5093 -0.4119
23410SOL    HW170808   9.824   7.723   3.329 -0.0446  0.2530 -1.4365
23410SOL    HW270809   9.962   7.680   3.284  0.4786 -0.2140  0.5183
23411SOL     OW70810   4.023   8.312   6.437 -0.2071  0.5883  0.0270
23411SOL    HW170811   4.039   8.285   6.528 -0.2660 -1.3375 -0.4895
23411SOL    HW270812   3.981   8.236   6.397 -4.1846  2.8080 -0.5445
23412SOL     OW70813   3.912   1.758   5.306 -0.7807 -0.4249 -0.0555
23412SOL    HW170814   3.933   1.847   5.335  1.5028 -0.4876 -1.3379
23412SOL    HW270815   3.907   1.708   5.387  1.0643  0.2787  0.5564
23413SOL     OW70816   1.264   6.440   4.957 -0.2413  0.2467 -0.2701
23413SOL    HW170817   1.322   6.418   5.029 -1.5000  1.9697  1.3428
23413SOL    HW270818   1.319   6.490   4.896  0.9055 -1.4836 -0.7206
23414SOL     OW70819   0.024   0.353   4.508 -0.1405 -0.1953 -0.3831
23414SOL    HW170820  -0.069   0.375   4.506 -0.4457 -1.4655 -1.1764
23414SOL    HW270821   0.046   0.353   4.601 -1.8104 -3.1913  0.1548
23415SOL     OW70822   0.568   9.540   0.419  0.3657 -0.2901 -0.4005
23415SOL    HW170823   0.472   9.544   0.428  0.1254  2.4522 -2.7307
23415SOL    HW270824   0.599   9.621   0.461  1.9615 -2.0997  2.1536
23416SOL     OW70825   0.365   7.577   5.549 -0.2738  0.0568 -0.3102
23416SOL    HW170826   0.274   7.549   5.546 -0.0133 -0.7433 -0.8891
23416SOL    HW270827   0.400   7.557   5.462  0.3098  0.8675 -0.2776
23417SOL     OW70828   0.523   2.163   8.176  0.2017 -0.1207 -0.0617
23417SOL    HW170829   0.612   2.198   8.170  0.3400 -0.1617  1.4113
23417SOL    HW270830   0.468   2.241   8.175  0.4289  0.0950  1.7378
23418SOL     OW70831   7.597   2.219   6.568 -0.5016 -0.4216  0.3022
23418SOL    HW170832   7.632   2.189   6.484 -0.1803 -1.0610  0.6536
23418SOL    HW270833   7.650   2.296   6.590 -1.5913  0.6892 -0.7972
23419SOL     OW70834   7.198   7.715   1.207  0.1807  0.2073  0.1741
23419SOL    HW170835   7.258   7.761   1.267  0.1216 -0.0581  0.4405
23419SOL    HW270836   7.238   7.629   1.195 -0.1909 -0.0054  0.4267
23420SOL     OW70837   4.403   9.631   7.428 -0.1473  0.2383 -0.0142
23420SOL    HW170838   4.323   9.675   7.401 -0.6141  0.5596  1.7354
23420SOL    HW270839   4.465   9.703   7.445  0.2106  0.0357 -0.4418
23421SOL     OW70840   9.959   1.013   8.791  0.3723  0.0649 -0.1703
23421SOL    HW170841   9.885   0.977   8.744  0.5475  0.6117 -0.8826
23421SOL    HW270842   9.984   0.945   8.853 -0.0211 -0.5640 -0.6976
23422SOL     OW70843   1.530   3.262   1.721  0.0821 -0.6098 -0.5401
23422SOL    HW170844   1.479   3.260   1.640  0.8469  1.2190 -1.1491
23422SOL    HW270845   1.487   3.329   1.775  0.0734 -1.2175  0.2275
23423SOL     OW70846   4.058   3.229   2.321  0.5280 -0.0457  0.1051
23423SOL    HW170847   4.048   3.135   2.308  1.9913 -0.2833  0.4614
23423SOL    HW270848   4.064   3.266   2.233 -2.1070  0.0272 -0.1234
23424SOL     OW70849   5.066   1.038   5.305 -0.4041 -0.0431  1.0598
23424SOL    HW170850   5.129   1.053   5.234 -0.5586 -0.3175  0.8643
23424SOL    HW270851   5.100   0.961   5.350 -2.0186 -1.9068 -0.6842
23425SOL     OW70852   5.574   0.650   7.566  0.6901 -0.4969 -0.3303
23425SOL    HW170853   5.643   0.664   7.500 -0.6866  0.4839 -1.6480
23425SOL    HW270854   5.509   0.596   7.521  1.3455 -3.0290  1.4948
23426SOL     OW70855   0.320   9.239   3.640 -0.1303  0.1921 -0.2176
23426SOL    HW170856   0.239   9.208   3.598  0.3451 -0.9975 -0.3043
23426SOL    HW270857   0.390   9.194   3.591  0.5019 -0.0485  0.8848
23427SOL     OW70858   6.924   3.776   0.773  0.2531 -0.1047  0.2541
23427SOL    HW170859   6.955   3.700   0.724 -1.5482 -1.2973  0.8865
23427SOL    HW270860   6.843   3.802   0.730  0.4350  0.9898  0.5248
23428SOL     OW70861   2.829   2.697   7.054  0.1932 -0.1712 -0.3339
23428SOL    HW170862   2.876   2.775   7.027 -0.9549  0.4147 -0.7152
23428SOL    HW270863   2.832   2.698   7.150 -0.5773  0.8385 -0.3078
23429SOL     OW70864   6.454   4.155   2.602 -0.0157  0.0335  0.0489
23429SOL    HW170865   6.380   4.103   2.569 -0.4436 -0.0713  1.1379
23429SOL    HW270866   6.416   4.242   2.619 -0.1440 -0.2883  1.5329
23430SOL     OW70867   7.443   3.659   0.785 -0.2233 -0.3186  0.2216
23430SOL    HW170868   7.437   3.565   0.801 -1.0842 -0.4370 -0.7584
23430SOL    HW270869   7.369   3.697   0.832 -1.2024 -0.3908 -1.1921
23431SOL     OW70870   5.828   2.145   7.329  0.2158  0.2235 -0.3363
23431SOL    HW170871   5.821   2.240   7.336  0.7208  0.2633 -0.3012
23431SOL    HW270872   5.738   2.114   7.330  0.0646  0.6496  0.4443
23432SOL     OW70873   1.533   4.238   1.491  0.1920  0.1219 -0.4584
23432SOL    HW170874   1.572   4.282   1.415  0.7778 -0.9939 -0.8315
23432SOL    HW270875   1.609   4.209   1.543 -0.0188 -2.7077 -1.5452
23433SOL     OW70876   1.335   3.809   1.608 -1.0179 -0.2810 -0.6306
23433SOL    HW170877   1.245   3.837   1.593 -1.3641 -0.6908  0.5602
23433SOL    HW270878   1.372   3.878   1.663 -0.8343 -0.4778 -0.5050
23434SOL     OW70879   7.462   7.841   4.067 -0.0520  0.1096 -0.4267
23434SOL    HW170880   7.406   7.845   3.990  0.3279 -0.7882 -0.7751
23434SOL    HW270881   7.521   7.767   4.049 -1.6717 -1.8858  1.8499
23435SOL     OW70882   4.084   4.022   6.211  0.5893 -0.0871 -0.1389
23435SOL    HW170883   4.073   4.116   6.224 -0.2609  0.1691 -2.3131
23435SOL    HW270884   4.114   3.989   6.296 -1.0778  1.8314  1.2852
23436SOL     OW70885   7.591   9.355   0.773  0.3943 -0.5803  0.5294
23436SOL    HW170886   7.530   9.323   0.840  1.2759 -0.7668  1.2641
23436SOL    HW270887   7.593   9.450   0.785 -0.9820 -0.3718 -0.5849
23437SOL     OW70888   8.545   1.961   0.221 -0.2739 -0.2615 -0.6943
23437SOL    HW170889   8.509   2.045   0.191 -1.0017 -0.0121  0.7993
23437SOL    HW270890   8.469   1.902   0.222 -0.2850 -0.2514  0.6345
23438SOL     OW70891   4.893   1.069   6.137  0.0822  0.6386 -0.1119
23438SOL    HW170892   4.972   1.111   6.105 -0.6869  2.0998 -0.1455
23438SOL    HW270893   4.867   1.009   6.067  0.9014  0.4702 -0.2754
23439SOL     OW70894   9.609   1.485   6.461  0.6422 -0.3655  0.5495
23439SOL    HW170895   9.572   1.413   6.410  1.5430 -0.3512 -0.1620
23439SOL    HW270896   9.535   1.543   6.478 -0.2854 -1.8445  1.8717
23440SOL     OW70897   2.626   2.622   0.044 -0.1265  0.1737 -0.1630
23440SOL    HW170898   2.530   2.622   0.038 -0.4128  0.3628  3.0694
23440SOL    HW270899   2.648   2.536   0.079  0.3810  1.5693  3.3597
23441SOL     OW70900   1.746   1.602   5.329 -0.9241  0.3457 -0.0838
23441SOL    HW170901   1.702   1.678   5.291  1.6061  1.2687 -1.3937
23441SOL    HW270902   1.763   1.545   5.254 -1.2202 -0.7120  0.6364
23442SOL     OW70903   3.581   3.342   0.379  0.1418 -0.1200 -0.0629
23442SOL    HW170904   3.646   3.277   0.405 -1.9956 -2.5687 -0.4847
23442SOL    HW270905   3.499   3.293   0.371 -1.0641  2.0429 -3.1263
23443SOL     OW70906   7.576   2.936   4.845 -0.2596  0.5449  0.3156
23443SOL    HW170907   7.582   2.878   4.769 -0.0483  1.1562 -0.1407
23443SOL    HW270908   7.542   3.018   4.811  3.1582  2.0650  0.1290
23444SOL     OW70909   7.623   5.661   9.657 -0.1403 -0.1814 -0.0332
23444SOL    HW170910   7.703   5.713   9.666 -0.4288  0.0990  1.1643
23444SOL    HW270911   7.653   5.577   9.621  1.3669 -1.5008  3.7725
23445SOL     OW70912   5.842  10.002   2.959 -0.1813 -0.6378  0.5532
23445SOL    HW170913   5.855   9.942   2.886  0.6514 -1.7015  1.5431
23445SOL    HW270914   5.913   9.982   3.020 -2.6135 -2.0829  3.1629
23446SOL     OW70915   4.889   1.223   2.165 -0.3006  0.7622 -0.0810
23446SOL    HW170916   4.951   1.152   2.150 -1.5602 -0.3737 -0.0763
23446SOL    HW270917   4.886   1.271   2.082  2.0940  2.1296  0.5298
23447SOL     OW70918   3.324   2.766   6.154  0.0670  0.1950 -0.6263
23447SOL    HW170919   3.288   2.803   6.234 -2.4826 -2.1023 -0.5668
23447SOL    HW270920   3.314   2.835   6.088  0.3646  1.3955  0.5520
23448SOL     OW70921   5.219   2.343   6.649 -0.5496 -0.1289 -0.7493
23448SOL    HW170922   5.314   2.333   6.655 -0.3553  0.3352 -2.5249
23448SOL    HW270923   5.190   2.353   6.740  1.3208  1.5826 -0.2612
23449SOL     OW70924   6.105   8.666   6.076  0.4854  0.0300 -0.1366
23449SOL    HW170925   6.134   8.756   6.094 -0.0873  0.0518  0.7179
23449SOL    HW270926   6.042   8.676   6.005  0.0080  0.3715  0.3304
23450SOL     OW70927   0.010   7.338   9.715 -0.5300  0.1177 -0.0402
23450SOL    HW170928   0.038   7.271   9.779  0.7815  1.2075  0.5716
23450SOL    HW270929   0.066   7.413   9.733  0.7623  0.0687 -3.3142
23451SOL     OW70930   3.499   5.751   0.931  0.4945 -0.2535 -0.2008
23451SOL    HW170931   3.504   5.684   1.000  1.1270  2.3641  2.5329
23451SOL    HW270932   3.421   5.802   0.953  1.5488  1.5631 -0.4678
23452SOL     OW70933   9.638   7.424   6.170 -0.2797 -0.0533 -0.3618
23452SOL    HW170934   9.667   7.510   6.200 -1.2242  0.0374  0.3235
23452SOL    HW270935   9.667   7.364   6.239 -0.5719 -0.1404 -0.3144
23453SOL     OW70936   7.491   4.242   1.531 -0.4051 -0.1317  0.7180
23453SOL    HW170937   7.433   4.168   1.514  0.7238 -1.0072  0.5065
23453SOL    HW270938   7.502   4.243   1.626 -0.5142 -0.1650  0.7303
23454SOL     OW70939   2.132   3.687   2.503 -0.7434  0.0898 -0.2229
23454SOL    HW170940   2.126   3.678   2.408  0.7773 -0.6991 -0.2891
23454SOL    HW270941   2.047   3.658   2.535 -0.5795 -1.7713 -1.2567
23455SOL     OW70942   9.354   4.297   8.572  0.0511  0.3724 -0.4198
23455SOL    HW170943   9.388   4.371   8.623 -0.0381  0.1207  0.0073
23455SOL    HW270944   9.326   4.336   8.490 -0.1030  0.8394 -0.1493
23456SOL     OW70945   6.809   2.894   0.615 -0.2852 -0.4688  0.2241
23456SOL    HW170946   6.862   2.929   0.543 -1.6026  0.3444 -0.3898
23456SOL    HW270947   6.788   2.805   0.588  1.1447 -0.9942  0.7144
23457SOL     OW70948   8.142   6.626   3.763  0.6720 -0.2148  0.8469
23457SOL    HW170949   8.061   6.647   3.810  0.5278 -1.1381  1.0215
23457SOL    HW270950   8.147   6.693   3.694 -0.2206 -0.1330  0.8498
23458SOL     OW70951   4.299   0.257   9.156  0.1138 -0.0418  0.4542
23458SOL    HW170952   4.369   0.300   9.108 -0.7057  1.3705  0.4718
23458SOL    HW270953   4.307   0.290   9.246 -2.1176  2.2785 -0.0690
23459SOL     OW70954   3.129   7.709   1.814 -0.4108 -0.2992  0.1456
23459SOL    HW170955   3.106   7.617   1.803 -0.3729 -0.4390  1.1359
23459SOL    HW270956   3.045   7.755   1.821 -0.4290 -0.2637 -0.3037
23460SOL     OW70957   3.445   6.936   9.420 -0.0026 -0.6150 -0.5724
23460SOL    HW170958   3.433   6.868   9.354  0.2516 -1.5259  0.3154
23460SOL    HW270959   3.531   6.973   9.401  0.4301 -1.4398 -0.2441
23461SOL     OW70960   9.590   5.457   5.527  0.0534 -0.2378 -0.6794
23461SOL    HW170961   9.612   5.399   5.600 -0.2682  1.2945  0.6975
23461SOL    HW270962   9.635   5.539   5.547  3.1903 -0.8539 -4.2030
23462SOL     OW70963   2.400   8.714   3.655 -0.1884 -0.0954 -0.0203
23462SOL    HW170964   2.392   8.809   3.651 -0.8229 -0.0998  0.7963
23462SOL    HW270965   2.484   8.695   3.614 -0.6943  0.6918 -1.4849
23463SOL     OW70966   5.469   8.406   7.407  0.1985 -0.1782  0.0541
23463SOL    HW170967   5.412   8.366   7.341  2.2474 -3.7844  0.2169
23463SOL    HW270968   5.438   8.496   7.414 -1.7689 -0.3450 -3.9035
23464SOL     OW70969   4.648   9.940   4.281 -0.5266 -0.4979 -0.4874
23464SOL    HW170970   4.697   9.866   4.316 -0.3125 -1.0779 -1.9465
23464SOL    HW270971   4.573   9.950   4.340  0.9050 -0.0787  1.3464
23465SOL     OW70972   1.946   2.700   3.300 -0.3164  0.0970  0.1347
23465SOL    HW170973   1.874   2.757   3.273 -0.7005  0.1216  1.1657
23465SOL    HW270974   2.022   2.731   3.251 -1.2473 -0.7245 -1.9581
23466SOL     OW70975   4.855   7.246   6.900 -0.2448  0.1721 -0.4934
23466SOL    HW170976   4.816   7.204   6.976  0.7214  1.6704  0.8891
23466SOL    HW270977   4.816   7.333   6.898 -0.5136  0.0477 -1.9469
23467SOL     OW70978   5.299   0.885   3.489  0.1749  0.1264  0.5658
23467SOL    HW170979   5.306   0.848   3.401 -1.0928  0.3461  0.3606
23467SOL    HW270980   5.299   0.809   3.547 -0.4191 -0.0943  0.2788
23468SOL     OW70981   2.012   6.510   2.917 -0.4071 -0.2669  0.3507
23468SOL    HW170982   2.101   6.474   2.913  0.8312  2.5499  0.5291
23468SOL    HW270983   1.998   6.548   2.831 -1.7056 -1.1870  0.1350
23469SOL     OW70984   8.979   5.166   0.776 -0.1991 -0.6489  0.3994
23469SOL    HW170985   9.024   5.177   0.860  1.7462 -0.3997 -0.6117
23469SOL    HW270986   8.905   5.225   0.780  2.0558  2.4082  0.5298
23470SOL     OW70987   9.203   5.208   3.143  0.3930 -0.4801 -0.6248
23470SOL    HW170988   9.189   5.141   3.076 -0.6939  0.1535 -1.0678
23470SOL    HW270989   9.118   5.253   3.150  1.3566  1.5546 -1.1462
23471SOL     OW70990   6.076   9.503   8.464  0.1319 -0.0410 -0.1101
23471SOL    HW170991   6.139   9.457   8.408 -1.4028  0.8610 -2.7638
23471SOL    HW270992   6.098   9.595   8.454 -0.7576  0.1947  0.0180
23472SOL     OW70993   6.448   9.555   0.084 -0.1680  0.1281 -0.5407
23472SOL    HW170994   6.478   9.486   0.143  1.1611  1.3261  0.2250
23472SOL    HW270995   6.436   9.631   0.140  0.0815  1.0074 -1.6470
23473SOL     OW70996   2.391   9.081   5.694 -0.1194 -0.1290  0.3497
23473SOL    HW170997   2.350   9.047   5.774  1.6173 -1.0526  0.9028
23473SOL    HW270998   2.322   9.133   5.652 -1.4879 -0.7063  1.7648
23474SOL     OW70999   8.194   7.169   1.219  0.1901  0.4456 -0.1512
23474SOL    HW171000   8.177   7.076   1.231  1.5741 -0.1843 -2.4514
23474SOL    HW271001   8.276   7.172   1.169 -0.5795  2.8425 -1.3996
23475SOL     OW71002   5.902   9.937   6.740  0.3676  0.0743 -0.1144
23475SOL    HW171003   5.814   9.911   6.766  0.5464  0.3607  0.8174
23475SOL    HW271004   5.958   9.865   6.768  0.4797  0.0527 -0.3849
23476SOL     OW71005   7.242   9.635   5.461  0.2412  0.1301  0.4019
23476SOL    HW171006   7.238   9.567   5.394  2.5682  0.8054 -0.5194
23476SOL    HW271007   7.321   9.614   5.511  1.1869  2.3053 -0.0993
23477SOL     OW71008   2.419   7.197   4.852  0.4318 -0.0355 -0.3144
23477SOL    HW171009   2.335   7.218   4.894 -0.4069 -2.1942 -0.8012
23477SOL    HW271010   2.426   7.260   4.781 -0.1255  1.0101  0.5211
23478SOL     OW71011   9.160   5.340   9.403 -0.2815  0.4543  0.4477
23478SOL    HW171012   9.111   5.317   9.324 -2.6772  0.2024  1.9387
23478SOL    HW271013   9.153   5.262   9.458  0.4286  1.0393  1.3826
23479SOL     OW71014   8.620   5.956   4.113  0.7028 -0.1264  0.3509
23479SOL    HW171015   8.599   5.875   4.066 -0.8946 -0.3793  1.4235
23479SOL    HW271016   8.623   6.023   4.045 -3.3836 -0.1358 -0.0798
23480SOL     OW71017   4.569   5.059   2.107 -0.0359 -0.3484  0.2648
23480SOL    HW171018   4.660   5.050   2.137  0.1094 -1.9696 -0.5942
23480SOL    HW271019   4.570   5.139   2.055  0.7964 -0.1077  0.6209
23481SOL     OW71020   5.059   6.348   2.673 -0.1354 -1.1350 -0.5865
23481SOL    HW171021   5.066   6.318   2.763  0.4135  1.5546  0.3626
23481SOL    HW271022   5.147   6.333   2.637  0.2109 -0.4482 -0.0484
23482SOL     OW71023   0.163   1.344   2.422 -0.4319  0.2154  0.1230
23482SOL    HW171024   0.206   1.416   2.468  0.2470 -1.1028  1.6480
23482SOL    HW271025   0.072   1.371   2.416 -0.3221  0.9304  1.2783
23483SOL     OW71026   8.420   2.697   3.989  0.2319 -0.2391  0.6583
23483SOL    HW171027   8.399   2.788   4.012 -0.8122 -0.1405 -0.5765
23483SOL    HW271028   8.431   2.699   3.893 -0.2940 -1.5080  0.5628
23484SOL     OW71029   7.783   0.338   2.281  0.4336 -0.2253 -0.2866
23484SOL    HW171030   7.868   0.348   2.324  1.1429  2.3230 -2.0161
23484SOL    HW271031   7.722   0.381   2.340  0.2210 -2.2699  1.0782
23485SOL     OW71032   7.388   5.977   6.272  0.3184  0.6677  0.9099
23485SOL    HW171033   7.472   5.932   6.256  1.3692  2.9126 -0.2732
23485SOL    HW271034   7.381   5.980   6.367 -0.0154 -2.2511  1.0883
23486SOL     OW71035   8.939   7.782   2.253  0.1900  0.2216 -0.0091
23486SOL    HW171036   9.024   7.757   2.218 -0.3906 -0.5222 -0.9368
23486SOL    HW271037   8.947   7.768   2.347  0.6645 -1.1963 -0.2361
23487SOL     OW71038   8.996   1.874   5.820  0.0292 -0.3681 -0.3566
23487SOL    HW171039   8.925   1.904   5.764  0.6673  0.5083 -0.7258
23487SOL    HW271040   9.035   1.955   5.854  0.4347 -0.8546  0.3551
23488SOL     OW71041   7.859   7.887   8.576 -0.6827 -0.1190 -0.0748
23488SOL    HW171042   7.941   7.877   8.528  0.1973  0.7280  1.1578
23488SOL    HW271043   7.874   7.840   8.658 -1.4484  0.0160  0.1516
23489SOL     OW71044   2.821   4.980   5.870  0.0656 -0.7643  0.4137
23489SOL    HW171045   2.814   4.955   5.778  2.4200 -0.5644  0.1153
23489SOL    HW271046   2.755   5.048   5.882 -0.5509 -1.0759 -1.0094
23490SOL     OW71047   4.681   4.284   2.537  0.0311  0.9242  0.4229
23490SOL    HW171048   4.701   4.334   2.458 -0.8425  1.4430  0.5178
23490SOL    HW271049   4.719   4.198   2.521 -2.0360  0.2769 -1.5417
23491SOL     OW71050   5.922   4.466   0.278  0.4342 -0.5866  0.1140
23491SOL    HW171051   6.012   4.432   0.279 -0.1354 -2.2517 -1.1197
23491SOL    HW271052   5.925   4.536   0.213  0.7922 -0.8054 -0.1107
23492SOL     OW71053   8.316   1.860   2.856  0.1875 -0.3502 -0.3741
23492SOL    HW171054   8.371   1.909   2.918 -0.3362  1.7090 -1.4304
23492SOL    HW271055   8.228   1.867   2.892 -0.0760  0.6188 -1.1404
23493SOL     OW71056   0.142   0.402   2.894 -0.2409 -0.0192 -0.4197
23493SOL    HW171057   0.237   0.411   2.889 -0.3087  1.4347  0.3189
23493SOL    HW271058   0.128   0.333   2.958  0.3086 -0.8926 -1.2140
23494SOL     OW71059   8.512   4.641   4.225 -0.1340  0.2905 -0.5399
23494SOL    HW171060   8.597   4.676   4.197  1.7469 -3.0718  0.5005
23494SOL    HW271061   8.509   4.659   4.319  0.5488 -1.5884 -0.1257
23495SOL     OW71062   1.103   6.633   8.811  0.0478  0.0762  0.5410
23495SOL    HW171063   1.021   6.680   8.827 -0.1735 -0.4460  0.9303
23495SOL    HW271064   1.169   6.702   8.808 -0.4478  0.5391 -0.1334
23496SOL     OW71065   5.831   1.425   3.652  0.4695  0.0493  0.0948
23496SOL    HW171066   5.749   1.457   3.690  0.7026  0.1660  0.5061
23496SOL    HW271067   5.863   1.498   3.598  0.8229  0.3943  0.7558
23497SOL     OW71068   7.213   4.859   3.956 -0.7757  0.0771 -0.0761
23497SOL    HW171069   7.294   4.873   3.907 -1.6099 -2.2055 -2.3159
23497SOL    HW271070   7.238   4.866   4.048  1.0397  3.7421 -0.6430
23498SOL     OW71071   5.358   6.740   6.667  0.2901  0.4464  0.2884
23498SOL    HW171072   5.355   6.835   6.674 -0.6030  0.3765  1.0268
23498SOL    HW271073   5.413   6.723   6.590 -0.3696  1.5725 -0.4530
23499SOL     OW71074   8.607   4.330   9.525 -0.0261 -0.1507  0.4660
23499SOL    HW171075   8.540   4.327   9.457 -0.1889  0.8704  0.5577
23499SOL    HW271076   8.668   4.260   9.503 -1.3131 -1.3526  0.5842
23500SOL     OW71077   4.063   1.074   3.425 -0.0163  0.3511 -0.3195
23500SOL    HW171078   4.150   1.090   3.462  1.2746 -0.2184 -2.8761
23500SOL    HW271079   4.027   1.161   3.412  0.3371  0.6110  0.3679
23501SOL     OW71080   4.212   3.611   2.429 -0.1552 -1.0631 -0.3266
23501SOL    HW171081   4.290   3.664   2.447  0.8726 -1.2411 -3.6503
23501SOL    HW271082   4.236   3.523   2.460 -1.1453 -0.2083  3.4149
23502SOL     OW71083   5.055   3.070   9.897  0.0558 -0.0966 -0.5828
23502SOL    HW171084   5.098   2.986   9.885 -0.8798 -0.7097  0.1902
23502SOL    HW271085   5.004   3.083   9.817  0.7785  0.1119 -1.0240
23503SOL     OW71086   6.476   4.845   3.291  0.0135  0.2611 -0.3204
23503SOL    HW171087   6.487   4.751   3.306  1.5574  0.3804 -0.5526
23503SOL    HW271088   6.474   4.883   3.379 -0.7434  0.0098 -0.2233
23504SOL     OW71089   5.859   3.607   3.962 -0.4855  0.2554  0.9884
23504SOL    HW171090   5.937   3.553   3.950  1.1969  2.0374  3.0620
23504SOL    HW271091   5.875   3.685   3.910 -0.7412  0.7477  1.6300
23505SOL     OW71092   1.912   2.682   5.628 -0.5850 -0.0403  0.0415
23505SOL    HW171093   1.874   2.603   5.665 -1.9486 -0.0665 -1.3181
23505SOL    HW271094   1.908   2.746   5.699 -0.3400 -0.9204  0.8587
23506SOL     OW71095   1.313   3.360   4.352 -0.0762  0.2983  0.2049
23506SOL    HW171096   1.303   3.433   4.292  0.1395  0.1961  0.0417
23506SOL    HW271097   1.382   3.306   4.313  0.5996  0.6214  0.9214
23507SOL     OW71098   3.116   7.091   9.789  0.1374 -0.7714 -0.6794
23507SOL    HW171099   3.163   7.079   9.706  0.2225  0.4586 -0.8242
23507SOL    HW271100   3.083   7.180   9.785 -1.1723 -1.2113 -0.0320
23508SOL     OW71101   8.234   9.971   1.081  0.1312 -0.1852  0.0535
23508SOL    HW171102   8.302   9.980   1.148 -0.3091 -1.0434  0.6260
23508SOL    HW271103   8.262   9.897   1.028  0.5329  0.5609 -0.7884
23509SOL     OW71104   7.890   6.254   3.121 -0.5390  0.1069  0.1384
23509SOL    HW171105   7.803   6.215   3.126 -0.4255 -0.3473 -1.0425
23509SOL    HW271106   7.949   6.184   3.149 -0.3773 -0.4367 -1.4714
23510SOL     OW71107   0.718   1.564   5.382  0.2719  0.0796  0.4508
23510SOL    HW171108   0.645   1.516   5.420 -1.1105  0.9644 -0.9477
23510SOL    HW271109   0.709   1.551   5.288  1.0140  1.4474  0.1574
23511SOL     OW71110   5.941   8.726   4.858  0.4035  0.5496 -0.1212
23511SOL    HW171111   5.855   8.686   4.874  0.2336  1.2347  0.7640
23511SOL    HW271112   5.924   8.820   4.856  0.8182  0.6132 -2.0792
23512SOL     OW71113   6.871   6.668   3.119  0.3976  0.0136 -0.0075
23512SOL    HW171114   6.857   6.574   3.119  0.1987  0.0433 -0.1803
23512SOL    HW271115   6.807   6.702   3.182 -2.9100  0.5248 -3.3344
23513SOL     OW71116   7.946   1.385   8.466 -0.7932  0.3644  0.0872
23513SOL    HW171117   8.004   1.336   8.407 -0.7040 -0.3881  0.7819
23513SOL    HW271118   8.000   1.404   8.542 -0.8413  1.5308 -0.1471
23514SOL     OW71119   7.004   0.334   7.731  0.0669  0.1248  0.5377
23514SOL    HW171120   7.043   0.422   7.739 -0.4609  0.3836  0.3049
23514SOL    HW271121   7.033   0.288   7.810  2.1554 -0.2129 -0.3751
23515SOL     OW71122   2.589   6.408   4.611 -0.5966 -0.8261  0.4256
23515SOL    HW171123   2.668   6.385   4.561 -1.9031 -1.0407 -1.6414
23515SOL    HW271124   2.540   6.465   4.553 -2.9705 -2.3980  0.7424
23516SOL     OW71125   7.664   2.711   0.445 -0.1330  0.8057  0.0417
23516SOL    HW171126   7.717   2.781   0.482  0.5785  0.8653 -1.0440
23516SOL    HW271127   7.717   2.632   0.458 -0.3166  0.6784  0.0196
23517SOL     OW71128   0.659   4.899   7.152  0.2097 -0.0549  0.2645
23517SOL    HW171129   0.634   4.989   7.175 -0.2614 -0.4868  1.5481
23517SOL    HW271130   0.643   4.849   7.232  1.3734 -1.1173 -0.1391
23518SOL     OW71131   6.866   7.795   4.163 -0.0103  0.0723 -0.1432
23518SOL    HW171132   6.890   7.709   4.128 -0.8640 -1.1776  2.0903
23518SOL    HW271133   6.773   7.804   4.140 -0.6046 -0.8071  1.7383
23519SOL     OW71134   7.899   8.797   7.391  0.0201 -0.1530  0.0754
23519SOL    HW171135   7.847   8.876   7.377  1.5004  0.9407  0.4889
23519SOL    HW271136   7.893   8.780   7.485 -1.2117 -1.2189 -0.1747
23520SOL     OW71137   2.316   8.153   8.923 -0.0986 -0.5282 -0.1855
23520SOL    HW171138   2.303   8.141   9.017  0.2053  0.0231 -0.0671
23520SOL    HW271139   2.409   8.173   8.914 -0.2220 -0.1028 -0.5520
23521SOL     OW71140   4.193   6.057   2.334 -0.3216 -0.3979 -0.4045
23521SOL    HW171141   4.194   6.061   2.430 -0.1462 -2.0925 -0.3009
23521SOL    HW271142   4.201   5.964   2.314  1.2374  0.0552 -2.1069
23522SOL     OW71143   9.218   6.762   3.466  0.0918  0.1674  0.1280
23522SOL    HW171144   9.205   6.747   3.560 -0.3412 -0.4782 -0.0272
23522SOL    HW271145   9.153   6.828   3.443 -1.8491 -1.7513 -0.2753
23523SOL     OW71146   2.330   7.992   1.176 -0.1373 -0.0072 -0.3872
23523SOL    HW171147   2.412   8.041   1.174 -0.6016  0.7997 -0.4310
23523SOL    HW271148   2.294   8.011   1.262  0.0940 -1.0064 -0.0608
23524SOL     OW71149   9.656   1.909   4.287 -0.7556 -0.0345  0.5537
23524SOL    HW171150   9.724   1.898   4.354 -0.2525 -0.2057  0.0287
23524SOL    HW271151   9.687   1.856   4.214 -1.0322  0.5626 -0.0023
23525SOL     OW71152   1.465   8.747   6.268 -0.0846 -0.3336  0.4147
23525SOL    HW171153   1.540   8.710   6.222 -1.4308 -1.9751 -0.5983
23525SOL    HW271154   1.457   8.836   6.233 -0.6569 -1.3062 -2.1256
23526SOL     OW71155   9.536   5.728   2.413 -0.6349 -0.0471 -0.1221
23526SOL    HW171156   9.505   5.791   2.478  1.0223  0.9273 -0.1890
23526SOL    HW271157   9.460   5.676   2.391 -1.3314 -0.1945  2.3457
23527SOL     OW71158   7.475   7.109   8.620  0.1575  0.3981 -0.0049
23527SOL    HW171159   7.508   7.045   8.683  2.4108  0.4146 -1.0741
23527SOL    HW271160   7.510   7.193   8.651  0.3311  0.5609 -0.6290
23528SOL     OW71161   0.317   9.162   2.169  0.2446 -0.1765 -0.4357
23528SOL    HW171162   0.255   9.110   2.218  0.0600 -0.9413 -1.4569
23528SOL    HW271163   0.398   9.110   2.169  0.6440  0.4198  0.1552
23529SOL     OW71164   6.703   7.880   8.582 -0.1735 -0.4524 -0.0782
23529SOL    HW171165   6.792   7.908   8.605 -0.0475 -1.1355  0.2906
23529SOL    HW271166   6.702   7.786   8.602 -0.8981 -0.5015 -0.3338
23530SOL     OW71167   7.326   3.999   2.699  0.0289  0.2920  0.3021
23530SOL    HW171168   7.377   3.932   2.652 -2.3233 -1.4632  0.0998
23530SOL    HW271169   7.348   3.984   2.791  2.9906  2.3448  0.0906
23531SOL     OW71170   8.599   1.008   0.776  0.1505  0.7920  0.2187
23531SOL    HW171171   8.638   1.039   0.695 -1.9599  1.6131 -0.5639
23531SOL    HW271172   8.596   1.084   0.833 -0.5283  0.8115  0.1638
23532SOL     OW71173   1.166   1.323   1.661 -0.1037  0.3903  0.6131
23532SOL    HW171174   1.151   1.395   1.723 -0.6082  0.4608  0.4140
23532SOL    HW271175   1.083   1.275   1.660 -0.4135  0.8933 -0.6456
23533SOL     OW71176   4.450   7.414   0.213 -0.5392  0.1988 -0.5409
23533SOL    HW171177   4.495   7.410   0.128 -0.2775  1.4376 -0.4843
23533SOL    HW271178   4.518   7.393   0.277 -0.6892 -0.5419 -0.6197
23534SOL     OW71179   6.639   6.876   0.235  0.1160  0.4490  0.1547
23534SOL    HW171180   6.715   6.932   0.221  0.7325 -0.4582 -0.2226
23534SOL    HW271181   6.603   6.862   0.148 -0.2174  0.4977  0.2817
23535SOL     OW71182   9.601   0.449   1.513 -0.6299 -0.3623 -0.0245
23535SOL    HW171183   9.621   0.417   1.424  2.6357  0.6194  0.2277
23535SOL    HW271184   9.574   0.540   1.500 -2.0890 -0.7792 -0.1047
23536SOL     OW71185   4.833   8.908   6.922  0.1696  0.0457  0.5125
23536SOL    HW171186   4.815   8.851   6.848  0.3962  0.3142  0.2442
23536SOL    HW271187   4.787   8.989   6.902  0.5770  0.2691  0.4577
23537SOL     OW71188   0.308   5.986   0.436 -0.1078  0.0953  0.2637
23537SOL    HW171189   0.357   5.939   0.368  0.6665 -1.3200  1.7377
23537SOL    HW271190   0.254   6.048   0.387  0.0498 -1.1928 -1.6761
23538SOL     OW71191   5.055   8.956   9.196  0.5369 -0.1342  0.0725
23538SOL    HW171192   5.094   9.022   9.253 -1.5301  0.5200  0.8405
23538SOL    HW271193   5.033   8.884   9.256 -2.1799  0.7886  0.3651
23539SOL     OW71194   3.402   2.689   1.279  0.2653  0.0653  0.3053
23539SOL    HW171195   3.319   2.653   1.248  0.2624 -0.3254  0.7591
23539SOL    HW271196   3.468   2.626   1.251  0.7069  1.4191 -1.9680
23540SOL     OW71197   5.205   9.012   7.408  0.2601 -0.0504 -0.1575
23540SOL    HW171198   5.201   9.064   7.488 -2.4125 -2.1763  1.2789
23540SOL    HW271199   5.117   9.017   7.371 -0.0607 -3.1499 -0.0988
23541SOL     OW71200   8.497   0.414   8.883 -0.5975 -0.2659 -0.4740
23541SOL    HW171201   8.434   0.374   8.823 -1.8650 -0.1169  0.7034
23541SOL    HW271202   8.454   0.411   8.968  1.1727 -0.5341  0.4698
23542SOL     OW71203   3.023   5.355   7.406 -0.1549  0.2678  0.5942
23542SOL    HW171204   3.065   5.399   7.332 -1.5078  0.4358 -0.0870
23542SOL    HW271205   2.966   5.422   7.445 -2.3295 -0.8502 -0.5152
23543SOL     OW71206   2.226   8.160   5.238  0.7290  0.1562  0.3130
23543SOL    HW171207   2.311   8.192   5.270  0.6124  1.3185 -0.4578
23543SOL    HW271208   2.205   8.219   5.166 -0.8284 -0.0213  0.6033
23544SOL     OW71209   9.247   4.511   3.736 -0.3034 -0.5122 -0.6255
23544SOL    HW171210   9.306   4.564   3.788  0.0251 -0.8700 -0.6281
23544SOL    HW271211   9.182   4.478   3.798 -0.7966  0.2785 -0.7055
23545SOL     OW71212   2.220   1.275   1.092  0.3156  0.5431  0.4305
23545SOL    HW171213   2.308   1.241   1.073  0.4463  0.7548  0.6600
23545SOL    HW271214   2.232   1.369   1.101  0.2043  0.4778  1.2936
23546SOL     OW71215   7.047   6.319   5.693  0.1715  0.2577 -0.4214
23546SOL    HW171216   7.054   6.288   5.603  1.2279  0.8214 -0.5532
23546SOL    HW271217   7.137   6.345   5.717  0.0355 -0.4933  1.0198
23547SOL     OW71218   7.001   8.752   3.901  0.6258 -0.2843 -0.1336
23547SOL    HW171219   7.081   8.774   3.852  1.3357  1.3404  1.6270
23547SOL    HW271220   6.967   8.836   3.930 -0.5370 -1.1065  0.9749
23548SOL     OW71221   3.452   0.602   3.683 -0.1688 -0.1683 -0.3126
23548SOL    HW171222   3.483   0.691   3.665  1.2762 -0.7430 -0.7808
23548SOL    HW271223   3.468   0.554   3.602 -2.2834 -0.5370 -0.5714
23549SOL     OW71224   8.473   8.898   4.085  0.0756 -0.2885  0.3611
23549SOL    HW171225   8.544   8.899   4.149 -0.1978 -1.7781  0.7216
23549SOL    HW271226   8.470   8.987   4.051  1.4982  0.0330  1.0179
23550SOL     OW71227   8.911   0.028   4.203  0.1190 -0.0856 -0.1940
23550SOL    HW171228   8.822   0.040   4.170 -0.7271 -0.4565  1.8392
23550SOL    HW271229   8.953   0.114   4.191 -0.8968  0.4432 -0.0531
23551SOL     OW71230   4.887   0.683   0.292 -0.7837  0.4275 -0.1443
23551SOL    HW171231   4.827   0.620   0.333 -0.8812  0.4359 -0.2738
23551SOL    HW271232   4.908   0.644   0.207 -2.0248  1.2695 -0.8728
23552SOL     OW71233   0.404   0.502   0.754  0.3729  0.3064 -0.7488
23552SOL    HW171234   0.439   0.422   0.716 -0.9676 -0.7262  0.1078
23552SOL    HW271235   0.321   0.517   0.709  0.1047  0.6078 -0.1727
23553SOL     OW71236   7.460   6.084   8.926  0.0768 -0.6397  0.7048
23553SOL    HW171237   7.446   6.026   9.001  1.8076 -2.1963 -0.0848
23553SOL    HW271238   7.555   6.081   8.911  0.1578  1.9912  0.2387
23554SOL     OW71239   2.736   3.661   6.060 -0.0961 -0.0115  0.0934
23554SOL    HW171240   2.712   3.601   5.988 -3.2291  3.6226 -2.3066
23554SOL    HW271241   2.826   3.686   6.041 -0.5844  0.2375 -2.1842
23555SOL     OW71242   8.137   8.496   5.780 -0.1961  0.0669 -0.0466
23555SOL    HW171243   8.094   8.435   5.720 -0.8342  0.5170 -0.0544
23555SOL    HW271244   8.202   8.443   5.826 -1.3919 -0.8636  0.6455
23556SOL     OW71245   9.065   6.454   0.308  0.2403  0.5419 -0.6830
23556SOL    HW171246   9.021   6.389   0.252 -0.7901  0.4632  0.1918
23556SOL    HW271247   9.152   6.464   0.269 -0.2363  0.0387 -1.9458
23557SOL     OW71248   5.187   7.953   6.420  0.9886 -0.9633 -0.3195
23557SOL    HW171249   5.261   7.931   6.476  1.9931 -1.0031 -1.6012
23557SOL    HW271250   5.120   7.889   6.443  1.0889 -0.5321  1.3160
23558SOL     OW71251   4.986   5.922   8.964  0.3153  0.6548 -0.0212
23558SOL    HW171252   5.063   5.867   8.947  0.6417  1.5668 -1.7218
23558SOL    HW271253   4.971   5.913   9.058  1.8362 -0.4143  0.1644
23559SOL     OW71254   6.968   2.028   4.578  0.1387 -0.3736  0.5681
23559SOL    HW171255   6.915   2.107   4.583  0.9049  0.1014  1.3756
23559SOL    HW271256   6.908   1.957   4.599 -0.4412  0.0392  0.3238
23560SOL     OW71257   1.502   9.589   5.847 -0.7097  0.6750 -0.0331
23560SOL    HW171258   1.523   9.572   5.939 -0.6788  0.8911 -0.0004
23560SOL    HW271259   1.471   9.680   5.846 -3.8408 -0.2577  0.3125
23561SOL     OW71260   1.639   8.684   9.009  0.1017 -0.4463 -0.2117
23561SOL    HW171261   1.549   8.658   9.030  0.0792 -1.0353 -0.9840
23561SOL    HW271262   1.628   8.759   8.950  0.1665  1.4586  2.0501
23562SOL     OW71263   8.892   1.142   2.775 -0.5384 -0.8715  0.3109
23562SOL    HW171264   8.870   1.193   2.853  1.6029 -0.4445  0.6887
23562SOL    HW271265   8.955   1.077   2.805 -0.3816 -1.3131 -0.8988
23563SOL     OW71266   4.269   5.243   7.639  0.5532 -0.2000 -0.2810
23563SOL    HW171267   4.229   5.264   7.555 -0.2960 -0.1163  0.1355
23563SOL    HW271268   4.209   5.182   7.680  0.7821  0.0279  0.4106
23564SOL     OW71269   5.647   0.402   0.219  0.2546  0.4112  0.1591
23564SOL    HW171270   5.557   0.377   0.202  0.6449  0.3006 -2.1590
23564SOL    HW271271   5.645   0.498   0.220  0.2086  0.4239 -0.6417
23565SOL     OW71272   8.725   6.819   4.829 -0.5548  0.0988  0.2207
23565SOL    HW171273   8.785   6.870   4.884  0.6830  0.4898 -1.4361
23565SOL    HW271274   8.716   6.735   4.875  2.1789 -0.4054 -0.0026
23566SOL     OW71275   7.406   6.411   2.649  0.0395  0.3505 -0.6217
23566SOL    HW171276   7.403   6.349   2.577 -0.1154  1.5604 -1.6829
23566SOL    HW271277   7.338   6.475   2.629 -1.5708 -0.4624  1.7261
23567SOL     OW71278   5.873   0.577   1.839 -0.3486  0.3760 -0.7327
23567SOL    HW171279   5.915   0.496   1.866 -4.0664 -1.7280 -0.5483
23567SOL    HW271280   5.898   0.641   1.906  1.0573 -1.1516  0.2803
23568SOL     OW71281   3.089   3.736   3.030 -0.6740  0.2519  0.2385
23568SOL    HW171282   3.062   3.649   3.062  0.2102  0.0931  0.5724
23568SOL    HW271283   3.143   3.771   3.101  1.3355 -0.1059 -1.0563
23569SOL     OW71284   5.176   4.371   7.787  0.0804  0.3595 -0.7606
23569SOL    HW171285   5.086   4.371   7.753  0.3253  0.1379 -1.4170
23569SOL    HW271286   5.179   4.447   7.846 -0.7607 -0.0827 -0.1246
23570SOL     OW71287   6.756   4.341   0.650  0.1504  0.1650 -0.2669
23570SOL    HW171288   6.807   4.276   0.604 -2.4128 -1.7762 -0.6037
23570SOL    HW271289   6.730   4.404   0.583 -1.1396 -1.0415 -0.9381
23571SOL     OW71290   7.991   6.230   4.101 -0.5293 -0.3352  0.5680
23571SOL    HW171291   8.083   6.257   4.103 -0.6394  0.3220 -1.2380
23571SOL    HW271292   7.994   6.134   4.105  0.4521 -0.4976 -2.1050
23572SOL     OW71293   4.416   1.874   6.740 -0.6843  0.1713 -0.2329
23572SOL    HW171294   4.484   1.812   6.767 -1.0492  0.1618  0.7039
23572SOL    HW271295   4.386   1.842   6.655  2.0889  1.4828 -1.8507
23573SOL     OW71296   4.149   7.523   3.281  0.2700 -0.9178  0.0220
23573SOL    HW171297   4.149   7.486   3.192  1.0556  0.1962 -0.4621
23573SOL    HW271298   4.148   7.618   3.267  1.6613 -0.7133  1.1858
23574SOL     OW71299   1.747   9.798   5.322 -0.5822 -0.1163 -0.4880
23574SOL    HW171300   1.699   9.853   5.385  0.2859  1.1771 -0.9184
23574SOL    HW271301   1.829   9.845   5.307  0.8358 -2.2381  0.1660
23575SOL     OW71302   3.207   9.738   1.482 -0.1482  0.0376 -0.2244
23575SOL    HW171303   3.171   9.824   1.502 -1.2730 -0.3580 -0.4937
23575SOL    HW271304   3.299   9.745   1.507  0.3597  2.0166 -2.2492
23576SOL     OW71305   7.240   3.183   1.163  0.3590  0.3201  0.0501
23576SOL    HW171306   7.322   3.144   1.193 -0.0789 -1.5084 -0.9850
23576SOL    HW271307   7.187   3.109   1.136 -0.5376  1.6309 -2.0228
23577SOL     OW71308   8.100   3.194   9.804  0.2858 -0.0223  0.1206
23577SOL    HW171309   8.130   3.251   9.874  0.1713 -0.6480  0.6862
23577SOL    HW271310   8.029   3.143   9.843 -1.0019  0.8723 -0.9634
23578SOL     OW71311   1.151   0.168   3.814  0.3818 -0.1140 -0.6887
23578SOL    HW171312   1.107   0.086   3.838  1.4938 -0.9381 -1.3388
23578SOL    HW271313   1.180   0.154   3.724  0.5741  1.0155 -0.8155
23579SOL     OW71314   9.800   8.514   2.023  0.4805 -0.7804 -0.0850
23579SOL    HW171315   9.766   8.545   2.107  2.1962  1.1047 -0.0172
23579SOL    HW271316   9.797   8.591   1.965  0.4726 -1.7246 -1.3882
23580SOL     OW71317   8.373   4.433   7.942 -0.0056  0.0056  0.5519
23580SOL    HW171318   8.455   4.386   7.925 -0.3942 -1.4008  2.3024
23580SOL    HW271319   8.316   4.409   7.869  0.1505 -1.4712  0.8982
23581SOL     OW71320   7.230   9.600   3.864 -0.0602  0.0744  0.4712
23581SOL    HW171321   7.296   9.663   3.833 -0.2299  0.1766  0.3115
23581SOL    HW271322   7.202   9.554   3.785  0.8198 -0.9334  0.7358
23582SOL     OW71323   2.653   6.845   4.682 -0.3469 -0.2779  0.1148
23582SOL    HW171324   2.702   6.768   4.655 -0.0007  0.0665 -0.2485
23582SOL    HW271325   2.581   6.810   4.735 -0.2874 -0.8585 -0.1816
23583SOL     OW71326   9.224   8.803   3.311  0.7389  0.7059 -0.1957
23583SOL    HW171327   9.150   8.758   3.271 -0.8133  0.8999  2.2708
23583SOL    HW271328   9.188   8.886   3.342  2.3099  1.3813 -0.0876
23584SOL     OW71329   2.385   3.152   6.567 -0.3116  0.6569 -0.0091
23584SOL    HW171330   2.433   3.100   6.631  0.1397  0.2569 -0.6642
23584SOL    HW271331   2.417   3.241   6.579 -2.4896  1.2541  2.4881
23585SOL     OW71332   0.498   1.211   0.971  0.7413  0.3688 -0.0939
23585SOL    HW171333   0.587   1.178   0.983  0.8330  0.6767  0.0909
23585SOL    HW271334   0.468   1.229   1.060 -0.2270 -1.5815  0.0223
23586SOL     OW71335   8.599   0.481   9.325 -0.1280 -0.1535  1.0579
23586SOL    HW171336   8.574   0.401   9.278 -0.1268  0.7189 -0.4914
23586SOL    HW271337   8.603   0.548   9.258  0.0969  1.1242  2.2963
23587SOL     OW71338   7.760   8.380   8.040 -0.0947 -0.0903  0.0241
23587SOL    HW171339   7.776   8.309   7.978  1.4655  1.0943 -1.0060
23587SOL    HW271340   7.674   8.361   8.076 -0.5815 -1.4176 -1.6971
23588SOL     OW71341   9.240   5.234   3.424  0.5847  0.1700  0.1712
23588SOL    HW171342   9.287   5.166   3.472  1.4985  1.3315  0.9607
23588SOL    HW271343   9.247   5.207   3.332  1.7136 -0.3520  0.3948
23589SOL     OW71344   3.114   0.808   4.996  0.1982 -0.2158 -0.6934
23589SOL    HW171345   3.099   0.733   4.939  0.2278 -0.1806 -0.7468
23589SOL    HW271346   3.101   0.885   4.940  0.6380 -0.1832 -0.7583
23590SOL     OW71347   6.581   7.309   7.376  1.1399 -0.3063  0.3815
23590SOL    HW171348   6.491   7.311   7.344 -0.0350 -0.0872  3.3666
23590SOL    HW271349   6.611   7.220   7.359 -0.7993 -1.3589  2.0481
23591SOL     OW71350   2.234   7.157   4.328  0.0094 -0.3793 -0.2827
23591SOL    HW171351   2.222   7.203   4.245 -0.5841  0.2505  0.1463
23591SOL    HW271352   2.324   7.179   4.354  0.9589 -2.2153 -1.7282
23592SOL     OW71353   6.927   8.913   8.464  0.0791 -0.0111 -0.1580
23592SOL    HW171354   6.925   9.000   8.506 -1.6408 -0.1276  0.0963
23592SOL    HW271355   7.002   8.869   8.504 -0.5243  0.4711  1.6117
23593SOL     OW71356   5.649   2.535   3.791  0.4671 -0.2598 -0.2146
23593SOL    HW171357   5.688   2.470   3.732  0.5972 -1.6204  1.3051
23593SOL    HW271358   5.663   2.499   3.879  2.5133  2.8869  0.8906
23594SOL     OW71359   6.818   6.373   4.366  0.3157 -1.1566 -0.1133
23594SOL    HW171360   6.731   6.394   4.401  1.0122  0.1081  0.9795
23594SOL    HW271361   6.813   6.281   4.342 -1.8261 -0.7309 -1.6328
23595SOL     OW71362   8.670   6.648   2.869  0.1762  0.2324  0.3458
23595SOL    HW171363   8.649   6.555   2.867 -0.1876  0.3186 -1.2420
23595SOL    HW271364   8.759   6.652   2.902 -0.2086 -0.5812  1.5515
23596SOL     OW71365   6.234   0.762   0.632 -0.2827  0.5000 -0.2400
23596SOL    HW171366   6.303   0.828   0.641  0.4325 -0.3281  0.6667
23596SOL    HW271367   6.153   0.812   0.627  0.1834  1.4468  1.0721
23597SOL     OW71368   6.730   0.292   5.839 -0.1024 -0.7257  0.5867
23597SOL    HW171369   6.729   0.336   5.754 -2.6185 -2.0045 -0.1453
23597SOL    HW271370   6.782   0.213   5.824 -2.4553 -2.1564 -0.5374
23598SOL     OW71371   9.248   7.815   5.348 -1.1270 -0.5205 -0.0559
23598SOL    HW171372   9.276   7.903   5.325 -2.5607 -0.1381 -0.4275
23598SOL    HW271373   9.249   7.767   5.265 -2.6611 -0.1779 -0.2895
23599SOL     OW71374   1.362   3.124   6.627 -0.1905  0.1544  0.2807
23599SOL    HW171375   1.298   3.104   6.558  0.3741  1.0566 -0.5226
23599SOL    HW271376   1.438   3.070   6.606 -1.1186 -2.0304  2.0466
23600SOL     OW71377   3.762   8.241   4.339  0.5584 -0.1781  0.0143
23600SOL    HW171378   3.736   8.207   4.254  3.4313  0.8092 -1.3581
23600SOL    HW271379   3.726   8.330   4.342  1.4224  0.2025 -0.6891
23601SOL     OW71380   9.563   7.558   6.798  0.3291 -0.5430 -0.0633
23601SOL    HW171381   9.634   7.622   6.809  0.2155 -0.2385 -0.9633
23601SOL    HW271382   9.488   7.598   6.842  0.0127  0.3971 -1.3827
23602SOL     OW71383   0.233   8.260   5.235 -0.2134  0.2025  0.6548
23602SOL    HW171384   0.277   8.315   5.300  1.5483 -0.5203  0.1439
23602SOL    HW271385   0.302   8.237   5.172 -0.7516 -2.8644  1.0330
23603SOL     OW71386   5.733   8.998   5.929  0.6801 -0.3939 -0.3022
23603SOL    HW171387   5.808   9.058   5.934  0.9573 -0.8506  1.7221
23603SOL    HW271388   5.738   8.962   5.840  0.2269  2.8623 -1.8124
23604SOL     OW71389   8.479   0.665   6.760 -0.2028  0.1078 -0.0440
23604SOL    HW171390   8.489   0.598   6.827 -0.9462 -1.0028 -1.0025
23604SOL    HW271391   8.567   0.698   6.745  0.0652 -0.1321  0.9614
23605SOL     OW71392   2.540   3.993   7.171 -0.1631 -0.0183  0.4565
23605SOL    HW171393   2.602   4.054   7.130 -0.6522  0.0439 -0.2099
23605SOL    HW271394   2.594   3.923   7.207  0.2340 -0.6307 -1.2416
23606SOL     OW71395   7.571   2.199   6.939  0.1927 -0.1538  0.6631
23606SOL    HW171396   7.632   2.134   6.974 -0.5698 -0.3435  1.6763
23606SOL    HW271397   7.529   2.156   6.865  0.7781 -0.2712  0.3960
23607SOL     OW71398   7.435   1.075   3.362  0.1321  0.2727  0.2971
23607SOL    HW171399   7.441   0.993   3.412 -0.1834 -0.6402 -1.0965
23607SOL    HW271400   7.394   1.049   3.279 -2.5154  2.3109  0.8471
23608SOL     OW71401   5.482   6.983   3.104  0.3329  0.1537  0.1647
23608SOL    HW171402   5.521   7.036   3.173  0.7672  0.5650 -0.3852
23608SOL    HW271403   5.530   7.008   3.025 -1.6960  1.3958 -0.7357
23609SOL     OW71404   0.095   2.761   5.167 -0.4747 -0.4734 -0.8618
23609SOL    HW171405   0.094   2.836   5.227  0.6543 -0.4499 -0.8637
23609SOL    HW271406   0.085   2.685   5.223  2.1248 -0.5659 -0.4211
23610SOL     OW71407   6.542   3.099   8.511 -0.1261 -0.3966  0.2784
23610SOL    HW171408   6.473   3.157   8.478 -0.3364 -0.4573  0.6041
23610SOL    HW271409   6.624   3.141   8.486 -0.2795 -0.1110  0.2532
23611SOL     OW71410   5.175   7.663   2.415 -0.5125  0.1036  0.3020
23611SOL    HW171411   5.251   7.621   2.457 -0.5157 -0.7573 -0.5089
23611SOL    HW271412   5.200   7.755   2.407  0.9892 -0.3681 -1.0315
23612SOL     OW71413   8.522   4.964   3.193 -0.3069  0.3969 -0.0020
23612SOL    HW171414   8.527   5.008   3.277  1.3483 -0.0991  0.1916
23612SOL    HW271415   8.593   5.002   3.141  0.8624 -1.5861  0.0058
23613SOL     OW71416   8.765   7.251   0.084  0.2646 -0.2208 -0.5353
23613SOL    HW171417   8.772   7.261  -0.010 -2.6019 -1.4088 -0.9761
23613SOL    HW271418   8.821   7.176   0.105 -0.3450 -0.9811 -1.5662
23614SOL     OW71419   8.769   1.981   4.798  0.4062  0.4063  0.7641
23614SOL    HW171420   8.845   2.038   4.816  0.4359  0.3658  0.7657
23614SOL    HW271421   8.794   1.896   4.833  0.9377  0.0161 -0.5124
23615SOL     OW71422   8.728   6.513   5.210 -0.4822  0.3415 -0.5478
23615SOL    HW171423   8.741   6.419   5.218  1.3189  0.5368 -0.7910
23615SOL    HW271424   8.658   6.533   5.273  0.5311 -0.8615  1.0587
23616SOL     OW71425   7.915   1.938   7.336  0.1653 -0.8762 -0.0018
23616SOL    HW171426   7.877   1.936   7.424 -0.3862  0.0423 -0.2054
23616SOL    HW271427   7.839   1.936   7.277  0.4949 -0.6409 -0.4424
23617SOL     OW71428   2.520   4.103   6.807 -0.6498 -0.0281  0.2479
23617SOL    HW171429   2.554   4.066   6.725 -0.5798  1.3590 -0.3802
23617SOL    HW271430   2.598   4.133   6.853 -0.8680  2.0258 -0.6264
23618SOL     OW71431   0.113   0.753   0.837  0.5891  0.0728  0.5538
23618SOL    HW171432   0.044   0.818   0.841  0.9847  0.5881 -0.5265
23618SOL    HW271433   0.141   0.753   0.745  1.1633 -1.0204  0.7106
23619SOL     OW71434   2.233   7.477   6.694 -0.4801  0.6991  0.2009
23619SOL    HW171435   2.196   7.399   6.653 -0.8673  1.9658 -2.0602
23619SOL    HW271436   2.167   7.504   6.757 -0.9115 -0.1018  0.1057
23620SOL     OW71437   5.635   4.426   2.796  0.3065 -0.1168 -0.1624
23620SOL    HW171438   5.585   4.371   2.856  1.2294 -0.0774  0.6639
23620SOL    HW271439   5.683   4.486   2.853  0.3418  0.6668 -0.9932
23621SOL     OW71440   5.827   4.921   4.901  0.1118 -0.1738 -0.3297
23621SOL    HW171441   5.757   4.888   4.956  1.1145 -0.8527  0.5658
23621SOL    HW271442   5.906   4.915   4.955  0.9174  0.2966 -1.4105
23622SOL     OW71443   3.824   1.639   2.654  0.3323  0.0068 -0.2597
23622SOL    HW171444   3.912   1.633   2.692  0.3452  1.8079  0.0989
23622SOL    HW271445   3.785   1.716   2.696 -1.6946 -1.1274  0.0936
23623SOL     OW71446   2.458   1.946   5.071  0.2517 -0.5165 -0.3413
23623SOL    HW171447   2.459   2.036   5.037  1.2116 -0.3576  0.0552
23623SOL    HW271448   2.373   1.936   5.112  1.0320  1.1189  1.8965
23624SOL     OW71449   1.909   9.272   6.143  0.0705  0.1649 -0.3973
23624SOL    HW171450   1.957   9.355   6.148  0.4034 -0.0598  0.3175
23624SOL    HW271451   1.886   9.253   6.234  0.3968 -0.7602 -0.5001
23625SOL     OW71452   7.353   2.662   9.862  0.0796  0.2617 -0.0533
23625SOL    HW171453   7.291   2.640   9.792  1.2101  0.1166 -1.0421
23625SOL    HW271454   7.408   2.584   9.870 -0.5806 -0.0683  1.6420
23626SOL     OW71455   4.039   9.471   3.925 -0.7843  0.7026  0.2357
23626SOL    HW171456   3.993   9.418   3.860  0.4389 -0.3543  0.1794
23626SOL    HW271457   3.995   9.451   4.008  0.4937 -1.5626  0.4592
23627SOL     OW71458   9.592   2.839   8.145  0.3200  0.1931  0.2392
23627SOL    HW171459   9.639   2.923   8.143  1.1046 -0.2232 -2.0460
23627SOL    HW271460   9.652   2.777   8.104 -1.2246 -0.9296 -0.4144
23628SOL     OW71461   6.311   1.844   0.095  0.2637  0.3717 -0.6986
23628SOL    HW171462   6.237   1.904   0.089  0.6674  0.8745 -0.6699
23628SOL    HW271463   6.297   1.781   0.023 -0.2003  0.4472 -0.6764
23629SOL     OW71464   1.561   4.588   9.223  0.2373 -0.9526  0.2382
23629SOL    HW171465   1.508   4.599   9.302  1.2005 -1.0940  0.9302
23629SOL    HW271466   1.498   4.569   9.154 -0.9145  1.8146  0.3780
23630SOL     OW71467   6.662   1.645   1.030  0.3561  0.2503 -0.7137
23630SOL    HW171468   6.730   1.623   1.094 -0.9942  0.3227  0.8126
23630SOL    HW271469   6.686   1.732   0.999 -0.1280  1.2243  1.4292
23631SOL     OW71470   7.730   3.839   9.888  0.6080 -0.3053  0.2178
23631SOL    HW171471   7.763   3.924   9.917  1.5658 -1.2874  2.2293
23631SOL    HW271472   7.681   3.858   9.808  1.7913  1.9534 -0.0589
23632SOL     OW71473   8.220   2.716   7.784 -0.0289 -0.3026  0.4808
23632SOL    HW171474   8.201   2.701   7.876 -0.8260 -1.7350  0.1160
23632SOL    HW271475   8.165   2.791   7.759 -3.1198 -2.4631  0.2055
23633SOL     OW71476   8.156   9.797   7.263  0.1971 -0.3922  0.2309
23633SOL    HW171477   8.189   9.873   7.312 -0.6873  0.2003 -0.0881
23633SOL    HW271478   8.102   9.750   7.326 -1.6910  0.8623 -0.3922
23634SOL     OW71479   9.177   4.142   1.144 -0.1139  0.5756 -0.1761
23634SOL    HW171480   9.136   4.206   1.086  0.0748  0.1339 -0.8103
23634SOL    HW271481   9.268   4.170   1.151  0.4072 -0.5554 -1.8470
23635SOL     OW71482   8.954   2.231   6.509  0.7139  0.4979  0.0072
23635SOL    HW171483   8.931   2.319   6.539  1.3843  1.0753 -1.1149
23635SOL    HW271484   8.880   2.204   6.455 -0.5217 -0.5676  2.0984
23636SOL     OW71485   7.160   8.525   3.601 -0.3054  0.9217  0.0340
23636SOL    HW171486   7.224   8.533   3.531 -0.1086  2.7621  0.3491
23636SOL    HW271487   7.207   8.482   3.672  0.2722  1.3123 -0.1048
23637SOL     OW71488   0.585   7.248   7.598  0.0811 -0.1131 -0.3082
23637SOL    HW171489   0.502   7.272   7.556  0.6518  1.1314 -0.7754
23637SOL    HW271490   0.563   7.172   7.652 -1.6113  0.8276  0.4090
23638SOL     OW71491   2.412   0.729   1.838  0.0117  0.0797  0.5834
23638SOL    HW171492   2.472   0.759   1.770 -0.6627 -0.8888 -0.4666
23638SOL    HW271493   2.349   0.673   1.793 -0.6949 -0.2772  1.9364
23639SOL     OW71494   0.667   0.000   8.878  0.0478 -1.0277 -0.1320
23639SOL    HW171495   0.598   0.066   8.872  0.3083 -0.6850  0.5199
23639SOL    HW271496   0.748   0.051   8.879  0.3424 -1.4502 -1.3765
23640SOL     OW71497   5.550   2.569   2.730 -0.2129  0.7068  0.0842
23640SOL    HW171498   5.513   2.515   2.660  0.9194 -0.2925  0.2365
23640SOL    HW271499   5.618   2.621   2.687 -1.1486  1.8951 -0.0183
23641SOL     OW71500   7.492   6.526   7.303  0.8667  0.0066  0.0212
23641SOL    HW171501   7.485   6.508   7.209 -0.5030 -0.6936  0.2389
23641SOL    HW271502   7.495   6.622   7.308 -1.4466  0.1752 -0.6317
23642SOL     OW71503   7.187   5.420   2.343 -0.4228  0.1278 -0.3926
23642SOL    HW171504   7.122   5.412   2.273  0.3156  0.8841 -1.1947
23642SOL    HW271505   7.269   5.390   2.304  0.4285  2.3935 -0.5466
23643SOL     OW71506   6.906   8.317   4.723 -0.3774 -0.0589 -0.0652
23643SOL    HW171507   6.863   8.234   4.705 -0.1986  0.0184 -0.9164
23643SOL    HW271508   6.998   8.295   4.738  0.3628  0.2034 -3.3760
23644SOL     OW71509   5.532   0.361   0.606 -0.5469  0.1839  0.2574
23644SOL    HW171510   5.513   0.426   0.539 -0.4472 -0.1855 -0.1404
23644SOL    HW271511   5.612   0.392   0.648 -0.8752  0.6650  0.5296
23645SOL     OW71512   4.384   2.941   7.392 -0.0453 -0.4808  0.8818
23645SOL    HW171513   4.387   2.937   7.487  0.1095  0.9515  0.9559
23645SOL    HW271514   4.418   3.028   7.370  1.3571 -1.3268 -0.5613
23646SOL     OW71515   6.392   6.543   5.638 -0.3505  0.2913  0.6415
23646SOL    HW171516   6.417   6.560   5.547  0.3290  0.8261  0.9196
23646SOL    HW271517   6.436   6.461   5.660 -0.2637  0.3231  0.5852
23647SOL     OW71518   3.006   3.640   8.814 -0.3847  0.3709  0.3844
23647SOL    HW171519   3.046   3.567   8.767 -1.4015 -0.4931  0.8223
23647SOL    HW271520   2.924   3.656   8.768 -1.5479 -0.6883  1.9741
23648SOL     OW71521   2.947   2.545   8.220  0.7994 -0.4999  0.2055
23648SOL    HW171522   3.012   2.557   8.150  0.1638 -1.5462 -0.5965
23648SOL    HW271523   2.974   2.606   8.288  1.1537  0.9428 -1.1612
23649SOL     OW71524   1.794   6.155   1.307 -0.0996 -0.3556 -0.1282
23649SOL    HW171525   1.880   6.193   1.291 -0.0926  0.0806  0.8914
23649SOL    HW271526   1.737   6.230   1.324 -0.8145 -0.5973 -1.2988
23650SOL     OW71527   8.011   5.225   9.004 -0.1210  0.2422 -0.4616
23650SOL    HW171528   7.999   5.233   9.098  0.8309 -1.0448 -0.2133
23650SOL    HW271529   7.951   5.290   8.967 -1.3885 -0.0492  0.9809
23651SOL     OW71530   5.268   1.806   2.146  0.4999  0.2005  0.0916
23651SOL    HW171531   5.235   1.896   2.137  0.4828  0.2366  0.4930
23651SOL    HW271532   5.221   1.772   2.222 -0.3784 -0.5432 -0.7492
23652SOL     OW71533   5.317   6.585   5.319  0.3677  0.5587  0.3231
23652SOL    HW171534   5.321   6.575   5.224 -0.6565  0.8946  0.2222
23652SOL    HW271535   5.334   6.497   5.353  2.1559  0.7052 -0.0971
23653SOL     OW71536   1.225   1.217   6.032 -0.4669 -0.5987  0.7243
23653SOL    HW171537   1.152   1.262   5.990 -1.2204  0.5324  3.0434
23653SOL    HW271538   1.280   1.187   5.960 -3.4042 -1.9153 -1.1597
23654SOL     OW71539   4.875   2.262   6.881  0.6018  0.0917  0.2662
23654SOL    HW171540   4.869   2.286   6.788  1.3983 -2.8501 -0.6462
23654SOL    HW271541   4.784   2.259   6.911  0.2858  0.3311 -0.6390
23655SOL     OW71542   3.899   4.051   5.957  0.3341 -0.3199  0.2813
23655SOL    HW171543   3.882   4.105   6.034 -1.4095 -1.4309  0.7293
23655SOL    HW271544   3.943   3.973   5.992 -1.9711 -1.6078  0.4671
23656SOL     OW71545   8.727   8.144   8.750  0.6718  0.0625 -1.1339
23656SOL    HW171546   8.730   8.092   8.830  0.9187 -0.4077 -1.4430
23656SOL    HW271547   8.685   8.226   8.776 -0.6395 -0.6713 -0.8529
23657SOL     OW71548   6.450   9.080   8.453  0.3096 -0.5170 -0.3969
23657SOL    HW171549   6.422   9.082   8.545  1.1014  3.0843 -0.0870
23657SOL    HW271550   6.544   9.062   8.458  0.7269  1.4524 -0.2651
23658SOL     OW71551   1.529   6.458   3.147 -0.9867  0.3336  0.0342
23658SOL    HW171552   1.600   6.519   3.128 -0.1512 -0.2463  1.1481
23658SOL    HW271553   1.550   6.380   3.097 -1.4894  0.5685 -0.5592
23659SOL     OW71554   8.462   7.282   0.121 -0.0391 -0.4369 -0.1331
23659SOL    HW171555   8.554   7.280   0.149 -0.0712  3.6275  0.8673
23659SOL    HW271556   8.459   7.350   0.054 -2.0138 -2.1002 -1.8595
23660SOL     OW71557   9.649   1.888   0.714  0.2309  0.4440 -0.5140
23660SOL    HW171558   9.712   1.956   0.689  0.3422  0.7129  0.4425
23660SOL    HW271559   9.621   1.913   0.802 -1.0401  0.1972 -0.8228
23661SOL     OW71560   9.818   6.326   8.056  0.7736 -0.6370  0.3761
23661SOL    HW171561   9.861   6.248   8.092 -0.1756 -1.3730 -0.0055
23661SOL    HW271562   9.737   6.292   8.017  0.0947  0.6161  0.6296
23662SOL     OW71563   4.522   0.494   5.701  0.2590  0.3339  0.4462
23662SOL    HW171564   4.488   0.459   5.619  0.2031  2.4510 -0.4773
23662SOL    HW271565   4.511   0.422   5.763  0.3466 -1.3412 -1.3794
23663SOL     OW71566   2.199   7.330   2.554 -0.0453 -0.1631 -0.0673
23663SOL    HW171567   2.283   7.321   2.599  0.9642 -1.1493 -2.0141
23663SOL    HW271568   2.138   7.360   2.621  1.9218  0.8487  1.3472
23664SOL     OW71569   7.342   7.986   7.012  0.6268  0.4596 -0.0870
23664SOL    HW171570   7.432   8.011   6.994  0.9537  0.1630  1.0799
23664SOL    HW271571   7.325   7.913   6.951  0.5985  1.5846 -1.4860
23665SOL     OW71572   2.786   7.519   9.822  0.6477  0.0136  0.4340
23665SOL    HW171573   2.706   7.521   9.874  0.4385 -0.9193  0.1632
23665SOL    HW271574   2.834   7.596   9.850  0.2058 -0.0723  1.4846
23666SOL     OW71575   6.958   4.157   9.418 -0.1189  0.3821  0.3823
23666SOL    HW171576   6.958   4.106   9.337 -1.9053 -1.7006  1.5883
23666SOL    HW271577   6.888   4.221   9.406  2.4298  3.0829 -1.3200
23667SOL     OW71578   3.724   6.113   2.349 -0.8300  0.0901  0.3757
23667SOL    HW171579   3.760   6.066   2.274 -0.9114  0.4400  0.1083
23667SOL    HW271580   3.790   6.179   2.370 -1.7701  1.4966 -0.8481
23668SOL     OW71581   9.330   1.110   1.826 -0.4382 -0.1325 -0.1150
23668SOL    HW171582   9.254   1.067   1.788  0.0093 -1.1833  0.1464
23668SOL    HW271583   9.295   1.168   1.893 -1.0097 -0.4954 -0.0989
23669SOL     OW71584   7.234   9.187   6.696  0.0031  0.3756  0.4142
23669SOL    HW171585   7.293   9.262   6.694  2.1413 -1.2211  1.0310
23669SOL    HW271586   7.164   9.211   6.634  0.6032  2.8196  0.5610
23670SOL     OW71587   7.405   2.930   6.752 -0.0416  0.2705 -0.4111
23670SOL    HW171588   7.490   2.973   6.756  0.5076 -0.8368  0.3277
23670SOL    HW271589   7.419   2.845   6.794 -1.7070  0.3725  0.4241
23671SOL     OW71590   9.099   3.886   2.008 -0.2367 -0.3933  0.0698
23671SOL    HW171591   9.083   3.874   2.101 -1.3809 -0.4635 -0.1190
23671SOL    HW271592   9.134   3.975   2.001 -1.1891  0.0216  0.4626
23672SOL     OW71593   4.883   9.447   5.646 -0.3052 -0.6958  0.0081
23672SOL    HW171594   4.841   9.519   5.598 -0.6332 -0.5561  0.5012
23672SOL    HW271595   4.966   9.433   5.599 -0.2185  0.0293 -0.0708
23673SOL     OW71596   4.075   2.381   3.022  0.3604 -0.1820 -0.3893
23673SOL    HW171597   3.992   2.354   3.060 -0.6252 -1.3064 -3.1428
23673SOL    HW271598   4.103   2.456   3.076 -2.0465 -0.2222  1.0247
23674SOL     OW71599   9.481   6.116   2.128  0.5270  0.3037  0.3575
23674SOL    HW171600   9.531   6.035   2.140  0.9817  0.5906  0.4214
23674SOL    HW271601   9.545   6.186   2.142  0.9664  0.7152 -2.9057
23675SOL     OW71602   1.139   2.470   5.066  0.5471  0.3678 -0.0537
23675SOL    HW171603   1.073   2.432   5.123 -0.3484  0.8954 -0.7041
23675SOL    HW271604   1.160   2.400   5.004 -0.3822  0.5929 -0.6497
23676SOL     OW71605   0.593   4.031   3.053  0.4253 -0.2776  0.1589
23676SOL    HW171606   0.635   4.095   3.111  0.9383  1.2697 -1.7774
23676SOL    HW271607   0.594   4.074   2.967 -1.4164 -1.9374 -0.7561
23677SOL     OW71608   2.394   7.166   0.291  0.1610 -0.2968  0.2858
23677SOL    HW171609   2.359   7.180   0.203 -0.9080 -1.1819  0.5477
23677SOL    HW271610   2.444   7.246   0.310 -1.2328  0.7693 -0.3555
23678SOL     OW71611   5.059   9.817   1.129  0.6871 -0.7867 -0.1365
23678SOL    HW171612   5.039   9.889   1.189 -1.1317  0.5291 -2.1974
23678SOL    HW271613   4.988   9.754   1.141 -0.3675  0.0520 -1.6917
23679SOL     OW71614   6.356   5.192   1.190 -0.5370 -0.0944  0.3061
23679SOL    HW171615   6.306   5.112   1.202  0.7530 -0.8579  0.8351
23679SOL    HW271616   6.392   5.185   1.101 -0.3415 -0.1598  0.3891
23680SOL     OW71617   9.653   6.821   3.290  0.4561  0.1511  0.0774
23680SOL    HW171618   9.633   6.765   3.215 -0.7579 -0.2292  0.6569
23680SOL    HW271619   9.612   6.776   3.364  1.9320  0.3371  1.0344
23681SOL     OW71620   9.506   7.032   3.702 -0.4078  0.1406  0.3228
23681SOL    HW171621   9.540   7.067   3.620 -2.1646  3.1509  0.7069
23681SOL    HW271622   9.563   6.959   3.723  2.1865  1.3798 -1.8484
23682SOL     OW71623   6.822   1.806   4.581  0.0459 -0.4698 -0.1807
23682SOL    HW171624   6.733   1.832   4.558 -0.3461  0.4193  2.0645
23682SOL    HW271625   6.811   1.729   4.636  0.3942  1.0825  2.2116
23683SOL     OW71626   2.654   0.400   1.874 -0.0741  0.1800 -0.0688
23683SOL    HW171627   2.627   0.405   1.966  1.6524 -2.0666  0.6273
23683SOL    HW271628   2.734   0.452   1.870  0.1385 -0.1595 -0.1900
23684SOL     OW71629   5.362   5.988   0.050  0.2995 -0.0103  0.3046
23684SOL    HW171630   5.325   6.068   0.085  0.5059 -0.1612  0.8769
23684SOL    HW271631   5.304   5.963  -0.022  1.1256  1.5293 -0.9635
23685SOL     OW71632   0.309   5.812   9.990 -0.0408  0.0514  0.0596
23685SOL    HW171633   0.324   5.727   9.948 -2.5167 -0.7292  0.6183
23685SOL    HW271634   0.215   5.827   9.982  0.2675  2.6175  0.2820
23686SOL     OW71635   6.848   7.591   9.725 -0.0185 -0.3867 -0.1242
23686SOL    HW171636   6.894   7.526   9.671 -1.0255  1.0756 -2.9927
23686SOL    HW271637   6.908   7.666   9.728 -0.3741 -0.1021 -0.0755
23687SOL     OW71638   0.425   3.907   4.588  0.1896 -0.2623  0.1076
23687SOL    HW171639   0.412   3.935   4.678  1.7672 -1.5490  0.7863
23687SOL    HW271640   0.476   3.977   4.548 -1.2444  0.7123 -0.0538
23688SOL     OW71641   8.146   6.361   6.107 -0.2612  0.0627  0.1039
23688SOL    HW171642   8.188   6.396   6.186 -1.6793  2.7899 -0.2407
23688SOL    HW271643   8.062   6.407   6.101 -1.8211 -2.6985 -1.0928
23689SOL     OW71644   4.744   3.926   7.133  0.2112 -0.6960  0.1972
23689SOL    HW171645   4.819   3.932   7.192  0.4033 -0.4348 -0.0715
23689SOL    HW271646   4.719   3.834   7.137 -0.4952 -0.4667  1.5593
23690SOL     OW71647   9.380   7.850   7.854  0.5022  0.1302 -0.1722
23690SOL    HW171648   9.414   7.907   7.924  1.4305  2.3009 -2.2410
23690SOL    HW271649   9.421   7.884   7.774  0.6653 -3.1991 -1.6415
23691SOL     OW71650   6.117   1.042   8.509  0.5043 -0.0685 -0.0603
23691SOL    HW171651   6.118   1.064   8.416 -0.9012 -1.2422 -0.3949
23691SOL    HW271652   6.025   1.046   8.534  0.9580  1.3168  1.5853
23692SOL     OW71653   1.152   8.605   7.962 -0.6105  0.4787  0.0549
23692SOL    HW171654   1.156   8.663   8.038 -1.5352 -0.3059  0.7258
23692SOL    HW271655   1.059   8.586   7.951 -0.3300 -0.8580 -0.1730
23693SOL     OW71656   7.822   4.554   7.170  0.3750  0.1782  0.5909
23693SOL    HW171657   7.797   4.646   7.169 -1.1255 -0.2176 -0.2766
23693SOL    HW271658   7.744   4.508   7.202  1.0489 -0.8097  0.8573
23694SOL     OW71659   0.077   5.330   2.160 -0.0894  0.1979 -0.2842
23694SOL    HW171660   0.116   5.287   2.237  0.2320 -0.5651 -0.8508
23694SOL    HW271661   0.123   5.414   2.153 -0.0733  0.2389  0.3154
23695SOL     OW71662   6.379   0.699   2.369  0.1561 -0.1596 -0.4702
23695SOL    HW171663   6.456   0.745   2.401 -1.0076  3.0900 -1.8762
23695SOL    HW271664   6.321   0.769   2.338 -2.7792 -2.5242 -0.7368
23696SOL     OW71665   9.294   0.777   3.669  0.2023 -0.0831 -0.0495
23696SOL    HW171666   9.339   0.850   3.712  1.4310 -0.6703 -0.3044
23696SOL    HW271667   9.216   0.763   3.722  0.0405  1.2835  0.1185
23697SOL     OW71668   1.423   7.921   9.285  0.0321 -0.1432 -0.0583
23697SOL    HW171669   1.334   7.908   9.253 -0.4850  0.8473  0.8837
23697SOL    HW271670   1.422   7.885   9.374  0.1694  1.0773  0.4573
23698SOL     OW71671   7.296   2.650   8.159  0.2909  1.1342 -0.1127
23698SOL    HW171672   7.308   2.558   8.136 -1.2956  1.1926 -1.3460
23698SOL    HW271673   7.376   2.693   8.129  0.2830  0.4252 -1.2124
23699SOL     OW71674   5.812   7.772   1.045 -0.0411  0.3479  0.7221
23699SOL    HW171675   5.794   7.679   1.031  0.2278 -0.0369  2.6229
23699SOL    HW271676   5.886   7.792   0.988  0.6068 -0.9017  1.0955
23700SOL     OW71677   4.512   7.107   3.289  0.2198  0.0591 -0.3704
23700SOL    HW171678   4.511   7.014   3.311  2.4038 -0.0204 -0.4175
23700SOL    HW271679   4.554   7.149   3.364  0.1635  0.8793 -0.7833
23701SOL     OW71680   9.533   9.889   7.660 -0.1794 -0.0969 -0.3029
23701SOL    HW171681   9.569   9.842   7.585 -0.6726  0.6392 -1.0214
23701SOL    HW271682   9.500   9.820   7.718  1.8213 -0.7538  0.1069
23702SOL     OW71683   7.055   3.319   5.991 -0.2517  0.3759  0.4689
23702SOL    HW171684   7.012   3.397   5.956 -1.5030 -1.0038 -1.2504
23702SOL    HW271685   7.002   3.246   5.959  1.7404 -1.2739  0.7332
23703SOL     OW71686   8.577   4.598   0.981  0.3994  0.3850  0.4003
23703SOL    HW171687   8.568   4.533   0.911 -0.9257 -0.5289  1.3853
23703SOL    HW271688   8.510   4.663   0.961  0.5149  0.5149  0.4310
23704SOL     OW71689   0.230   4.570   5.610 -0.3873  0.2844 -0.0496
23704SOL    HW171690   0.204   4.593   5.521  0.0867  0.7848 -0.0655
23704SOL    HW271691   0.280   4.646   5.641 -3.0326  1.4429  1.7168
23705SOL     OW71692   2.348   6.066   5.473 -0.4171  0.3619 -0.2992
23705SOL    HW171693   2.426   6.106   5.435 -0.2975  1.0937  0.6805
23705SOL    HW271694   2.378   5.981   5.506  0.6408  1.7178  2.4590
23706SOL     OW71695   5.128   6.630   6.308 -0.0035  0.5455 -0.0657
23706SOL    HW171696   5.087   6.612   6.392  0.3963 -0.5529 -0.0988
23706SOL    HW271697   5.125   6.726   6.300  1.9267  0.8674  2.1820
23707SOL     OW71698   9.470   1.350   6.245 -0.1265 -0.9025 -0.2258
23707SOL    HW171699   9.433   1.347   6.156  0.2325 -0.2094 -0.4093
23707SOL    HW271700   9.396   1.333   6.302 -0.3382 -1.4828 -0.6678
23708SOL     OW71701   7.054   6.948   8.473  0.0341 -0.8701 -0.3831
23708SOL    HW171702   7.135   6.897   8.468  0.2210 -0.6188  0.0264
23708SOL    HW271703   7.004   6.907   8.543  0.4056 -0.1835  0.2913
23709SOL     OW71704   8.555   5.185   9.797 -0.2351 -0.1965  0.0795
23709SOL    HW171705   8.522   5.095   9.806 -0.2842 -0.1686  0.1824
23709SOL    HW271706   8.478   5.237   9.774  0.1336 -0.4980 -2.0266
23710SOL     OW71707   6.240   8.474   2.801 -0.0713  0.1115 -0.1400
23710SOL    HW171708   6.155   8.435   2.822 -0.5953  0.2591 -1.8306
23710SOL    HW271709   6.298   8.398   2.789  0.1614  0.0207  1.4120
23711SOL     OW71710   1.294   3.516   3.696 -0.8352 -0.3331  0.5889
23711SOL    HW171711   1.320   3.594   3.744 -0.6664  0.0239 -0.0657
23711SOL    HW271712   1.201   3.504   3.717 -0.4164 -1.0577  2.1793
23712SOL     OW71713   3.236   6.404   8.052 -0.4206 -0.3448 -0.2841
23712SOL    HW171714   3.237   6.333   8.115  2.3499  0.1994  0.4023
23712SOL    HW271715   3.226   6.483   8.104  0.9172  0.0411 -0.5732
23713SOL     OW71716   6.733   9.904   1.982 -0.0207  0.3907 -0.0571
23713SOL    HW171717   6.823   9.900   2.017 -0.2455 -1.1642  0.4212
23713SOL    HW271718   6.707   9.812   1.974 -0.5742  0.7217 -2.8732
23714SOL     OW71719   5.000   3.066   7.771 -0.0558 -0.7296  0.0665
23714SOL    HW171720   4.956   3.144   7.805  1.8625  0.7924 -0.7282
23714SOL    HW271721   5.068   3.047   7.835  0.1762 -1.0754 -0.2776
23715SOL     OW71722   9.877   1.089   2.386  0.0637  0.0044  0.5366
23715SOL    HW171723   9.970   1.076   2.367 -0.0662  0.2616 -0.3179
23715SOL    HW271724   9.837   1.106   2.300 -0.7340  0.1177  0.9216
23716SOL     OW71725   5.073   1.762   7.796  0.2660 -0.0974  0.0942
23716SOL    HW171726   5.162   1.733   7.814  0.1107  0.3486  1.6816
23716SOL    HW271727   5.083   1.847   7.753  0.6474 -1.3385 -2.5242
23717SOL     OW71728   7.110   4.502   0.573 -0.2830 -0.3918  0.1902
23717SOL    HW171729   7.170   4.553   0.519 -0.6664 -0.1822 -0.0419
23717SOL    HW271730   7.167   4.449   0.629  0.1114 -0.6872 -0.4857
23718SOL     OW71731   6.502   2.259   0.792 -0.3448  0.3635 -0.6367
23718SOL    HW171732   6.547   2.178   0.765  0.1324  0.0409  1.0242
23718SOL    HW271733   6.414   2.230   0.816 -0.1933  0.3322 -0.1024
23719SOL     OW71734   4.000   8.135   6.060  0.1648 -0.1595 -0.2058
23719SOL    HW171735   4.077   8.092   6.023  0.1923 -0.1850 -0.1202
23719SOL    HW271736   3.959   8.180   5.986 -0.4685 -1.2239 -0.5233
23720SOL     OW71737   8.018   2.984   3.299 -0.7286  0.4284  0.1753
23720SOL    HW171738   7.978   3.055   3.249  0.4205  1.0523  0.1014
23720SOL    HW271739   8.058   3.028   3.374  0.4886 -0.0626 -0.1689
23721SOL     OW71740   9.674   8.738   5.525  0.0624  0.5315 -0.0260
23721SOL    HW171741   9.754   8.717   5.477  0.2030 -0.4615  0.6133
23721SOL    HW271742   9.622   8.790   5.463  0.6090  0.0085 -0.9475
23722SOL     OW71743   3.447   5.962   9.408 -0.1625  0.1430 -0.3803
23722SOL    HW171744   3.379   6.005   9.357 -1.1206  0.0567  0.7848
23722SOL    HW271745   3.454   5.874   9.371 -0.2823  0.3347 -0.8639
23723SOL     OW71746   5.538   4.091   2.300 -0.1950 -0.2034  0.2510
23723SOL    HW171747   5.571   4.174   2.336  3.5889 -0.7942 -1.4155
23723SOL    HW271748   5.483   4.117   2.226  1.0395  0.8569 -0.3197
23724SOL     OW71749   0.751   5.405   4.282 -1.5945  0.3297  0.1124
23724SOL    HW171750   0.699   5.339   4.236 -0.5932 -1.3524  1.2757
23724SOL    HW271751   0.810   5.355   4.337 -0.9582  2.2328  1.2685
23725SOL     OW71752   7.769   6.102   9.427 -0.0487  0.7487  0.5920
23725SOL    HW171753   7.858   6.079   9.452 -0.8531 -2.2757  1.0551
23725SOL    HW271754   7.716   6.028   9.455 -2.4300  1.4864 -1.5330
23726SOL     OW71755   5.580   8.674   6.423  0.1786 -0.0946 -0.4030
23726SOL    HW171756   5.492   8.644   6.401  0.6532 -0.7182 -1.5694
23726SOL    HW271757   5.616   8.605   6.478  0.0074  0.0597 -0.0985
23727SOL     OW71758   2.277   3.752   8.557  0.0576 -0.2830  0.1108
23727SOL    HW171759   2.360   3.710   8.579  0.1274  0.9154  2.5286
23727SOL    HW271760   2.302   3.834   8.514  0.2158  0.2498  1.1574
23728SOL     OW71761   0.606   3.243   9.869  0.1800  0.0458  0.4544
23728SOL    HW171762   0.651   3.160   9.854 -0.0761 -0.0309  0.0671
23728SOL    HW271763   0.543   3.224   9.939  1.6978  0.5220  2.0119
23729SOL     OW71764   0.985   0.186   4.826 -0.2234  0.0455  0.1801
23729SOL    HW171765   1.061   0.129   4.836 -0.0716  0.3960  1.0953
23729SOL    HW271766   0.975   0.197   4.731  2.7373  2.4255 -0.0160
23730SOL     OW71767   7.148   3.908   1.073 -0.3695 -0.0689  0.1507
23730SOL    HW171768   7.077   3.956   1.114 -0.8144 -0.3603 -0.2760
23730SOL    HW271769   7.123   3.902   0.981 -0.2886 -1.0783  0.1917
23731SOL     OW71770   5.325   6.361   6.799  0.1951 -0.0150  1.1605
23731SOL    HW171771   5.356   6.275   6.825  2.1947  0.7450  1.4586
23731SOL    HW271772   5.335   6.415   6.878  1.2952  1.0435  0.3482
23732SOL     OW71773   2.936   6.296   9.828 -1.0572  0.6756 -0.2127
23732SOL    HW171774   3.031   6.306   9.828 -1.0492  0.6689  1.0786
23732SOL    HW271775   2.920   6.217   9.776 -0.3885  0.8861 -0.7470
23733SOL     OW71776   3.988   1.199   1.978  0.0229  0.1728  0.3065
23733SOL    HW171777   3.944   1.264   1.924 -0.5555  0.3679  0.9910
23733SOL    HW271778   4.082   1.214   1.962 -0.1376 -0.0078 -0.8855
23734SOL     OW71779   8.262   7.907   6.113  0.1775 -0.5128  0.0257
23734SOL    HW171780   8.203   7.833   6.127 -1.0611  0.3377 -0.4421
23734SOL    HW271781   8.342   7.869   6.077 -1.1217 -1.4750 -2.0368
23735SOL     OW71782   8.223   1.961   5.436 -0.2301 -0.1689  0.2885
23735SOL    HW171783   8.153   1.907   5.401  0.1988 -0.1232 -0.6902
23735SOL    HW271784   8.187   2.050   5.436 -0.1384 -0.1311 -0.3073
23736SOL     OW71785   1.516   7.647   9.889  0.4246 -0.4624 -0.0953
23736SOL    HW171786   1.525   7.669   9.982 -0.4158  1.0179 -0.3333
23736SOL    HW271787   1.424   7.664   9.869  0.4240 -1.4743 -1.0334
23737SOL     OW71788   2.240   9.696   3.909 -0.3035  0.2268  0.1271
23737SOL    HW171789   2.199   9.741   3.835 -0.7820  0.8789  0.7634
23737SOL    HW271790   2.215   9.605   3.899  0.5044  0.1127 -1.0782
23738SOL     OW71791   5.369   3.351   3.607  0.3197 -0.3504  0.3837
23738SOL    HW171792   5.432   3.284   3.633  1.1758  0.2994  0.0309
23738SOL    HW271793   5.418   3.409   3.548 -0.6755  0.0304 -0.0985
23739SOL     OW71794   6.915   6.549   2.159 -0.7077 -0.2020 -0.1239
23739SOL    HW171795   6.926   6.620   2.222  0.0894 -0.5109  0.1023
23739SOL    HW271796   6.883   6.475   2.211  0.8858 -0.7520  0.1304
23740SOL     OW71797   8.417   9.319   3.197 -0.0463 -0.5219  0.0757
23740SOL    HW171798   8.349   9.269   3.241 -2.2709 -0.1855 -2.6829
23740SOL    HW271799   8.469   9.253   3.151 -0.1648 -0.5900  0.0402
23741SOL     OW71800   3.611   7.611   7.559  0.2076  0.4229 -0.0297
23741SOL    HW171801   3.573   7.697   7.540 -1.2477 -0.2400 -0.2499
23741SOL    HW271802   3.535   7.556   7.579  1.1044 -0.8671 -0.1122
23742SOL     OW71803   1.421   2.919   9.274  0.2222 -0.0982 -0.0947
23742SOL    HW171804   1.490   2.971   9.314  2.7731 -3.5521  0.4626
23742SOL    HW271805   1.402   2.850   9.338 -1.5415 -1.0329 -1.5149
23743SOL     OW71806   6.884   6.087   2.791 -0.2826 -0.3239 -0.4588
23743SOL    HW171807   6.977   6.087   2.768 -0.1619 -0.6416  0.0374
23743SOL    HW271808   6.839   6.106   2.708  0.2858  1.2329 -0.4428
23744SOL     OW71809   6.307   7.736   0.114  0.3801  0.3347 -0.1908
23744SOL    HW171810   6.274   7.759   0.200 -1.3799  0.6541 -0.9250
23744SOL    HW271811   6.254   7.661   0.086 -0.9163  1.8658 -2.0756
23745SOL     OW71812   9.541   1.279   2.183  0.3820 -0.4796 -0.2310
23745SOL    HW171813   9.535   1.289   2.088  2.4092  0.2956 -0.3254
23745SOL    HW271814   9.580   1.192   2.196  0.2054 -0.5410 -0.1006
23746SOL     OW71815   6.511   6.530   5.109  0.5044 -0.3846  0.4440
23746SOL    HW171816   6.537   6.443   5.078  0.8688  0.4752 -1.8189
23746SOL    HW271817   6.590   6.583   5.103  0.2330  0.2035  1.6129
23747SOL     OW71818   4.194   9.057   4.706  0.3265 -0.1292 -0.0811
23747SOL    HW171819   4.167   9.049   4.614 -1.6520  0.1927  0.4328
23747SOL    HW271820   4.286   9.084   4.701 -0.1769  1.4986 -2.0093
23748SOL     OW71821   5.027   0.376   5.967 -0.4995  0.2907 -0.3525
23748SOL    HW171822   5.068   0.338   5.889 -0.6199  0.0395 -0.2948
23748SOL    HW271823   5.071   0.461   5.979 -2.3005  1.6164 -2.2898
23749SOL     OW71824   1.858   0.277   9.227  0.4378 -0.2862  0.3015
23749SOL    HW171825   1.890   0.231   9.149  1.8818  0.3735  0.4565
23749SOL    HW271826   1.902   0.362   9.223  1.4320 -0.6374  2.4029
23750SOL     OW71827   5.027   6.422   6.173 -0.3175  0.5027  0.1761
23750SOL    HW171828   5.103   6.474   6.199 -0.3244  0.3018  0.6171
23750SOL    HW271829   4.972   6.421   6.251  0.7694 -2.1465  1.0215
23751SOL     OW71830   0.111   6.672   8.072  0.1791  0.2739  0.0459
23751SOL    HW171831   0.184   6.660   8.011  0.7233 -1.5275  0.9843
23751SOL    HW271832   0.118   6.763   8.100  0.1234  1.0632 -2.2615
23752SOL     OW71833   1.843   8.405   3.214 -0.0496 -0.3237  0.7461
23752SOL    HW171834   1.891   8.463   3.273 -0.3204  0.3190  0.3484
23752SOL    HW271835   1.811   8.334   3.270  0.4576 -0.1929  1.2024
23753SOL     OW71836   5.291   2.907   6.360 -0.4471  0.1405 -0.3442
23753SOL    HW171837   5.315   2.865   6.278  1.0616  0.9568 -0.3657
23753SOL    HW271838   5.224   2.971   6.336  0.4053  0.7831 -1.0603
23754SOL     OW71839   0.091   6.295   4.027  0.2725 -0.3645  0.1466
23754SOL    HW171840   0.110   6.280   4.120  1.2023  1.2745  0.2539
23754SOL    HW271841   0.077   6.389   4.020  0.6924 -0.3854 -1.4503
23755SOL     OW71842   6.293   9.766   4.798  0.0491 -0.0440 -0.4461
23755SOL    HW171843   6.340   9.844   4.828 -1.0391 -0.0792  1.5088
23755SOL    HW271844   6.279   9.781   4.704  1.0451  1.4686 -0.3852
23756SOL     OW71845   7.087   5.566   4.552 -0.0588 -0.4917 -0.3286
23756SOL    HW171846   6.991   5.567   4.553 -0.1020  2.1326 -0.6997
23756SOL    HW271847   7.110   5.524   4.469 -0.9908  1.5263 -1.6783
23757SOL     OW71848   6.659   0.971   9.365 -0.0692 -0.0105 -0.0646
23757SOL    HW171849   6.746   0.961   9.328  0.2114  0.8336  0.3490
23757SOL    HW271850   6.610   0.895   9.332  0.7402 -0.3520 -0.5039
23758SOL     OW71851   5.818   9.923   2.464  0.3803 -0.4930 -0.6257
23758SOL    HW171852   5.820   9.827   2.463 -1.0036 -0.6490  1.9754
23758SOL    HW271853   5.846   9.949   2.377  0.6310 -3.2644 -1.4582
23759SOL     OW71854   3.762   1.569   4.583  0.4681  0.2240 -0.3259
23759SOL    HW171855   3.852   1.537   4.592  0.2799 -0.1338  0.3388
23759SOL    HW271856   3.766   1.632   4.511  1.5733  1.4060  0.7113
23760SOL     OW71857   7.202   3.992   0.534 -0.4834  0.5165 -0.2314
23760SOL    HW171858   7.167   4.054   0.470  0.6709 -0.5260 -1.9447
23760SOL    HW271859   7.297   3.998   0.523 -0.3139 -0.5636  0.5481
23761SOL     OW71860   3.955   2.511   8.891 -0.4770 -1.0040 -0.0395
23761SOL    HW171861   3.939   2.557   8.973  0.4112  1.9707 -1.3874
23761SOL    HW271862   4.039   2.467   8.903 -0.4278 -0.7136  0.6995
23762SOL     OW71863   6.601   9.450   1.331  0.1791 -0.5232  0.5102
23762SOL    HW171864   6.577   9.410   1.248  1.5375  0.5611 -0.4502
23762SOL    HW271865   6.642   9.380   1.381  0.2418 -0.9417 -0.1250
23763SOL     OW71866   6.299   4.328   3.375  0.0929 -0.1253 -0.0834
23763SOL    HW171867   6.329   4.401   3.321 -0.4908  1.0036  1.0640
23763SOL    HW271868   6.267   4.264   3.312  1.4117  0.2245 -1.1610
23764SOL     OW71869   7.391   6.712   5.100  0.5661 -0.0153  0.0519
23764SOL    HW171870   7.481   6.682   5.114  0.0338 -2.1734 -0.7730
23764SOL    HW271871   7.349   6.641   5.052 -1.1861  1.5814 -0.9475
23765SOL     OW71872   6.489   6.729   6.720 -0.2197  0.5304  0.2248
23765SOL    HW171873   6.428   6.695   6.786  0.1451  1.2180  0.9288
23765SOL    HW271874   6.544   6.790   6.768  0.6239  0.3855 -0.5452
23766SOL     OW71875   7.457   2.828   0.048  0.6015 -0.0726  0.4755
23766SOL    HW171876   7.552   2.818   0.049  0.6577  0.2958 -0.4695
23766SOL    HW271877   7.428   2.778  -0.028  0.0659  0.1070  0.5558
23767SOL     OW71878   3.342   1.698   1.515  0.1622 -0.5010  0.4322
23767SOL    HW171879   3.307   1.745   1.439 -0.9533 -2.4305 -0.3120
23767SOL    HW271880   3.288   1.728   1.588 -1.0591 -1.1518 -0.1728
23768SOL     OW71881   3.922   7.586   3.945  0.3092 -0.0091  0.2099
23768SOL    HW171882   3.843   7.577   3.893 -0.5898  1.4133  1.2414
23768SOL    HW271883   3.893   7.578   4.036  1.4731 -0.2484  0.5886
23769SOL     OW71884   1.591   4.968   3.003  0.2695 -0.0425 -0.0139
23769SOL    HW171885   1.665   4.908   2.996  1.0920  1.0063 -0.6010
23769SOL    HW271886   1.620   5.035   3.066  0.0709  0.7134 -0.7148
23770SOL     OW71887   3.039   3.575   2.773 -0.5490  0.4699 -0.1330
23770SOL    HW171888   3.091   3.629   2.832  0.2992  0.9220 -1.2577
23770SOL    HW271889   2.951   3.577   2.810 -0.2115  1.4084  0.6608
23771SOL     OW71890   8.430   4.343   9.306 -0.2526  0.3353  0.1078
23771SOL    HW171891   8.347   4.384   9.281 -0.5341 -0.4807 -0.3372
23771SOL    HW271892   8.495   4.382   9.247  0.0401  2.3129  1.6324
23772SOL     OW71893   1.798   6.281   1.989 -0.4427 -0.2774  0.6495
23772SOL    HW171894   1.719   6.252   1.943 -1.7248 -1.0030  3.1223
23772SOL    HW271895   1.804   6.224   2.066  3.4887 -1.3722 -0.2309
23773SOL     OW71896   6.411   1.255   8.610  0.5762  0.3804  0.1616
23773SOL    HW171897   6.316   1.257   8.619  0.3396  2.4918 -1.7359
23773SOL    HW271898   6.440   1.338   8.648  1.3888  0.7794 -1.2625
23774SOL     OW71899   7.589   8.232   7.840 -0.4962  0.1732  0.1888
23774SOL    HW171900   7.612   8.139   7.843 -0.5699  0.1814  1.0690
23774SOL    HW271901   7.591   8.254   7.747 -0.3681 -0.6821 -0.0136
23775SOL     OW71902   1.318   0.082   9.123  0.4068  0.3801 -0.3609
23775SOL    HW171903   1.413   0.097   9.129  0.5019 -0.3178 -0.0319
23775SOL    HW271904   1.285   0.158   9.075  1.4400 -0.3765 -2.4326
23776SOL     OW71905   4.498   9.697   6.984  0.1372  0.0268  0.3958
23776SOL    HW171906   4.552   9.644   7.043  0.0181  0.5817  1.0215
23776SOL    HW271907   4.448   9.754   7.042 -0.1646  0.4233 -0.2366
23777SOL     OW71908   4.849   7.370   8.947 -0.1331 -0.5514  0.5593
23777SOL    HW171909   4.777   7.393   8.889  0.7749 -2.9818 -1.7343
23777SOL    HW271910   4.909   7.445   8.942 -0.7376 -0.1193 -0.5307
23778SOL     OW71911   3.407   6.356   4.247  0.9554  0.4788  0.2164
23778SOL    HW171912   3.346   6.429   4.244  0.9103  0.4176 -2.1807
23778SOL    HW271913   3.489   6.391   4.213  1.4853 -0.1256  0.8280
23779SOL     OW71914   7.245   3.658   6.366 -0.0450 -0.1510 -0.3098
23779SOL    HW171915   7.253   3.579   6.419  1.7762 -1.1857 -1.9852
23779SOL    HW271916   7.161   3.649   6.321 -0.7294 -0.1677  0.9318
23780SOL     OW71917   7.332   7.928   2.640 -0.2781  0.6281 -0.2751
23780SOL    HW171918   7.278   7.990   2.592  0.3469 -0.3765 -2.3617
23780SOL    HW271919   7.311   7.945   2.732 -1.5264  2.6031 -0.8652
23781SOL     OW71920   5.130   3.492   0.469 -0.0467  0.3201  0.0254
23781SOL    HW171921   5.119   3.440   0.390 -0.5938  0.3934  0.0526
23781SOL    HW271922   5.042   3.522   0.491  0.0244 -0.1520  0.9729
23782SOL     OW71923   0.923   2.253   4.627  0.0284  0.0237 -0.5389
23782SOL    HW171924   0.954   2.285   4.542  0.7209 -0.4454 -0.4741
23782SOL    HW271925   1.002   2.222   4.671 -0.2897  0.5293  0.3996
23783SOL     OW71926   4.968   2.706   8.242  0.0420  0.1779 -0.5852
23783SOL    HW171927   5.050   2.732   8.199  0.6059 -2.1780 -1.0490
23783SOL    HW271928   4.989   2.708   8.336  0.5746 -0.1766 -0.6892
23784SOL     OW71929   9.104   8.149   4.089 -0.0167 -0.2282  0.9069
23784SOL    HW171930   9.118   8.225   4.146 -1.4983 -0.0719  1.1116
23784SOL    HW271931   9.030   8.103   4.129 -0.3341 -0.7498 -0.2567
23785SOL     OW71932   1.619   5.999   4.290 -0.0244 -0.4232  0.1527
23785SOL    HW171933   1.541   6.036   4.331  0.2481  0.0170  0.2751
23785SOL    HW271934   1.659   6.073   4.244  0.6726 -0.4959  0.6304
23786SOL     OW71935   6.146   4.318   0.241 -0.4721 -0.0387  0.0513
23786SOL    HW171936   6.196   4.303   0.161 -1.0431 -0.7478 -0.1784
23786SOL    HW271937   6.126   4.231   0.274 -2.5337  0.1779 -0.4878
23787SOL     OW71938   5.698   1.627   5.453  0.1701 -0.3459 -0.1474
23787SOL    HW171939   5.630   1.569   5.486  0.0362 -0.6155 -0.8912
23787SOL    HW271940   5.762   1.631   5.524 -0.1279 -0.8962  0.1569
23788SOL     OW71941   6.906   8.563   8.516 -0.0258 -0.1791  0.1468
23788SOL    HW171942   6.880   8.578   8.425  0.6373 -0.0238 -0.0239
23788SOL    HW271943   6.993   8.525   8.509  0.0810 -0.0398  0.7247
23789SOL     OW71944   7.999   9.599   6.906  0.3749  0.2087 -0.4578
23789SOL    HW171945   8.038   9.544   6.838  1.4029  0.0235  0.2513
23789SOL    HW271946   8.049   9.680   6.903  1.0647 -0.1531  0.6866
23790SOL     OW71947   4.164   3.567   1.703  0.2588  0.1673  0.4066
23790SOL    HW171948   4.249   3.578   1.659 -0.9039  0.8748 -1.8262
23790SOL    HW271949   4.181   3.590   1.794  2.2167  1.4497 -0.2183
23791SOL     OW71950   4.757   2.338   3.094  0.4252  0.2856  0.4648
23791SOL    HW171951   4.673   2.380   3.115  0.3017  0.1864  0.1777
23791SOL    HW271952   4.809   2.407   3.052  0.7738  0.5602  1.3387
23792SOL     OW71953   3.797   9.394   7.256  0.1868  0.5268  0.6236
23792SOL    HW171954   3.786   9.451   7.180 -0.4597  0.6859  0.8313
23792SOL    HW271955   3.891   9.400   7.277  0.1752  1.2902  0.4760
23793SOL     OW71956   2.520   2.380   3.761  0.3348 -0.4714  0.4828
23793SOL    HW171957   2.592   2.319   3.752  0.1851 -0.5413 -0.2285
23793SOL    HW271958   2.511   2.421   3.675 -0.8494 -0.8838  0.3957
23794SOL     OW71959   8.233   5.437   0.466 -0.2926  0.3956  0.6626
23794SOL    HW171960   8.156   5.473   0.510 -0.9768 -0.6672  0.3655
23794SOL    HW271961   8.198   5.378   0.399  0.7443 -1.8273  1.9360
23795SOL     OW71962   5.181   9.299   1.548  0.2839 -0.3793  0.2679
23795SOL    HW171963   5.241   9.374   1.542  0.9385 -0.8800  0.4163
23795SOL    HW271964   5.135   9.312   1.631 -1.0950  0.9295 -0.6554
23796SOL     OW71965   0.300   2.680   0.250 -0.3638  0.4374 -0.4056
23796SOL    HW171966   0.326   2.599   0.206 -1.6747 -0.5751  0.5716
23796SOL    HW271967   0.246   2.726   0.185 -1.5839 -0.6390 -0.1978
23797SOL     OW71968   2.555   0.164   3.047 -0.3660  0.4260 -0.1357
23797SOL    HW171969   2.608   0.086   3.033 -1.9230 -0.3838 -1.9439
23797SOL    HW271970   2.592   0.229   2.987 -0.0743  0.6024  0.2225
23798SOL     OW71971   3.513   1.836   0.694  0.3125  0.2716  0.0280
23798SOL    HW171972   3.451   1.788   0.749 -0.4195  1.1708  0.0023
23798SOL    HW271973   3.478   1.827   0.605  1.0457 -0.4778 -0.2066
23799SOL     OW71974   2.509   2.411   7.547 -0.1953 -0.2369 -0.2626
23799SOL    HW171975   2.587   2.362   7.572 -0.1614 -1.6574 -2.7293
23799SOL    HW271976   2.461   2.351   7.489 -1.3594  1.8280 -1.5871
23800SOL     OW71977   1.763   4.543   6.229  0.6689 -0.0320  0.0248
23800SOL    HW171978   1.834   4.549   6.293  0.5411  0.9060  0.0911
23800SOL    HW271979   1.685   4.523   6.281  0.8528 -0.9768 -0.0387
23801SOL     OW71980   8.716   1.654   4.057  0.3871 -0.0616 -0.6645
23801SOL    HW171981   8.783   1.607   4.106 -0.5835 -0.8236 -0.0398
23801SOL    HW271982   8.697   1.731   4.110 -1.3070 -1.3355  0.6976
23802SOL     OW71983   8.285   7.412   9.343 -0.7581  0.0566  0.7762
23802SOL    HW171984   8.380   7.422   9.352 -0.9297  0.2730  2.7093
23802SOL    HW271985   8.260   7.481   9.281  0.3630 -0.2229 -0.0319
23803SOL     OW71986   6.597   0.433   7.295  0.0030  0.9006  0.1885
23803SOL    HW171987   6.688   0.405   7.291  0.4863  2.3553  0.2769
23803SOL    HW271988   6.559   0.405   7.212  0.6096  0.5220  0.0367
23804SOL     OW71989   9.620   9.317   4.305 -0.0384 -0.0710  0.3143
23804SOL    HW171990   9.577   9.335   4.221 -1.1412 -1.0429  0.6473
23804SOL    HW271991   9.596   9.392   4.360  0.0055  0.1640  0.0181
23805SOL     OW71992   9.051   8.268   3.571  0.0279  0.9535 -0.3400
23805SOL    HW171993   8.989   8.195   3.572  1.0802  0.0313  0.4715
23805SOL    HW271994   9.069   8.286   3.664  1.7107  0.5248 -0.5452
23806SOL     OW71995   7.838   3.807   8.824 -0.4511  0.1839  0.4559
23806SOL    HW171996   7.746   3.795   8.847 -0.3483 -0.1023  0.7174
23806SOL    HW271997   7.879   3.836   8.905  0.0420 -1.4860  0.8400
23807SOL     OW71998   3.954   4.177   9.468  0.1500  0.2334 -0.3795
23807SOL    HW171999   3.914   4.255   9.429 -0.5272  0.8258  1.4194
23807SOL    HW272000   3.881   4.130   9.508  0.7845 -0.5099 -0.0695
23808SOL     OW72001   5.814   9.563   0.722 -0.4153  0.3772 -0.6051
23808SOL    HW172002   5.871   9.554   0.645 -0.8701  0.2794 -0.9309
23808SOL    HW272003   5.751   9.492   0.714  0.3562 -0.4649  0.5732
23809SOL     OW72004   0.984   6.921   7.156 -0.2113 -0.4297 -0.1914
23809SOL    HW172005   1.057   6.882   7.109  1.5174 -0.1631  2.1124
23809SOL    HW272006   1.022   6.994   7.204 -2.3390  0.7709 -0.2065
23810SOL     OW72007   8.852   1.700   3.402 -0.4334 -0.1193 -0.2837
23810SOL    HW172008   8.844   1.757   3.478  0.3183 -1.9489  1.2666
23810SOL    HW272009   8.925   1.736   3.352 -0.0902  0.3952  0.5690
23811SOL     OW72010   0.421   5.957   0.682 -0.3670  0.0586  0.4748
23811SOL    HW172011   0.341   5.989   0.724  0.0709 -0.6151  1.8715
23811SOL    HW272012   0.399   5.957   0.588 -1.8084  0.4167  0.7757
23812SOL     OW72013   9.781   0.263   8.550  0.1130 -0.4532 -0.3446
23812SOL    HW172014   9.714   0.206   8.512 -0.1198 -0.1502 -0.3977
23812SOL    HW272015   9.857   0.252   8.494 -0.1620 -0.1669 -0.7778
23813SOL     OW72016   4.815   2.788   5.153  0.4275 -0.1177  0.3141
23813SOL    HW172017   4.742   2.786   5.091 -0.8479 -0.0648  1.7619
23813SOL    HW272018   4.805   2.871   5.199  0.3639 -0.8938  1.7246
23814SOL     OW72019   3.632   6.466   5.015  0.1275  0.1613  0.3279
23814SOL    HW172020   3.635   6.459   4.919 -0.6797 -1.0529  0.3633
23814SOL    HW272021   3.552   6.420   5.040  0.9021 -0.5289  1.6620
23815SOL     OW72022   6.772   0.848   3.571 -0.5339 -0.1081 -0.5355
23815SOL    HW172023   6.854   0.859   3.523 -1.2182 -1.1100 -2.0253
23815SOL    HW272024   6.722   0.928   3.553  0.5200  1.0476  1.3437
23816SOL     OW72025   4.752   3.228   5.492  0.0550 -0.9953 -0.5513
23816SOL    HW172026   4.678   3.283   5.467 -0.8991 -1.8208  0.3530
23816SOL    HW272027   4.824   3.289   5.509 -0.9691 -0.0338  0.4476
23817SOL     OW72028   5.597   8.943   2.017 -0.3344 -0.3743  0.2159
23817SOL    HW172029   5.608   8.915   2.107  0.3706 -1.4806 -0.1941
23817SOL    HW272030   5.680   8.985   1.994 -0.1689 -0.9136 -0.1910
23818SOL     OW72031   0.417   5.368   7.602 -0.5430  0.7345 -0.3617
23818SOL    HW172032   0.415   5.403   7.513 -1.0215 -0.0145 -0.6545
23818SOL    HW272033   0.399   5.274   7.591 -0.7917  0.6695  0.5405
23819SOL     OW72034   1.102   9.024   0.636 -0.0164  0.1165  0.3258
23819SOL    HW172035   1.144   8.942   0.661 -0.9085 -0.0874  1.2168
23819SOL    HW272036   1.121   9.084   0.708 -2.4875 -0.4328  1.5594
23820SOL     OW72037   4.022   5.480   4.964  0.2686 -0.2566  0.1906
23820SOL    HW172038   4.009   5.574   4.972  3.3883  0.1916  1.4188
23820SOL    HW272039   3.991   5.443   5.047 -0.1915 -0.2210  0.0360
23821SOL     OW72040   0.100   0.275   3.454 -0.0078  0.3715 -0.3732
23821SOL    HW172041   0.009   0.261   3.428  0.0458 -0.3276 -0.2182
23821SOL    HW272042   0.096   0.344   3.520 -0.4646  0.0956 -0.1089
23822SOL     OW72043   6.511   6.134   8.104  0.3158 -0.1145 -0.5466
23822SOL    HW172044   6.464   6.150   8.023  0.9615  1.0151 -0.7214
23822SOL    HW272045   6.466   6.060   8.144 -0.1844 -0.5038 -1.7913
23823SOL     OW72046   9.348   7.123   9.676 -0.0182  0.3962 -0.3599
23823SOL    HW172047   9.407   7.052   9.702 -0.8385 -0.7382 -1.4656
23823SOL    HW272048   9.374   7.197   9.731  1.6478 -0.4056  0.0077
23824SOL     OW72049   2.262   6.371   0.070  0.3892  0.0528 -0.3564
23824SOL    HW172050   2.202   6.337   0.137 -0.0033  1.6343  0.1464
23824SOL    HW272051   2.312   6.295   0.042  1.3955 -0.5045  2.5896
23825SOL     OW72052   8.681   8.070   7.569 -0.1175  0.5732 -0.0011
23825SOL    HW172053   8.675   8.000   7.504  0.0744  0.4028  0.1617
23825SOL    HW272054   8.609   8.129   7.548 -0.0338  0.5378 -0.3893
23826SOL     OW72055   9.778   0.557   8.533  0.2004 -0.3910  0.0497
23826SOL    HW172056   9.791   0.465   8.557  1.0095  0.0329  1.3594
23826SOL    HW272057   9.684   0.570   8.539  0.0076 -1.2795 -0.7635
23827SOL     OW72058   0.316   6.100   2.948  0.3694  0.5765  0.0009
23827SOL    HW172059   0.362   6.100   2.865  1.2791  0.6661  0.4912
23827SOL    HW272060   0.334   6.013   2.985 -2.5580 -0.6834 -1.2250
23828SOL     OW72061   7.287   8.004   2.889  0.1539  0.0498 -0.0580
23828SOL    HW172062   7.293   8.097   2.910 -0.7966  0.5839 -1.9082
23828SOL    HW272063   7.202   7.978   2.924 -0.6253  0.4941 -1.5364
23829SOL     OW72064   5.137   9.001   1.086  0.5192 -0.0707 -0.3067
23829SOL    HW172065   5.199   8.963   1.024 -1.0577 -3.1488 -0.2264
23829SOL    HW272066   5.102   8.925   1.134 -1.7878  1.6943  1.0249
23830SOL     OW72067   5.283   0.844   2.577 -0.2732  0.4637  0.1094
23830SOL    HW172068   5.256   0.770   2.522 -2.3734  2.0522 -1.1051
23830SOL    HW272069   5.207   0.864   2.631  0.2957  1.7000  0.4944
23831SOL     OW72070   1.987   1.680   7.402  0.1214  0.2173  0.1267
23831SOL    HW172071   1.906   1.708   7.360 -0.7212  0.4164  1.8013
23831SOL    HW272072   1.994   1.734   7.481  1.8834  0.1923  0.0436
23832SOL     OW72073   4.565   4.255   6.772  0.2280  0.2105  0.1679
23832SOL    HW172074   4.535   4.295   6.691  1.0600  2.0865  0.7432
23832SOL    HW272075   4.495   4.274   6.835  0.5853  0.6867  0.4228
23833SOL     OW72076   6.924   4.598   0.786  0.1614 -0.1411 -0.7878
23833SOL    HW172077   6.952   4.550   0.708 -1.9137 -1.7388 -0.6354
23833SOL    HW272078   6.850   4.650   0.757  0.0619  0.0942 -0.1315
23834SOL     OW72079   6.206   1.976   3.345  0.1088 -0.2684  0.8369
23834SOL    HW172080   6.207   2.010   3.435 -1.2821 -1.3542  1.2895
23834SOL    HW272081   6.168   1.889   3.353 -0.9993  0.0201 -0.9555
23835SOL     OW72082   3.559   8.876   6.348 -0.2162 -0.1769  0.3092
23835SOL    HW172083   3.587   8.882   6.257 -3.4624 -0.2193 -0.8208
23835SOL    HW272084   3.526   8.787   6.358 -1.3497  0.2997  1.0401
23836SOL     OW72085   9.116   5.057   2.291 -0.3357 -0.2370  0.2882
23836SOL    HW172086   9.033   5.098   2.316 -0.1833 -0.8325  1.9081
23836SOL    HW272087   9.142   5.008   2.369  0.7924 -1.2768 -0.7128
23837SOL     OW72088   9.963   4.448   7.687  0.1590  0.4425  0.0504
23837SOL    HW172089   9.916   4.476   7.765  0.4753 -1.5110  0.9999
23837SOL    HW272090   9.901   4.390   7.642  1.5755 -2.2840  1.3894
23838SOL     OW72091   1.771   0.380   2.734 -0.1148 -0.3019 -0.0202
23838SOL    HW172092   1.860   0.414   2.734 -0.9745  2.1810  1.7089
23838SOL    HW272093   1.723   0.438   2.675 -1.2316  0.4200  1.5497
23839SOL     OW72094   1.012   1.417   9.860  0.2151  0.1396 -0.0430
23839SOL    HW172095   0.940   1.367   9.896 -0.0871  2.3563  2.7131
23839SOL    HW272096   0.985   1.437   9.770 -1.1299 -1.6783 -0.0937
23840SOL     OW72097   2.943   2.865   8.553 -0.0677 -0.2544  0.2578
23840SOL    HW172098   2.978   2.873   8.465 -0.7230  0.1437  0.0251
23840SOL    HW272099   2.885   2.789   8.549  0.9938 -1.1076  0.7236
23841SOL     OW72100   1.832   0.956   1.836 -0.3899  0.3549 -0.2111
23841SOL    HW172101   1.772   0.938   1.908  0.6640 -1.0758  0.3537
23841SOL    HW272102   1.887   1.027   1.869  0.9419 -1.1614  0.9753
23842SOL     OW72103   9.550   4.765   3.297 -0.5567 -0.5745 -0.4715
23842SOL    HW172104   9.461   4.797   3.280  0.8622  2.7113 -2.8149
23842SOL    HW272105   9.566   4.703   3.226 -0.4578  0.1358 -1.0896
23843SOL     OW72106  -0.008   5.410   7.374 -0.3440  0.0842 -0.6159
23843SOL    HW172107   0.012   5.348   7.444 -1.0381  0.4675 -0.0667
23843SOL    HW272108   0.078   5.435   7.340 -0.0624 -1.3954 -1.0547
23844SOL     OW72109   0.942   0.707   9.546  0.1636  0.1521 -0.4233
23844SOL    HW172110   0.871   0.656   9.586  1.8851 -0.9561  1.3786
23844SOL    HW272111   0.982   0.648   9.482 -1.5797  1.3955 -2.8397
23845SOL     OW72112   5.062   2.032   4.957 -0.0966 -0.6192  0.0101
23845SOL    HW172113   5.083   2.014   5.048  0.2635 -0.5950 -0.0646
23845SOL    HW272114   5.064   2.127   4.950  0.5005 -0.6376 -0.1599
23846SOL     OW72115   1.147   4.246   3.939  0.1187 -0.6190 -0.0715
23846SOL    HW172116   1.072   4.212   3.890 -0.9958 -0.1958  1.2379
23846SOL    HW272117   1.120   4.239   4.031  0.8523  1.4087  0.3666
23847SOL     OW72118   2.351   6.098   4.028 -0.0991 -0.3681 -0.0958
23847SOL    HW172119   2.368   6.031   4.094  0.5144 -0.6704 -0.5597
23847SOL    HW272120   2.256   6.112   4.032 -0.0799 -0.4712  0.7576
23848SOL     OW72121   0.494   3.534   5.963  0.2449  0.2049 -0.8274
23848SOL    HW172122   0.495   3.453   6.013 -0.4870 -0.0116 -1.1506
23848SOL    HW272123   0.437   3.593   6.013 -0.7718 -0.1309 -1.5744
23849SOL     OW72124   1.559   6.140   2.346 -0.1491  0.2365 -0.0765
23849SOL    HW172125   1.571   6.089   2.427  2.5359  0.8216 -0.0076
23849SOL    HW272126   1.519   6.222   2.375  0.9959  0.5353  0.7627
23850SOL     OW72127   7.779   0.692   7.026  0.1118  0.0838  0.1270
23850SOL    HW172128   7.758   0.602   7.052 -0.0751 -0.1792 -0.8539
23850SOL    HW272129   7.873   0.701   7.043  0.1300 -0.2967  0.2451
23851SOL     OW72130   2.757   2.879   6.740 -0.1165 -0.7668 -0.1528
23851SOL    HW172131   2.675   2.835   6.759 -0.9471 -0.0538 -1.8548
23851SOL    HW272132   2.775   2.858   6.649  0.8986  0.1508 -0.1898
23852SOL     OW72133   5.735   2.393   1.629 -0.3877  0.0106  0.5195
23852SOL    HW172134   5.656   2.340   1.615  0.8592 -2.0925  1.0206
23852SOL    HW272135   5.803   2.350   1.578  0.9976  0.3458  1.9829
23853SOL     OW72136   0.125   1.985   5.014 -0.2642  0.0261  0.0063
23853SOL    HW172137   0.193   1.973   4.948  0.1107  1.5836  0.0878
23853SOL    HW272138   0.169   1.968   5.097 -0.9361 -2.8077 -0.0968
23854SOL     OW72139   1.565   8.385   8.512 -0.4576  0.5825  0.7045
23854SOL    HW172140   1.612   8.320   8.564 -0.2537  0.9294  0.9616
23854SOL    HW272141   1.535   8.337   8.434  2.7122  0.9385 -0.8777
23855SOL     OW72142   2.434   4.399   5.113  0.8344 -0.5972  0.2640
23855SOL    HW172143   2.527   4.386   5.133  0.6109 -1.1518  0.9679
23855SOL    HW272144   2.402   4.312   5.089  0.6964 -0.2483 -0.9001
23856SOL     OW72145   5.576   6.276   3.268  0.1553  0.2114 -0.6702
23856SOL    HW172146   5.504   6.338   3.266 -1.4772 -1.5423  0.5157
23856SOL    HW272147   5.535   6.191   3.281  2.4505 -0.8690  0.1201
23857SOL     OW72148   2.541   1.544   7.450  0.2296 -0.0239  0.3469
23857SOL    HW172149   2.602   1.536   7.524  0.4634  0.9775  0.2799
23857SOL    HW272150   2.455   1.544   7.491  0.3173 -0.4200  0.5366
23858SOL     OW72151   0.986   1.826   4.670  0.0046 -0.1500  0.1336
23858SOL    HW172152   0.920   1.838   4.738 -0.5189  3.6206 -0.7890
23858SOL    HW272153   0.943   1.855   4.590  2.1964  0.7568 -0.7962
23859SOL     OW72154   8.170   4.696   3.340 -0.4799 -0.3328  0.3607
23859SOL    HW172155   8.217   4.761   3.288 -0.4019 -2.4397 -2.3939
23859SOL    HW272156   8.080   4.699   3.306 -0.3662 -1.9472 -0.1488
23860SOL     OW72157   0.627   3.148   2.276  0.0519 -0.0536 -0.6981
23860SOL    HW172158   0.647   3.076   2.337 -0.8841 -0.2805 -0.6396
23860SOL    HW272159   0.660   3.226   2.320 -0.1785 -0.2750 -0.1147
23861SOL     OW72160   3.376   2.025   1.642 -0.2643 -0.3928 -0.7189
23861SOL    HW172161   3.400   1.938   1.674 -1.3670 -0.0824  1.0550
23861SOL    HW272162   3.287   2.015   1.609  0.0637 -0.1941 -1.6991
23862SOL     OW72163   3.600   1.204   8.684  0.2437  0.1211 -0.0761
23862SOL    HW172164   3.605   1.108   8.687  0.1753  0.0985 -0.6394
23862SOL    HW272165   3.645   1.228   8.604  0.2550  0.5642  0.0627
23863SOL     OW72166   2.592   2.923   7.101 -0.2745 -0.1934 -0.0213
23863SOL    HW172167   2.683   2.917   7.131 -0.4114 -2.6722  0.1138
23863SOL    HW272168   2.585   3.011   7.064  1.7611  0.5743  1.2329
23864SOL     OW72169   8.698   7.864   1.398 -0.5583 -0.0146 -0.0791
23864SOL    HW172170   8.633   7.841   1.331  0.7819 -0.4166 -1.3065
23864SOL    HW272171   8.667   7.946   1.435 -3.6231 -1.8499  1.9018
23865SOL     OW72172   7.341   4.758   5.040 -0.2235 -0.0515  0.0686
23865SOL    HW172173   7.295   4.693   5.094  0.9704  0.1530  1.3951
23865SOL    HW272174   7.293   4.759   4.958 -0.6710 -2.1526  0.2421
23866SOL     OW72175   3.592   8.333   7.752 -0.2986  0.4984  0.0746
23866SOL    HW172176   3.510   8.376   7.729 -1.0757 -0.5014  0.8782
23866SOL    HW272177   3.575   8.240   7.738  0.7410  0.2850  0.1439
23867SOL     OW72178   5.336  -0.007   4.712 -0.2927  0.6444  0.0917
23867SOL    HW172179   5.393   0.019   4.784  0.2614 -0.1468 -0.0410
23867SOL    HW272180   5.247   0.015   4.742 -0.1159 -0.0908  1.2084
23868SOL     OW72181   4.601   4.012   0.826  0.4001 -0.3563  0.2097
23868SOL    HW172182   4.685   3.990   0.865  1.5242  0.0930 -1.8259
23868SOL    HW272183   4.577   4.096   0.866  1.2729 -0.1293  0.2625
23869SOL     OW72184   7.158   3.758   3.304 -0.2286 -0.2799 -0.5095
23869SOL    HW172185   7.158   3.802   3.389  0.0320 -0.4981 -0.3981
23869SOL    HW272186   7.243   3.780   3.265 -0.4098 -0.0510 -0.7823
23870SOL     OW72187   5.869   8.007   3.039 -0.4889 -0.1501  0.3835
23870SOL    HW172188   5.839   7.920   3.012  1.0567 -0.0633 -1.9172
23870SOL    HW272189   5.925   8.036   2.967 -1.2519  2.9307  0.8912
23871SOL     OW72190   1.353   2.696   7.428  0.2071  0.2660 -0.2699
23871SOL    HW172191   1.309   2.715   7.345  2.2062 -3.1795 -2.3648
23871SOL    HW272192   1.309   2.618   7.462  0.8019  0.3737  0.8107
23872SOL     OW72193   2.553   6.162   0.131  0.0493 -0.1027  0.4309
23872SOL    HW172194   2.629   6.174   0.074 -0.1575 -0.7988 -0.0049
23872SOL    HW272195   2.587   6.176   0.220  0.2987  1.3050  0.1308
23873SOL     OW72196   8.369   5.222   5.067  0.2282 -0.1956 -0.5166
23873SOL    HW172197   8.304   5.289   5.047  0.3699 -0.1698 -0.9060
23873SOL    HW272198   8.342   5.186   5.151 -1.5078 -1.6695 -1.6426
23874SOL     OW72199   8.774   2.586   7.366 -0.0641 -0.4111  0.1758
23874SOL    HW172200   8.812   2.510   7.321 -1.7253 -1.3477  0.2685
23874SOL    HW272201   8.740   2.550   7.448 -1.8859  0.1851 -0.2822
23875SOL     OW72202   6.401   1.773   8.890 -0.9929  0.3182 -0.1931
23875SOL    HW172203   6.371   1.799   8.802 -0.6112  2.2140  0.2121
23875SOL    HW272204   6.477   1.827   8.907  0.2459 -1.5480  0.4878
23876SOL     OW72205   4.558   6.115   5.754 -0.2567  0.1054  0.5290
23876SOL    HW172206   4.476   6.065   5.752 -0.9872  1.2742 -0.4240
23876SOL    HW272207   4.603   6.084   5.832 -1.1777 -1.2335  0.5680
23877SOL     OW72208   0.887  -0.005   5.926  0.2837  0.0306  0.2228
23877SOL    HW172209   0.865  -0.036   6.013 -1.6630 -0.0668 -0.2576
23877SOL    HW272210   0.809   0.042   5.897  0.9033  0.1030 -1.4417
23878SOL     OW72211   3.854   7.930   3.496  0.4295 -0.3416  0.1206
23878SOL    HW172212   3.876   7.893   3.410  0.7829  0.7229 -0.2656
23878SOL    HW272213   3.937   7.967   3.527 -0.3168  1.9861 -0.4627
23879SOL     OW72214   4.936   3.841   5.254 -0.3904 -0.5507  0.2496
23879SOL    HW172215   4.863   3.780   5.262 -0.1607 -0.8869 -0.1308
23879SOL    HW272216   4.905   3.910   5.196  0.1395 -1.5828 -1.3380
23880SOL     OW72217   5.153   3.712   7.962  0.0242  0.6985  0.1563
23880SOL    HW172218   5.180   3.801   7.939  0.5552  0.5511  0.2132
23880SOL    HW272219   5.087   3.689   7.896  0.0486  1.0486  0.0106
23881SOL     OW72220   3.426   2.725   0.983  0.1451 -0.3409  0.1460
23881SOL    HW172221   3.396   2.696   0.897 -0.1910 -0.8724  0.4369
23881SOL    HW272222   3.424   2.646   1.037 -0.8729  0.2279  0.9808
23882SOL     OW72223   1.255   5.779   3.879  0.0921 -0.1065 -0.1970
23882SOL    HW172224   1.306   5.795   3.799 -1.4764 -0.5594 -1.3394
23882SOL    HW272225   1.304   5.825   3.947  2.0968 -0.6408 -1.1697
23883SOL     OW72226   8.356   4.092   2.474 -0.4293  0.1781 -0.5389
23883SOL    HW172227   8.284   4.067   2.532  1.1127  0.1655  1.4892
23883SOL    HW272228   8.354   4.188   2.472 -0.0156  0.2169  0.2432
23884SOL     OW72229   7.471   0.889   5.256 -0.3503  0.4050 -0.0629
23884SOL    HW172230   7.511   0.859   5.337 -0.4032  1.0144  0.1952
23884SOL    HW272231   7.487   0.983   5.254 -0.6075  0.4441 -0.6130
23885SOL     OW72232   8.057   9.351   1.100  0.2070 -0.7183 -0.2333
23885SOL    HW172233   8.064   9.424   1.038  2.1991 -2.2144 -1.8743
23885SOL    HW272234   8.104   9.381   1.178 -3.2505  1.6260  1.2393
23886SOL     OW72235   7.268   9.422   2.890 -0.0451  0.1499 -0.1224
23886SOL    HW172236   7.277   9.347   2.948  1.0574  0.4235  0.0704
23886SOL    HW272237   7.202   9.395   2.825  0.5073 -1.0565 -0.1939
23887SOL     OW72238   4.935   7.907   4.421  0.2330 -0.0942  0.3349
23887SOL    HW172239   5.015   7.878   4.377 -0.2938  1.3008 -1.7000
23887SOL    HW272240   4.966   7.952   4.499  1.2767 -1.6194  0.8492
23888SOL     OW72241   6.502   6.324   7.711 -0.3677  0.1491 -0.4158
23888SOL    HW172242   6.537   6.299   7.625  1.2188 -1.9750  0.7494
23888SOL    HW272243   6.445   6.250   7.735  1.8417 -0.9925  1.7332
23889SOL     OW72244   4.762   8.152   0.734  0.1058 -0.2653  0.3264
23889SOL    HW172245   4.684   8.122   0.687 -1.4157  0.6808  2.1214
23889SOL    HW272246   4.802   8.217   0.675  0.2300 -1.5770 -1.1023
23890SOL     OW72247   4.373   9.980   3.525 -0.2225 -0.4309 -0.5554
23890SOL    HW172248   4.298   9.989   3.466  1.1438 -0.2033 -2.3557
23890SOL    HW272249   4.427   9.913   3.484  0.7773 -0.2648  0.4515
23891SOL     OW72250   9.036   7.448   8.865 -0.2853  0.2559  0.2168
23891SOL    HW172251   9.086   7.523   8.897  0.5231 -0.0997 -0.2126
23891SOL    HW272252   9.020   7.467   8.773 -0.7407  0.2533  0.2915
23892SOL     OW72253   1.579   4.480   2.355  0.1297  0.2095 -0.0343
23892SOL    HW172254   1.608   4.411   2.296 -0.2749  1.7072 -2.0845
23892SOL    HW272255   1.487   4.461   2.373  0.7207 -1.2653  1.6806
23893SOL     OW72256   0.896   9.094   4.228  0.5115 -0.2457  0.2996
23893SOL    HW172257   0.807   9.123   4.210  0.0615 -1.9957 -0.5795
23893SOL    HW272258   0.944   9.109   4.146  0.7820 -0.1684  0.4690
23894SOL     OW72259   6.848   6.213   8.576 -0.1200 -0.3540 -0.5758
23894SOL    HW172260   6.936   6.249   8.587  0.4054 -1.3989 -1.1356
23894SOL    HW272261   6.862   6.130   8.529 -1.5897  0.6091 -2.9183
23895SOL     OW72262   0.836   8.266   8.909 -0.7116 -0.3734  0.0891
23895SOL    HW172263   0.861   8.279   8.818  1.5108 -2.9011  0.2058
23895SOL    HW272264   0.777   8.190   8.907 -0.3953 -0.6472  0.7608
23896SOL     OW72265   3.438   4.965   1.877 -0.6990  0.4390 -0.3514
23896SOL    HW172266   3.528   4.986   1.852 -0.5094  0.0006 -0.0379
23896SOL    HW272267   3.447   4.908   1.953 -1.2270 -0.0335 -0.6373
23897SOL     OW72268   6.165   1.090   5.399  0.3153  0.3894 -0.0173
23897SOL    HW172269   6.103   1.156   5.369 -0.5201 -0.7153 -0.8029
23897SOL    HW272270   6.152   1.086   5.493 -0.6855  0.2966 -0.1475
23898SOL     OW72271   4.779   1.978   7.112  0.3522 -0.1088 -0.4538
23898SOL    HW172272   4.732   2.055   7.146 -2.1767 -1.5551 -0.4019
23898SOL    HW272273   4.728   1.952   7.036 -0.2972 -3.0747  0.8740
23899SOL     OW72274   0.388   9.642   6.493 -0.2014  0.8239 -0.6191
23899SOL    HW172275   0.307   9.669   6.537  0.0062 -1.7800  1.6048
23899SOL    HW272276   0.358   9.602   6.411 -1.2081  0.1525  0.0470
23900SOL     OW72277   7.945   4.128   5.474 -0.1926 -0.1118 -0.0338
23900SOL    HW172278   7.955   4.163   5.562 -0.2185 -1.2734  0.4523
23900SOL    HW272279   7.856   4.154   5.449  0.9065  3.1032 -1.0981
23901SOL     OW72280   0.799   4.458   8.163 -0.5353 -0.1911 -0.7774
23901SOL    HW172281   0.836   4.388   8.217 -0.7447  0.6816  0.5339
23901SOL    HW272282   0.864   4.471   8.094  0.6923 -0.0399  0.3601
23902SOL     OW72283   2.971   2.022  -0.001 -0.6463  0.7823 -0.3986
23902SOL    HW172284   3.059   2.034   0.034  0.2101 -1.2388 -1.7072
23902SOL    HW272285   2.919   1.992   0.074 -0.0193  1.1452  0.1882
23903SOL     OW72286   0.668   0.231   2.530 -0.3092  0.1593 -0.0500
23903SOL    HW172287   0.619   0.180   2.595  1.0875  0.0968  0.9923
23903SOL    HW272288   0.644   0.322   2.549 -1.7719  0.0217 -1.0526
23904SOL     OW72289   1.276   1.689   9.617 -0.1092 -0.5536 -0.2859
23904SOL    HW172290   1.210   1.720   9.555  0.5095  0.2529 -0.5594
23904SOL    HW272291   1.319   1.616   9.573  0.6040  0.2765 -0.9878
23905SOL     OW72292   4.827   2.533   1.575 -0.9670 -0.1998 -0.0684
23905SOL    HW172293   4.761   2.497   1.517  2.3297 -0.6368 -4.0199
23905SOL    HW272294   4.821   2.628   1.563 -0.0793 -0.3034 -1.5334
23906SOL     OW72295   8.896   4.509   8.402 -0.1374 -0.5114  0.0051
23906SOL    HW172296   8.950   4.483   8.327  0.2647  1.2975 -0.3649
23906SOL    HW272297   8.958   4.525   8.472 -0.4086 -0.8619  0.3286
23907SOL     OW72298   7.986   9.393   4.945 -0.2629 -0.0178  0.3571
23907SOL    HW172299   7.959   9.305   4.970 -0.6000  0.4019  1.5599
23907SOL    HW272300   7.928   9.451   4.995  1.2294  0.8910  1.1222
23908SOL     OW72301   5.632   1.646   1.174 -0.1970  0.3461  0.3045
23908SOL    HW172302   5.581   1.691   1.242  0.6204  1.0764  0.4603
23908SOL    HW272303   5.567   1.622   1.108 -0.8161  0.7889  0.7311
23909SOL     OW72304   4.167   0.928   1.664 -0.0980  0.2097 -0.4649
23909SOL    HW172305   4.237   0.912   1.727  0.7474  0.9701 -1.1715
23909SOL    HW272306   4.153   0.844   1.620  0.9162  0.2301 -0.8422
23910SOL     OW72307   0.354   8.825   0.780  0.1118  0.5603 -0.2198
23910SOL    HW172308   0.325   8.898   0.834  1.6308  0.8023  0.3285
23910SOL    HW272309   0.409   8.864   0.712  1.5155 -0.0811  0.4896
23911SOL     OW72310   4.692   7.498   7.689 -0.4335  0.1651 -0.0539
23911SOL    HW172311   4.745   7.561   7.738 -1.6751 -0.4575  2.1998
23911SOL    HW272312   4.756   7.440   7.648  0.6656  0.9216  0.5381
23912SOL     OW72313   0.670   5.975   7.192  0.7860  0.0748  0.0285
23912SOL    HW172314   0.656   5.970   7.286 -0.8063 -2.2407 -0.2475
23912SOL    HW272315   0.753   5.929   7.177  0.1560 -1.1508  0.1750
23913SOL     OW72316   6.698   8.970   1.083  0.3746  0.5561 -0.0048
23913SOL    HW172317   6.692   9.041   1.146 -0.4367  1.6456 -1.2403
23913SOL    HW272318   6.727   9.013   1.002 -1.0046 -0.3401 -1.0154
23914SOL     OW72319   5.654   6.932   4.048  0.1216 -0.2680 -0.0569
23914SOL    HW172320   5.560   6.941   4.032 -0.0915 -1.8103  0.1418
23914SOL    HW272321   5.695   6.996   3.990 -1.1240  1.9824  1.4254
23915SOL     OW72322   7.776   2.995   5.835  0.2471 -0.0376  0.7808
23915SOL    HW172323   7.701   3.051   5.815  0.3664 -0.0007  0.4122
23915SOL    HW272324   7.738   2.908   5.848  0.0864  0.0820  1.1100
23916SOL     OW72325   6.338   9.767   2.303 -0.0264 -0.4433 -0.0594
23916SOL    HW172326   6.270   9.712   2.343 -1.7359  1.5495 -0.0430
23916SOL    HW272327   6.301   9.855   2.305  2.5846  0.7429 -0.0992
23917SOL     OW72328   4.059   3.904   1.803  0.4559 -0.3707  0.1694
23917SOL    HW172329   4.089   3.828   1.854 -1.4004 -1.3336 -0.0908
23917SOL    HW272330   4.098   3.979   1.848  0.8306 -1.3545  1.5721
23918SOL     OW72331   2.208   2.170   4.570  0.3007 -0.3115  0.1013
23918SOL    HW172332   2.196   2.078   4.547 -3.0687 -0.2427  1.0566
23918SOL    HW272333   2.245   2.168   4.659 -0.9233 -0.8057  0.6176
23919SOL     OW72334   7.733   5.104   9.012 -0.0944 -0.0653 -0.1410
23919SOL    HW172335   7.697   5.076   8.928  2.0348 -1.6910 -0.6196
23919SOL    HW272336   7.812   5.153   8.989 -1.0253  2.0149  0.8897
23920SOL     OW72337   3.717   5.603   3.106  0.1002 -0.2722  0.4175
23920SOL    HW172338   3.642   5.567   3.154  0.1526 -0.6383  0.2309
23920SOL    HW272339   3.771   5.645   3.173 -0.7108  0.7718  0.4374
23921SOL     OW72340   0.668   8.004   8.180  0.3736  0.2357  0.3287
23921SOL    HW172341   0.757   7.974   8.164  0.1132  0.4046 -1.7986
23921SOL    HW272342   0.629   7.937   8.236  1.5847 -0.2616  0.5923
23922SOL     OW72343   4.411   9.191   0.549 -0.0842 -0.1129  0.0298
23922SOL    HW172344   4.446   9.106   0.521 -1.7365 -0.6624 -0.4866
23922SOL    HW272345   4.336   9.206   0.492 -2.0124 -0.0296  2.3980
23923SOL     OW72346   8.406   4.840   4.947  0.9091 -0.0023 -0.3672
23923SOL    HW172347   8.464   4.769   4.921  1.4627 -0.1791  1.2471
23923SOL    HW272348   8.329   4.796   4.984  0.6355  0.2418 -0.6336
23924SOL     OW72349   6.075   7.082   7.314  0.0811 -0.2791  0.1168
23924SOL    HW172350   6.146   7.072   7.378  0.1425  0.4368  0.1621
23924SOL    HW272351   6.065   7.176   7.303 -1.6299 -0.3196  0.9771
23925SOL     OW72352   9.873   8.729   6.411 -0.7920  0.4101  0.8318
23925SOL    HW172353   9.824   8.803   6.446 -2.2839 -0.2942  0.3616
23925SOL    HW272354   9.938   8.767   6.352 -0.5466  1.4043  1.7331
23926SOL     OW72355   9.162   6.616   3.944  0.3222  0.3747  0.4203
23926SOL    HW172356   9.211   6.535   3.929  0.1791  0.0295  1.7607
23926SOL    HW272357   9.225   6.676   3.982 -0.1457  0.0988  1.6641
23927SOL     OW72358   1.559   2.082   4.781 -0.0638  0.2544  0.5495
23927SOL    HW172359   1.504   2.028   4.837 -0.7046  0.2565 -0.0641
23927SOL    HW272360   1.642   2.035   4.776 -0.7825 -0.9800 -0.4030
23928SOL     OW72361   1.480   8.082   7.649  0.7519 -0.1392  0.2627
23928SOL    HW172362   1.456   8.170   7.619 -2.1627 -1.0421 -0.3545
23928SOL    HW272363   1.511   8.037   7.570  0.4236 -0.2277  0.1836
23929SOL     OW72364   6.725   7.933   1.387  0.1632  0.2666  0.5153
23929SOL    HW172365   6.715   7.932   1.482 -0.4771 -0.5593  0.4533
23929SOL    HW272366   6.808   7.886   1.372  1.3367  2.1414  0.7371
23930SOL     OW72367   7.349   5.776   5.765  0.1998  0.0455  0.3561
23930SOL    HW172368   7.407   5.755   5.692  2.7506  2.4423  1.4963
23930SOL    HW272369   7.320   5.865   5.748 -0.0212  0.2615  1.7270
23931SOL     OW72370   7.148   8.241   8.593  0.2764 -0.7919 -0.2727
23931SOL    HW172371   7.184   8.196   8.516 -1.1152 -2.2500 -0.1360
23931SOL    HW272372   7.117   8.325   8.560 -1.6357 -1.9612 -1.7047
23932SOL     OW72373   3.871   8.512   5.776 -0.0244 -0.2934  0.3838
23932SOL    HW172374   3.778   8.524   5.759  0.6940  0.8179 -4.2907
23932SOL    HW272375   3.904   8.601   5.790  0.4708 -0.5957  1.1780
23933SOL     OW72376   3.085   1.113   0.166 -0.1089  0.3037 -0.0124
23933SOL    HW172377   3.057   1.041   0.222  0.3492  0.0214 -0.1421
23933SOL    HW272378   3.179   1.099   0.154  1.0937  3.3167  3.5812
23934SOL     OW72379   0.391   2.245   9.234  0.2837 -0.2862 -0.3600
23934SOL    HW172380   0.298   2.254   9.254  0.1812 -0.2871 -0.8136
23934SOL    HW272381   0.409   2.151   9.245  0.0965 -0.3791 -0.8068
23935SOL     OW72382   0.042   1.769   1.766 -0.4517 -0.2446  0.0374
23935SOL    HW172383   0.007   1.791   1.680 -1.8808 -0.1442  0.6284
23935SOL    HW272384   0.027   1.675   1.775  1.7863 -0.7447 -0.7247
23936SOL     OW72385   6.075   4.964   2.410 -0.1985 -0.0657  0.0852
23936SOL    HW172386   6.051   4.875   2.385 -0.6527 -0.0507  0.4513
23936SOL    HW272387   6.038   5.020   2.341  0.8644 -0.2221 -0.6262
23937SOL     OW72388   0.684   2.665   3.027 -0.8360 -0.4924  0.1313
23937SOL    HW172389   0.648   2.607   3.094 -0.8134 -0.1819  0.4168
23937SOL    HW272390   0.607   2.708   2.989 -0.8284 -0.4291  0.1855
23938SOL     OW72391   1.000   7.358   2.074 -0.1720 -0.1645 -0.0658
23938SOL    HW172392   1.035   7.316   1.995  1.2919  1.1551 -0.1631
23938SOL    HW272393   1.014   7.451   2.060 -2.0081  0.2814  0.7892
23939SOL     OW72394   9.695   9.618   1.286 -0.3209  0.3515 -0.4067
23939SOL    HW172395   9.748   9.571   1.222 -2.8314 -2.1853 -0.8691
23939SOL    HW272396   9.671   9.699   1.243  0.9905  0.3410 -1.2042
23940SOL     OW72397   5.950   3.893   7.601 -0.0730  0.1217 -0.4410
23940SOL    HW172398   6.042   3.907   7.624 -0.5637 -1.3975  3.0911
23940SOL    HW272399   5.943   3.798   7.589 -1.6335 -0.2455  2.4749
23941SOL     OW72400   2.810   6.629   4.619  0.3038  0.0116  0.1566
23941SOL    HW172401   2.779   6.559   4.677  1.5195 -0.0526  0.7555
23941SOL    HW272402   2.820   6.587   4.534  1.9950 -0.8491  0.7269
23942SOL     OW72403   2.372   3.530   2.781 -0.2026 -0.4084 -0.4224
23942SOL    HW172404   2.372   3.470   2.857 -1.0750 -1.5807 -1.3118
23942SOL    HW272405   2.459   3.570   2.783 -0.1616 -0.4790  1.1325
23943SOL     OW72406   4.317   5.923   0.329  0.1112  0.9013 -0.4174
23943SOL    HW172407   4.318   6.017   0.311 -0.1449  0.8509 -0.7144
23943SOL    HW272408   4.397   5.890   0.288 -0.4538  0.7928 -1.4618
23944SOL     OW72409   0.649   4.832   9.291  0.4668 -0.0552  0.2536
23944SOL    HW172410   0.575   4.859   9.346 -1.2699 -0.7648 -1.6023
23944SOL    HW272411   0.710   4.906   9.295 -1.0096  1.1929  0.7354
23945SOL     OW72412   6.509   4.009   5.925  0.0616  0.4459 -0.1836
23945SOL    HW172413   6.588   3.965   5.895 -1.0647 -1.8993  0.0412
23945SOL    HW272414   6.466   3.945   5.982 -3.6849  0.1929 -2.9449
23946SOL     OW72415   3.377   0.484   4.600  0.0627  0.4995 -0.1273
23946SOL    HW172416   3.425   0.447   4.674 -0.8757 -3.0516 -1.0893
23946SOL    HW272417   3.426   0.457   4.523 -0.2230  2.1397 -0.9312
23947SOL     OW72418   8.431   3.660   6.986 -0.1399 -0.6467 -0.2552
23947SOL    HW172419   8.412   3.754   6.990  0.3476 -0.5492 -0.1054
23947SOL    HW272420   8.391   3.624   7.065 -2.6129 -1.0118 -1.5858
23948SOL     OW72421   0.631   8.035   6.467  0.2681  0.4089 -0.1298
23948SOL    HW172422   0.645   7.955   6.416  0.9090  0.5050 -0.1001
23948SOL    HW272423   0.702   8.037   6.530  0.5166  1.2431 -0.4247
23949SOL     OW72424   2.714   6.877   5.370 -0.1448 -0.2172 -0.2640
23949SOL    HW172425   2.704   6.782   5.368  0.1307 -0.2793  0.7051
23949SOL    HW272426   2.637   6.910   5.325 -1.3604 -0.8548  1.2572
23950SOL     OW72427   7.542   1.097   2.505  0.3202 -0.5420  0.1348
23950SOL    HW172428   7.584   1.059   2.582 -1.9909 -1.6337  0.9624
23950SOL    HW272429   7.458   1.129   2.538 -0.8231 -1.2241 -1.9627
23951SOL     OW72430   1.869   3.661   7.620 -0.1262 -0.0517  0.2523
23951SOL    HW172431   1.836   3.729   7.678 -2.4993 -0.6472 -0.3065
23951SOL    HW272432   1.842   3.579   7.662 -0.0916 -0.5458 -0.6661
23952SOL     OW72433   6.939   5.113   7.911 -0.1535  0.7174 -0.0612
23952SOL    HW172434   7.029   5.081   7.914  0.2278  1.6546 -0.9491
23952SOL    HW272435   6.922   5.129   7.818 -1.6383 -0.5105 -0.0531
23953SOL     OW72436   3.372   6.054   4.557  0.2142  0.1018 -0.6172
23953SOL    HW172437   3.299   6.010   4.513 -0.0384  0.7075 -0.8012
23953SOL    HW272438   3.384   6.004   4.638  0.1705 -0.5366 -0.9904
23954SOL     OW72439   2.978   8.697   0.783 -1.1044  0.1925 -0.1102
23954SOL    HW172440   2.987   8.791   0.767  0.0896  0.1169  0.0332
23954SOL    HW272441   2.892   8.675   0.748 -1.0726  1.1919 -0.8602
23955SOL     OW72442   8.096   0.516   1.605 -0.0449  0.0083 -0.1236
23955SOL    HW172443   8.154   0.521   1.680 -0.0792 -0.7448 -0.0341
23955SOL    HW272444   8.009   0.502   1.642  0.0094 -0.8876 -0.3032
23956SOL     OW72445   3.282   4.451   5.072  0.1971 -0.1739  0.3069
23956SOL    HW172446   3.261   4.393   5.145 -0.5843  0.1598  0.3657
23956SOL    HW272447   3.237   4.533   5.093  0.5726  0.1697 -0.1898
23957SOL     OW72448   4.877   3.880   8.124  0.0956  0.2792  0.0931
23957SOL    HW172449   4.933   3.932   8.067  1.5250 -1.2325  0.0287
23957SOL    HW272450   4.931   3.866   8.203 -1.4339  1.4393  1.4214
23958SOL     OW72451   4.835   0.362   5.591 -0.3511  0.1481 -0.3502
23958SOL    HW172452   4.796   0.396   5.672  0.3536 -0.1694  0.1353
23958SOL    HW272453   4.803   0.272   5.585 -1.7162  0.6742 -1.3054
23959SOL     OW72454   3.757   8.500   9.365  0.8552  0.5825 -0.3772
23959SOL    HW172455   3.692   8.571   9.364  1.8717  1.5624 -1.7685
23959SOL    HW272456   3.746   8.458   9.450 -0.0598  2.1812  0.3401
23960SOL     OW72457   1.556   5.848   3.350  0.5974 -0.2678  0.3834
23960SOL    HW172458   1.596   5.880   3.269  0.5083 -0.3670  0.2998
23960SOL    HW272459   1.630   5.835   3.410  0.6103  0.3286  0.5000
23961SOL     OW72460   7.406   9.842   1.687  0.5874 -0.2334  0.0504
23961SOL    HW172461   7.429   9.749   1.694 -0.6210 -0.4977  0.7730
23961SOL    HW272462   7.318   9.843   1.650  0.7473  0.6528 -0.3411
23962SOL     OW72463   2.199   7.523   3.428  0.2424  0.3215  0.4724
23962SOL    HW172464   2.226   7.531   3.337  0.3988  0.7161  0.5498
23962SOL    HW272465   2.227   7.435   3.454  1.5987  0.7608  0.5904
23963SOL     OW72466   0.305   9.068   6.977 -0.3794  0.3870  0.0875
23963SOL    HW172467   0.232   9.125   6.955 -0.3034  1.4006  2.2678
23963SOL    HW272468   0.382   9.113   6.943 -0.7362 -1.5479 -3.8989
23964SOL     OW72469   8.570   1.434   2.415 -0.2117 -0.3373 -0.0694
23964SOL    HW172470   8.506   1.367   2.439  0.6033 -0.4695  1.8608
23964SOL    HW272471   8.522   1.516   2.420 -0.6897 -0.5870 -0.4582
23965SOL     OW72472   6.112   1.521   7.122 -0.0816  0.2413  0.1410
23965SOL    HW172473   6.161   1.533   7.040 -0.6972  0.4419 -0.2068
23965SOL    HW272474   6.086   1.429   7.122 -0.5718  0.3727 -0.1801
23966SOL     OW72475   5.239   4.625   3.885 -0.4299 -0.2769  0.6146
23966SOL    HW172476   5.157   4.672   3.899  0.2367  0.9926  0.4151
23966SOL    HW272477   5.286   4.635   3.968  0.7631  1.6213 -0.2211
23967SOL     OW72478   6.739   1.224   9.481 -0.0725  0.1315 -0.4494
23967SOL    HW172479   6.734   1.136   9.445 -1.7914  0.3942 -0.9160
23967SOL    HW272480   6.778   1.277   9.411  0.0805 -0.0666 -0.5155
23968SOL     OW72481   0.950   2.621   2.960 -0.4508  0.6815 -0.0851
23968SOL    HW172482   0.936   2.530   2.932 -1.5632  0.7509  0.2173
23968SOL    HW272483   0.862   2.657   2.969 -0.0178  1.7297  0.0206
23969SOL     OW72484   4.685   1.162   7.696 -0.0982 -0.2259 -0.3050
23969SOL    HW172485   4.656   1.072   7.676 -1.7779  0.2176 -0.0282
23969SOL    HW272486   4.706   1.199   7.610  0.7673 -0.9169 -0.4097
23970SOL     OW72487   1.262   1.610   0.231 -0.1607  0.1547  0.1070
23970SOL    HW172488   1.193   1.613   0.166 -0.4696 -1.9964  0.2770
23970SOL    HW272489   1.340   1.642   0.185 -1.0194  1.7276 -0.3347
23971SOL     OW72490   2.619   2.794   5.343 -0.0670  0.3458  0.5440
23971SOL    HW172491   2.535   2.812   5.300 -0.7667 -2.7008  0.3580
23971SOL    HW272492   2.596   2.776   5.434  0.4210 -0.1600  0.5735
23972SOL     OW72493   8.173   2.969   4.085 -0.0948  0.1592  0.4938
23972SOL    HW172494   8.125   3.028   4.028 -0.0659 -2.5852 -2.7063
23972SOL    HW272495   8.265   2.992   4.072 -0.1778  1.0072  1.2958
23973SOL     OW72496   9.659   7.981   5.427  0.3278  0.3883  0.3553
23973SOL    HW172497   9.736   7.980   5.371  0.9171  0.8389  1.1395
23973SOL    HW272498   9.623   8.069   5.416  1.4727  1.1045  2.0246
23974SOL     OW72499   0.414   3.089   3.518  0.1544  0.4455  0.6110
23974SOL    HW172500   0.508   3.104   3.521  0.1844  0.0904  2.7090
23974SOL    HW272501   0.405   2.999   3.486  0.4654  0.6740 -0.1580
23975SOL     OW72502   2.429   9.755   0.054  0.1920 -0.3361  0.2084
23975SOL    HW172503   2.335   9.755   0.039  0.0070  0.0150  1.2858
23975SOL    HW272504   2.458   9.842   0.029 -0.0750  0.1640  1.5691
23976SOL     OW72505   1.884   9.392   7.868  0.0878  0.6365  0.0609
23976SOL    HW172506   1.928   9.326   7.814 -0.6954  1.6889 -1.9497
23976SOL    HW272507   1.791   9.382   7.846 -0.6282 -0.5778  3.1616
23977SOL     OW72508   4.487   7.147   0.428  0.3009 -0.0195  0.8734
23977SOL    HW172509   4.469   7.059   0.460 -0.2434  0.1456  1.0290
23977SOL    HW272510   4.467   7.204   0.502  1.8152  0.1586  1.1747
23978SOL     OW72511   5.369   4.395   4.134 -0.7628 -0.1731 -0.2695
23978SOL    HW172512   5.405   4.309   4.113  0.4849  1.0214 -3.6941
23978SOL    HW272513   5.281   4.394   4.096 -0.8563 -0.0230 -0.0586
23979SOL     OW72514   6.917   9.771   1.376  0.0548 -0.5605 -0.1186
23979SOL    HW172515   6.888   9.740   1.462  0.1653  0.3003  0.2436
23979SOL    HW272516   6.934   9.691   1.326 -0.4001 -1.0737  0.5239
23980SOL     OW72517   6.292   9.763   8.882 -0.2760  0.2950 -0.4825
23980SOL    HW172518   6.219   9.798   8.933 -1.1341 -0.9098 -0.8394
23980SOL    HW272519   6.328   9.839   8.836 -0.3422  1.1583  0.8441
23981SOL     OW72520   1.714   7.008   5.104  0.0071  0.2277  0.5316
23981SOL    HW172521   1.773   6.952   5.053 -2.1212 -2.0715  0.4201
23981SOL    HW272522   1.669   7.062   5.039 -1.1386 -1.1635  0.1213
23982SOL     OW72523   7.240   5.267   9.438 -0.2272  0.1288  0.3422
23982SOL    HW172524   7.160   5.261   9.386  0.0310 -0.9160  0.0445
23982SOL    HW272525   7.297   5.198   9.403  0.7224  0.7160  0.6935
23983SOL     OW72526   6.732   9.282   7.476  0.1903 -0.0408 -0.5878
23983SOL    HW172527   6.783   9.210   7.439 -1.1052 -0.9650 -0.6382
23983SOL    HW272528   6.791   9.323   7.538  1.3406 -0.4286 -1.3861
23984SOL     OW72529   5.513   0.838   9.722  0.7154 -0.3644 -0.4494
23984SOL    HW172530   5.489   0.912   9.778 -1.7657 -0.7195 -0.9351
23984SOL    HW272531   5.577   0.788   9.774 -0.2219  0.2305  1.3570
23985SOL     OW72532   6.260   7.085   7.504  0.2547  0.3577 -0.0213
23985SOL    HW172533   6.284   7.165   7.551  0.5652 -0.9136  2.1600
23985SOL    HW272534   6.336   7.027   7.514  0.8746  0.4161 -3.2987
23986SOL     OW72535   2.644   0.852   0.429  0.7276  0.3268 -0.1062
23986SOL    HW172536   2.679   0.766   0.408 -2.7029 -1.4080  0.6384
23986SOL    HW272537   2.669   0.867   0.520 -2.8057 -2.4110  1.5494
23987SOL     OW72538   1.098   0.337   7.595  0.4542 -0.0405  0.0248
23987SOL    HW172539   1.010   0.341   7.632 -0.2620  1.3622 -1.6973
23987SOL    HW272540   1.089   0.286   7.515  1.0075  0.8606 -0.6367
23988SOL     OW72541   7.817   4.554   6.147 -0.9755 -0.7486 -0.3259
23988SOL    HW172542   7.804   4.482   6.208 -1.2048 -0.5349 -0.1199
23988SOL    HW272543   7.796   4.633   6.198  0.4727 -0.4342 -0.1667
23989SOL     OW72544   9.111   1.974   2.704 -0.7494 -0.0168  0.0650
23989SOL    HW172545   9.097   2.043   2.768  2.3540  1.7952 -1.0173
23989SOL    HW272546   9.119   2.019   2.621  1.8041 -1.5379 -0.6337
23990SOL     OW72547   7.601   8.052   6.956  0.0754  0.7035 -0.4952
23990SOL    HW172548   7.659   8.026   7.027 -0.3491 -0.4406 -0.5578
23990SOL    HW272549   7.628   7.998   6.882 -0.8333  0.4105 -0.6176
23991SOL     OW72550   3.087   9.274   2.826 -0.1045 -0.5620 -0.3949
23991SOL    HW172551   3.154   9.329   2.785  0.1910  0.1160  0.9472
23991SOL    HW272552   3.054   9.219   2.755  0.6276  0.3337 -1.4535
23992SOL     OW72553   3.938   8.336   2.696  0.1669 -0.4189  0.0039
23992SOL    HW172554   4.008   8.401   2.698  0.7338 -0.9829 -0.7382
23992SOL    HW272555   3.866   8.379   2.649  1.1548 -0.8774 -2.0374
23993SOL     OW72556   5.183   7.366   0.171 -1.0801 -0.1461  0.1673
23993SOL    HW172557   5.258   7.319   0.136 -1.4025  0.7024 -1.8236
23993SOL    HW272558   5.220   7.428   0.234 -0.2824 -0.6853  0.2390
23994SOL     OW72559   0.180   8.561   6.160  0.3331  0.4100  0.3489
23994SOL    HW172560   0.211   8.490   6.217  1.7244  0.9978  0.3623
23994SOL    HW272561   0.200   8.531   6.072  0.5069  0.5900  0.3270
23995SOL     OW72562   4.475   3.663   0.792  0.5100  0.3624 -0.3816
23995SOL    HW172563   4.491   3.704   0.708 -3.7397  0.7716 -1.2486
23995SOL    HW272564   4.450   3.573   0.771  1.2276 -0.0995  0.6462
23996SOL     OW72565   3.681   7.261   8.197  0.0019 -0.2128  0.6075
23996SOL    HW172566   3.686   7.356   8.206  1.6688 -0.0606 -1.2243
23996SOL    HW272567   3.624   7.233   8.268  1.6967  1.8764  2.9847
23997SOL     OW72568   6.134   3.911   5.324 -0.5449 -0.2173 -0.0144
23997SOL    HW172569   6.056   3.880   5.279  0.6502  1.0072 -3.2134
23997SOL    HW272570   6.205   3.855   5.290  0.2449 -0.3332  1.6809
23998SOL     OW72571   5.768   3.098   4.877  0.1543  0.2768  0.2541
23998SOL    HW172572   5.729   3.169   4.825  1.0232  0.2982 -0.3951
23998SOL    HW272573   5.793   3.140   4.959  0.2304  0.6159  0.0620
23999SOL     OW72574   5.465   6.265   4.896 -0.1464 -0.0844  0.6135
23999SOL    HW172575   5.497   6.180   4.928 -1.5629 -0.3760  1.3362
23999SOL    HW272576   5.410   6.298   4.967 -0.1267  1.1551  0.0769
24000SOL     OW72577   7.423   7.602   3.019 -0.3305 -0.3293  0.0873
24000SOL    HW172578   7.427   7.615   2.925 -0.0863 -0.7953  0.0299
24000SOL    HW272579   7.426   7.507   3.030  1.2987 -0.2326  0.6369
24001SOL     OW72580   4.794   4.935   6.532 -0.4892  0.0678  0.7218
24001SOL    HW172581   4.769   4.867   6.470  1.3608  0.1349 -0.1559
24001SOL    HW272582   4.861   4.895   6.587  1.5174  1.4608 -0.5829
24002SOL     OW72583   0.306   0.166   8.279  0.0567  0.2905  0.6968
24002SOL    HW172584   0.320   0.251   8.322 -1.5274  1.0921 -0.2842
24002SOL    HW272585   0.324   0.183   8.187  1.7032 -0.9756  0.7456
24003SOL     OW72586   3.280   6.470   5.714  0.0114  0.1008  0.1100
24003SOL    HW172587   3.197   6.438   5.677  0.5690 -0.6286 -0.5422
24003SOL    HW272588   3.285   6.561   5.688  0.6532 -0.5280 -2.1436
24004SOL     OW72589   7.273   5.867   8.205 -0.3615  0.6007 -0.5136
24004SOL    HW172590   7.201   5.921   8.239 -1.6968 -0.9786 -0.7212
24004SOL    HW272591   7.303   5.913   8.126  0.1649  2.2603  0.5977
24005SOL     OW72592   2.303   3.240   5.592  0.1455  0.1049  0.0668
24005SOL    HW172593   2.306   3.336   5.599  2.7383  0.0971 -0.2575
24005SOL    HW272594   2.390   3.211   5.618 -0.6873 -2.2266  0.4846
24006SOL     OW72595   9.435   5.217   8.179  0.0597 -0.3119  0.0107
24006SOL    HW172596   9.398   5.231   8.266  0.6375 -2.8027  0.7446
24006SOL    HW272597   9.427   5.301   8.136 -3.3133  0.1732  1.2755
24007SOL     OW72598   4.152   2.608   5.309  0.1934 -0.0294 -0.3630
24007SOL    HW172599   4.132   2.614   5.403  0.4924 -0.1213 -0.2941
24007SOL    HW272600   4.246   2.622   5.303  0.0794  0.6010 -0.7136
24008SOL     OW72601   7.620   8.524   2.057 -0.6706 -0.0947 -0.1546
24008SOL    HW172602   7.642   8.458   1.990 -0.3481 -1.8287  1.5643
24008SOL    HW272603   7.559   8.583   2.013 -0.4699 -1.1579 -1.9771
24009SOL     OW72604   5.206   2.227   6.295  0.3486  0.0126 -0.2243
24009SOL    HW172605   5.151   2.152   6.320  0.4457 -0.3018 -0.9277
24009SOL    HW272606   5.151   2.279   6.237  0.2966  0.4714  0.2311
24010SOL     OW72607   1.841   5.048   3.272 -0.1216  0.2176  0.1388
24010SOL    HW172608   1.830   4.969   3.325 -0.1563  0.1789  0.0741
24010SOL    HW272609   1.935   5.065   3.274  0.0437 -0.4873 -0.7984
24011SOL     OW72610   2.895   7.838   1.868 -0.1699 -0.3931 -0.3518
24011SOL    HW172611   2.837   7.796   1.804 -0.2659 -0.9822  0.1193
24011SOL    HW272612   2.874   7.931   1.861 -1.2482 -0.6062 -0.1168
24012SOL     OW72613   1.552   4.989   3.988  0.4648  0.2516  0.0113
24012SOL    HW172614   1.635   4.944   3.970 -0.1645 -0.0900 -2.3708
24012SOL    HW272615   1.487   4.919   3.994  0.1155  0.6075  0.5388
24013SOL     OW72616   7.274   5.228   8.937  0.1107  0.2314 -0.2947
24013SOL    HW172617   7.342   5.247   9.001 -1.4807  3.0046  0.7389
24013SOL    HW272618   7.284   5.297   8.871 -1.4008  0.4545 -0.3177
24014SOL     OW72619   6.040   7.865   0.947  0.0799  0.1604  0.2898
24014SOL    HW172620   6.015   7.947   0.989 -0.3095  1.2099 -1.8191
24014SOL    HW272621   6.125   7.842   0.985 -0.2684  1.0113  1.6154
24015SOL     OW72622   2.976   2.105   4.287 -0.0288 -0.1248 -0.4460
24015SOL    HW172623   3.002   2.169   4.221  1.8698 -0.8521 -0.4522
24015SOL    HW272624   3.054   2.051   4.301  0.5150  1.4192  4.0712
24016SOL     OW72625   1.579   2.186   9.937  0.4705 -0.7135  0.4523
24016SOL    HW172626   1.668   2.169   9.969  0.7421 -0.9701 -0.4138
24016SOL    HW272627   1.578   2.151   9.848  0.0208  0.8619 -0.1870
24017SOL     OW72628   2.970   8.570   4.164 -0.7736 -0.2370 -0.0794
24017SOL    HW172629   3.048   8.519   4.141 -1.2105 -0.3320 -1.4516
24017SOL    HW272630   2.920   8.513   4.222  0.2049 -0.1393  0.8972
24018SOL     OW72631   9.481   8.253   1.894 -0.0382 -0.1630  0.3027
24018SOL    HW172632   9.453   8.162   1.903 -0.4360  0.1339  2.6772
24018SOL    HW272633   9.405   8.298   1.858 -0.4996 -0.4493  0.9090
24019SOL     OW72634   7.251   0.057   8.791  0.0600 -0.2220 -0.3997
24019SOL    HW172635   7.303   0.132   8.763  0.6946 -0.4197  0.2127
24019SOL    HW272636   7.161   0.082   8.772  0.0709  1.4625  1.4208
24020SOL     OW72637   6.437   8.341   1.343 -0.0390  0.2173  0.3760
24020SOL    HW172638   6.517   8.341   1.396  0.9460  1.3843 -1.0422
24020SOL    HW272639   6.452   8.407   1.276 -1.6958 -0.4220 -0.7018
24021SOL     OW72640   5.395   0.547   1.368  0.3185 -0.0391 -0.6149
24021SOL    HW172641   5.455   0.531   1.441  0.5730 -1.3198 -1.0727
24021SOL    HW272642   5.406   0.470   1.311 -0.7326  0.3763 -1.4047
24022SOL     OW72643   5.730   8.459   7.500 -0.0807  0.0231  0.5122
24022SOL    HW172644   5.643   8.423   7.481 -0.0465 -0.9586  2.0109
24022SOL    HW272645   5.741   8.530   7.438 -1.3352 -0.8000 -0.7164
24023SOL     OW72646   8.344   8.626   6.549 -0.0427  0.1533 -0.1940
24023SOL    HW172647   8.408   8.556   6.532  0.0155 -0.5839  2.5283
24023SOL    HW272648   8.275   8.612   6.484  1.3020 -0.6542 -1.5186
24024SOL     OW72649   4.202   9.126   6.739  0.2175 -0.1356  0.4238
24024SOL    HW172650   4.204   9.175   6.821  2.0502  0.6829 -0.0686
24024SOL    HW272651   4.153   9.181   6.679  2.2633  1.2035 -0.1259
24025SOL     OW72652   3.118   6.071   0.874 -0.1706  0.2359 -0.1406
24025SOL    HW172653   3.157   6.159   0.872  1.1125 -0.1426  2.7374
24025SOL    HW272654   3.192   6.012   0.883 -1.1559 -0.8214  1.5935
24026SOL     OW72655   4.941   1.896   3.923  0.2252  0.2045 -0.0305
24026SOL    HW172656   4.889   1.891   4.003 -0.9231  0.4071 -0.7342
24026SOL    HW272657   4.953   1.990   3.908  0.8538  0.1604  0.1474
24027SOL     OW72658   2.552   7.738   1.911 -0.2578 -0.2901  0.5428
24027SOL    HW172659   2.592   7.735   1.824 -1.0500  1.8257  0.0383
24027SOL    HW272660   2.623   7.713   1.970  0.6802 -0.4767 -0.6122
24028SOL     OW72661   1.585   1.026   3.033 -0.6763 -0.1018 -0.0087
24028SOL    HW172662   1.543   0.941   3.024  1.2747 -0.9929 -1.3640
24028SOL    HW272663   1.635   1.020   3.114  0.9201 -0.9792 -1.0102
24029SOL     OW72664   2.543   8.338   4.630  0.0910 -0.4918 -0.3599
24029SOL    HW172665   2.594   8.419   4.629 -0.2142 -0.2589  0.8766
24029SOL    HW272666   2.609   8.269   4.636  0.3147 -0.2849 -0.3855
24030SOL     OW72667   9.024   0.810   7.356 -0.2527  0.6468  0.6568
24030SOL    HW172668   9.032   0.901   7.326  1.6623 -0.1228 -1.5023
24030SOL    HW272669   9.115   0.778   7.360 -0.9223 -1.4219  0.4624
24031SOL     OW72670   8.110   6.419   3.450 -0.0450 -0.3679 -0.0986
24031SOL    HW172671   8.033   6.367   3.429 -0.0617 -0.7297  0.8304
24031SOL    HW272672   8.079   6.509   3.450 -0.6325 -0.5547  0.9279
24032SOL     OW72673   2.152   6.866   6.148  0.3017  0.7528  0.2487
24032SOL    HW172674   2.135   6.781   6.189  1.3600  0.2414 -0.3044
24032SOL    HW272675   2.248   6.874   6.148  0.2682  1.4085 -0.7449
24033SOL     OW72676   5.829   1.349   0.686  0.6817  0.0703 -0.5179
24033SOL    HW172677   5.801   1.288   0.618  1.4049  0.4675 -1.1964
24033SOL    HW272678   5.749   1.370   0.734  0.0913  0.0272 -1.4499
24034SOL     OW72679   0.935   6.166   6.693  0.0702  0.5516 -0.1103
24034SOL    HW172680   0.900   6.254   6.679 -1.2865  0.0616  0.0927
24034SOL    HW272681   0.873   6.125   6.753  0.9514 -0.3886  0.1777
24035SOL     OW72682   8.929   8.035   8.282  0.7038  0.6600  0.0967
24035SOL    HW172683   8.852   8.042   8.339  0.1076 -1.2431 -0.4000
24035SOL    HW272684   8.943   8.124   8.250 -0.3101  1.3499  1.4396
24036SOL     OW72685   1.473   5.468   4.668  0.3217 -0.7744  0.1021
24036SOL    HW172686   1.529   5.467   4.745  0.8079  0.0671 -0.2289
24036SOL    HW272687   1.458   5.560   4.649 -0.1626 -0.9730 -0.5381
24037SOL     OW72688   0.839   3.120   6.592 -0.1251  0.3716  0.4489
24037SOL    HW172689   0.764   3.149   6.541 -0.6238 -0.3427  0.7591
24037SOL    HW272690   0.801   3.089   6.675  0.3928 -0.9964  0.1967
24038SOL     OW72691   0.304   1.797   6.500  0.0011  0.3355  0.2553
24038SOL    HW172692   0.310   1.707   6.534  1.4793  0.2493 -0.1628
24038SOL    HW272693   0.395   1.821   6.480 -0.4001  1.8543  0.1587
24039SOL     OW72694   9.357   1.465   3.840  0.4381 -0.1977  0.3925
24039SOL    HW172695   9.286   1.485   3.901 -0.8093 -0.4005 -0.9268
24039SOL    HW272696   9.417   1.539   3.848 -1.3349  1.4194 -0.4299
24040SOL     OW72697   6.998   0.212   6.027 -0.0781  0.5433  0.3583
24040SOL    HW172698   7.020   0.250   6.112  0.2878  0.0726  0.4809
24040SOL    HW272699   6.953   0.282   5.980 -0.6853  0.6723  1.1010
24041SOL     OW72700   1.491   5.746   6.236  0.2754  0.3447  0.2547
24041SOL    HW172701   1.536   5.681   6.182 -0.7592 -1.0095  0.9336
24041SOL    HW272702   1.470   5.817   6.176 -1.3225 -1.3343 -1.3343
24042SOL     OW72703   0.591   3.973   3.712 -0.5349  0.1725  0.3127
24042SOL    HW172704   0.685   3.976   3.694 -0.5453 -0.7338  0.0580
24042SOL    HW272705   0.554   3.933   3.633 -1.2930  1.7345 -0.1510
24043SOL     OW72706   1.591   3.099   1.015 -0.8599  0.5657  0.4668
24043SOL    HW172707   1.643   3.053   1.081 -1.6508  0.3177  0.9228
24043SOL    HW272708   1.618   3.190   1.024  0.9789  0.1878 -0.6799
24044SOL     OW72709   6.718   3.752   6.091 -0.1050 -0.2936 -0.7010
24044SOL    HW172710   6.725   3.777   5.999  2.0326 -0.0463 -0.5404
24044SOL    HW272711   6.773   3.816   6.137 -3.6193  1.5989  1.2368
24045SOL     OW72712   4.288   0.731   4.877  0.7882  0.2883  0.4853
24045SOL    HW172713   4.343   0.657   4.850 -0.4096 -0.2146 -0.7314
24045SOL    HW272714   4.314   0.750   4.967  2.0071 -0.7904  0.3794
24046SOL     OW72715   9.024   6.706   5.642 -0.1010  0.2822 -0.1513
24046SOL    HW172716   9.030   6.780   5.581 -2.7998 -0.5525 -1.5965
24046SOL    HW272717   9.022   6.629   5.586 -1.2831 -0.6034  1.0385
24047SOL     OW72718   9.623   0.413   4.800 -0.1121 -0.5792  0.1637
24047SOL    HW172719   9.658   0.378   4.718 -0.3301 -0.0396 -0.1705
24047SOL    HW272720   9.553   0.353   4.824 -1.3382  0.2871 -1.0752
24048SOL     OW72721   8.497   6.064   7.408 -0.0444 -0.2259 -0.8081
24048SOL    HW172722   8.424   6.028   7.458  1.6293 -0.2334  1.8382
24048SOL    HW272723   8.475   6.157   7.398  0.3771  0.2422  1.7523
24049SOL     OW72724   5.626   9.644   4.648 -0.0305  0.5721 -0.1148
24049SOL    HW172725   5.615   9.645   4.743 -0.1442 -1.4169 -0.0539
24049SOL    HW272726   5.721   9.639   4.635 -0.0746 -0.9995 -0.0127
24050SOL     OW72727   9.565   9.662   8.121  0.0701 -0.2034  0.1706
24050SOL    HW172728   9.518   9.581   8.143 -2.3153  0.4479 -2.1223
24050SOL    HW272729   9.520   9.730   8.169 -0.7900  0.2991 -1.2892
24051SOL     OW72730   6.112   0.314   2.947 -0.1142 -0.0239  0.5660
24051SOL    HW172731   6.172   0.284   2.879 -0.0608  0.7309  0.2717
24051SOL    HW272732   6.167   0.364   3.007 -0.6579  1.9595 -0.5002
24052SOL     OW72733   1.175   7.215   9.133  0.1130  0.3702  0.1409
24052SOL    HW172734   1.160   7.264   9.053  1.1579 -0.0017 -0.3037
24052SOL    HW272735   1.267   7.229   9.153  0.1593 -0.5202  0.6076
24053SOL     OW72736   7.093   6.457   7.373 -0.2514 -0.0040  0.3933
24053SOL    HW172737   7.110   6.474   7.281 -1.6294  0.4724  0.1964
24053SOL    HW272738   7.121   6.537   7.418 -2.5719  1.1314 -0.0253
24054SOL     OW72739   1.908   1.846   7.597  0.0699 -0.2314  0.5936
24054SOL    HW172740   1.876   1.935   7.581 -0.2415 -0.0127  2.2455
24054SOL    HW272741   1.829   1.794   7.607  0.2453 -0.8661 -1.0754
24055SOL     OW72742   2.496   4.690   4.386 -0.3297  0.1554 -0.0402
24055SOL    HW172743   2.533   4.753   4.448 -0.2090 -1.9137  2.1243
24055SOL    HW272744   2.457   4.622   4.440 -1.6010 -1.0227 -2.2696
24056SOL     OW72745   7.795   5.730   4.748  0.2377 -0.0772  0.2283
24056SOL    HW172746   7.708   5.704   4.716  0.5366  1.2111 -1.8679
24056SOL    HW272747   7.782   5.819   4.783  0.0275 -1.2696  3.4907
24057SOL     OW72748   5.065   6.968   8.903 -0.1029  0.1886  0.2045
24057SOL    HW172749   4.975   6.998   8.898 -0.4955 -0.9550  0.0879
24057SOL    HW272750   5.089   6.949   8.812 -0.7582 -2.2863  0.4865
24058SOL     OW72751   6.796   8.177   8.510  0.1852  0.6527  0.3485
24058SOL    HW172752   6.823   8.106   8.568 -1.1182 -0.8352 -0.7640
24058SOL    HW272753   6.757   8.242   8.569  0.7893  0.1561  1.3308
24059SOL     OW72754   3.156   4.323   9.581  0.3632  0.2595  0.4546
24059SOL    HW172755   3.230   4.332   9.641  0.9476 -2.6273  0.3338
24059SOL    HW272756   3.136   4.229   9.583 -1.9282  0.6435 -1.1530
24060SOL     OW72757   9.373   0.754   7.033 -0.2579 -0.5602 -0.6055
24060SOL    HW172758   9.375   0.824   7.099  1.7424 -0.6804 -0.4589
24060SOL    HW272759   9.315   0.688   7.070  1.9167 -1.3019  1.8452
24061SOL     OW72760   2.012   7.105   4.636 -0.2962 -0.1944  0.0560
24061SOL    HW172761   2.013   7.189   4.589  0.0449 -0.8991 -1.2584
24061SOL    HW272762   1.958   7.048   4.581  0.8696 -1.3099  0.0075
24062SOL     OW72763   5.848   9.351   0.374  0.0473 -0.4117  0.1786
24062SOL    HW172764   5.781   9.401   0.419 -0.4943 -1.7627  0.9261
24062SOL    HW272765   5.861   9.397   0.291 -0.0137  1.2608  1.0627
24063SOL     OW72766   4.503   7.164   5.254 -0.3981 -0.0391  0.1409
24063SOL    HW172767   4.543   7.242   5.217 -1.5943  0.5115 -0.0333
24063SOL    HW272768   4.498   7.102   5.181  2.2088 -1.0254  0.6718
24064SOL     OW72769   2.794   3.253   5.953  0.2399 -0.5449 -0.3607
24064SOL    HW172770   2.781   3.292   6.039 -0.7083 -0.3049 -0.6021
24064SOL    HW272771   2.709   3.259   5.911  0.5159 -1.3181 -1.0519
24065SOL     OW72772   2.754   1.109   4.639  0.4473 -0.0525 -0.4177
24065SOL    HW172773   2.690   1.138   4.575 -0.5492  2.1857  1.4465
24065SOL    HW272774   2.736   1.015   4.651  0.8717 -0.6166 -3.4892
24066SOL     OW72775   7.371   4.047   9.445 -0.1004 -0.2651  0.7631
24066SOL    HW172776   7.420   4.106   9.501  0.8339 -1.9394  1.8107
24066SOL    HW272777   7.290   4.030   9.492 -0.3659  0.1510  0.4651
24067SOL     OW72778   9.387   7.156   5.215 -0.1783  0.4047 -0.1321
24067SOL    HW172779   9.429   7.242   5.206  1.8788 -0.6075 -0.7536
24067SOL    HW272780   9.459   7.093   5.208 -1.5316 -1.3672  1.0601
24068SOL     OW72781   8.649   0.411   3.410 -0.2784 -0.0533  0.2701
24068SOL    HW172782   8.557   0.436   3.411  0.3943  2.8301  2.6531
24068SOL    HW272783   8.654   0.335   3.468 -1.3943 -1.9612 -1.9244
24069SOL     OW72784   8.577   4.121   2.845  0.3573 -1.0366  0.4019
24069SOL    HW172785   8.671   4.110   2.831  0.4208  0.9714 -1.1920
24069SOL    HW272786   8.544   4.155   2.761 -1.6194 -0.7712  1.2373
24070SOL     OW72787   3.076   9.467   7.105 -0.0668  0.1178 -0.1055
24070SOL    HW172788   3.068   9.555   7.069 -0.9049 -0.2896 -0.9792
24070SOL    HW272789   2.996   9.422   7.077  0.9408 -1.3205 -0.8719
24071SOL     OW72790   5.757   5.516   4.682  0.2071 -0.2237 -0.0289
24071SOL    HW172791   5.667   5.547   4.670 -0.1394 -0.2118  2.2120
24071SOL    HW272792   5.788   5.498   4.593 -2.2788 -1.0405 -0.8198
24072SOL     OW72793   7.980   5.507   6.904 -0.0335 -0.3424  0.2758
24072SOL    HW172794   7.964   5.598   6.931  1.0755  0.0669 -0.3615
24072SOL    HW272795   7.906   5.458   6.939  0.8835  0.2691  3.3836
24073SOL     OW72796   9.063   5.667   0.907  0.4749  0.1380 -1.0550
24073SOL    HW172797   9.072   5.729   0.979 -0.2736  2.2657 -2.6979
24073SOL    HW272798   9.153   5.636   0.890  0.8264  0.5873 -0.0545
24074SOL     OW72799   7.226   8.165   7.192 -0.2426  0.5775  0.1684
24074SOL    HW172800   7.299   8.188   7.249 -0.5933 -0.9414  1.3004
24074SOL    HW272801   7.258   8.092   7.139 -1.0275 -0.4243  1.0087
24075SOL     OW72802   6.569   4.801   3.030  0.0601 -0.1992  0.1552
24075SOL    HW172803   6.536   4.791   3.120  1.9511 -1.5836  0.7780
24075SOL    HW272804   6.579   4.711   2.999 -1.3488  0.2678 -1.8013
24076SOL     OW72805   1.764   1.315   7.456 -0.4402 -0.2453  0.0197
24076SOL    HW172806   1.816   1.293   7.379  1.3386  0.1474  1.0511
24076SOL    HW272807   1.688   1.257   7.451 -0.1594 -0.5184 -1.7871
24077SOL     OW72808   3.062   9.573   9.913  0.0164 -0.5017 -0.4409
24077SOL    HW172809   3.001   9.644   9.931 -0.8451 -1.2370 -0.4065
24077SOL    HW272810   3.019   9.494   9.947  0.9234 -1.0538 -0.5299
24078SOL     OW72811   7.028   4.547   5.483  0.3534 -0.3897 -0.3859
24078SOL    HW172812   7.044   4.492   5.560  0.4329 -0.7591 -0.6645
24078SOL    HW272813   6.933   4.544   5.472  0.2957  0.0437 -0.0242
24079SOL     OW72814   6.406   8.615   6.321 -0.0575 -0.2511  0.6667
24079SOL    HW172815   6.454   8.553   6.376 -0.3373 -0.6623  0.4504
24079SOL    HW272816   6.384   8.566   6.242  1.1502  0.5967 -0.2532
24080SOL     OW72817   2.374   6.725   5.920 -0.0587 -0.2138 -0.1962
24080SOL    HW172818   2.358   6.762   5.833 -3.0266  0.0150  0.3308
24080SOL    HW272819   2.454   6.674   5.910  0.6578  1.2056 -2.5954
24081SOL     OW72820   3.593   0.631   9.347 -0.2162  0.0197 -0.9231
24081SOL    HW172821   3.545   0.683   9.282 -1.9846  0.2043  0.4527
24081SOL    HW272822   3.565   0.541   9.332  0.3788 -0.1198 -1.2339
24082SOL     OW72823   4.726   3.408   8.016  0.2867 -0.0063 -0.1051
24082SOL    HW172824   4.714   3.316   8.037  0.1165  0.0760  0.1649
24082SOL    HW272825   4.797   3.437   8.074  1.5482 -0.3909 -1.4042
24083SOL     OW72826   8.382   3.680   8.050 -0.3969  0.3221 -0.4557
24083SOL    HW172827   8.302   3.646   8.009  0.2973 -1.7272 -0.2170
24083SOL    HW272828   8.375   3.654   8.142 -0.1006  1.3819 -0.1250
24084SOL     OW72829   2.386   7.598   6.297  0.5665  0.3597  0.2315
24084SOL    HW172830   2.334   7.613   6.377 -0.6748 -1.2103 -0.2095
24084SOL    HW272831   2.328   7.626   6.226  2.7394  4.6069 -0.1748
24085SOL     OW72832   1.032   8.051   3.831  0.2673 -0.3273  0.0488
24085SOL    HW172833   1.110   8.100   3.805  0.6188 -0.4110  0.9028
24085SOL    HW272834   1.042   7.965   3.790  2.5562 -1.6934  3.0880
24086SOL     OW72835   7.758   8.133   5.196  0.2122  0.1223  0.1712
24086SOL    HW172836   7.824   8.120   5.264  0.8799  0.1397 -0.4581
24086SOL    HW272837   7.723   8.221   5.213  0.5981  0.2516  0.2992
24087SOL     OW72838   2.760   8.257   2.969  0.7781 -0.8802 -0.1948
24087SOL    HW172839   2.685   8.300   3.009  0.8897 -0.1349 -0.7601
24087SOL    HW272840   2.813   8.329   2.933  1.1227 -1.4678 -0.8928
24088SOL     OW72841   0.422   5.602   0.589 -0.6272 -0.2381 -0.3847
24088SOL    HW172842   0.423   5.507   0.593 -0.7065 -0.2127  1.4723
24088SOL    HW272843   0.503   5.626   0.544  0.2677 -1.1784  0.6615
24089SOL     OW72844   8.669   2.739   9.370  0.0111  0.0065 -0.6265
24089SOL    HW172845   8.678   2.814   9.429 -1.1350 -0.4680  0.1833
24089SOL    HW272846   8.659   2.778   9.283 -1.8923  0.8955 -0.0685
24090SOL     OW72847   1.421   0.252   1.862  0.7953  0.0980  0.4689
24090SOL    HW172848   1.502   0.304   1.854  0.4379  1.2136  3.0408
24090SOL    HW272849   1.351   0.317   1.855  0.2387 -0.4275  1.0347
24091SOL     OW72850   3.510   8.363   1.847 -0.3186  0.4644  0.5660
24091SOL    HW172851   3.424   8.397   1.871 -0.0840  3.0029 -1.7419
24091SOL    HW272852   3.510   8.360   1.752  2.0680  0.2491  0.4911
24092SOL     OW72853   4.541   9.823   6.245  0.2952  0.5563 -0.2555
24092SOL    HW172854   4.464   9.767   6.239  0.8769 -0.0744 -2.5492
24092SOL    HW272855   4.516   9.903   6.198  1.6261 -0.4534 -2.8762
24093SOL     OW72856   6.807   7.492   7.214  0.4778 -0.0767 -0.3855
24093SOL    HW172857   6.757   7.570   7.237  0.3392  0.2332 -1.6831
24093SOL    HW272858   6.770   7.423   7.270 -0.7887  0.3435 -0.6630
24094SOL     OW72859   4.506   6.629   4.032  0.2082 -0.1144 -0.6186
24094SOL    HW172860   4.574   6.695   4.021  0.3486 -0.3042 -0.8785
24094SOL    HW272861   4.505   6.612   4.126  0.0008  0.4394 -0.5158
24095SOL     OW72862   0.497   3.716   0.415 -0.0235  0.2035  0.1120
24095SOL    HW172863   0.569   3.654   0.404  0.5844  0.6203  1.6120
24095SOL    HW272864   0.506   3.750   0.504 -0.3828  2.4042 -0.6213
24096SOL     OW72865   0.833   1.766   8.317 -0.2157 -0.4580  0.0195
24096SOL    HW172866   0.905   1.815   8.358  0.1901 -0.3066 -0.8494
24096SOL    HW272867   0.792   1.830   8.258 -1.3214 -0.4297  0.7871
24097SOL     OW72868   3.773   3.500   4.241  0.0362 -0.3361  0.0761
24097SOL    HW172869   3.768   3.589   4.276 -1.4541 -0.4310  0.1323
24097SOL    HW272870   3.820   3.451   4.309 -0.7806  0.0051  0.9077
24098SOL     OW72871   7.299   6.045   6.850 -0.0694  0.1829 -0.5173
24098SOL    HW172872   7.222   6.101   6.840 -0.3716  0.2383  1.6187
24098SOL    HW272873   7.264   5.960   6.876  0.4863 -0.4994 -1.9395
24099SOL     OW72874   3.724   3.967   1.172  0.2167 -0.2169  0.1545
24099SOL    HW172875   3.719   4.050   1.124  1.2700  0.0793  0.5309
24099SOL    HW272876   3.694   3.989   1.260 -0.2149 -0.4082  0.0570
24100SOL     OW72877   8.130   9.074   3.670 -0.3999  0.2714  0.3368
24100SOL    HW172878   8.089   9.152   3.632 -1.8559 -0.9666 -0.7312
24100SOL    HW272879   8.068   9.045   3.736 -0.3170 -0.5120  0.0722
24101SOL     OW72880   7.599   9.805   1.027 -0.0688  0.7580  0.4939
24101SOL    HW172881   7.631   9.845   1.107 -0.3666  0.2719  0.8589
24101SOL    HW272882   7.559   9.723   1.055 -0.4075  0.7066 -0.1220
24102SOL     OW72883   2.377   2.224   2.663  0.8109  0.1729 -0.0470
24102SOL    HW172884   2.400   2.132   2.677  2.1586  0.1304 -2.2009
24102SOL    HW272885   2.320   2.223   2.587 -0.7631  0.9836  1.0808
24103SOL     OW72886   1.495   4.015   8.266 -0.0117 -0.5619  0.5067
24103SOL    HW172887   1.492   4.006   8.361  3.9891  0.9519  0.9454
24103SOL    HW272888   1.539   4.099   8.251 -1.7079 -0.0891 -2.7587
24104SOL     OW72889   4.536   0.155   9.358 -0.0625 -0.0452 -0.1742
24104SOL    HW172890   4.505   0.085   9.416  1.0344  0.0918  0.6180
24104SOL    HW272891   4.465   0.218   9.355 -1.7101 -1.8249 -2.0857
24105SOL     OW72892   8.594   7.358   1.990  0.4347 -0.5174 -0.0705
24105SOL    HW172893   8.669   7.298   1.997  0.6948 -0.1360  0.5911
24105SOL    HW272894   8.621   7.421   1.924 -0.1199 -1.5069 -1.2660
24106SOL     OW72895   6.986   9.925   6.013 -0.0259  0.1965 -0.2600
24106SOL    HW172896   6.990  10.021   6.012  2.0114  0.1465 -1.2737
24106SOL    HW272897   7.065   9.897   6.058 -0.0045 -1.0100 -0.9807
24107SOL     OW72898   5.708   1.876   7.787  0.3414  0.0951 -0.3063
24107SOL    HW172899   5.707   1.883   7.692 -0.1275 -1.2873 -0.4243
24107SOL    HW272900   5.765   1.801   7.805 -0.1951 -0.1362  0.4584
24108SOL     OW72901   6.701   0.062   6.142 -0.1633  0.2239  0.4244
24108SOL    HW172902   6.697   0.080   6.236  0.4174  2.9447  0.0103
24108SOL    HW272903   6.794   0.062   6.120 -0.1299 -2.6178  0.1215
24109SOL     OW72904   3.687   7.225   6.026 -0.0069  0.1125  0.1903
24109SOL    HW172905   3.667   7.212   6.119  0.4437 -0.6191  0.1910
24109SOL    HW272906   3.738   7.306   6.024 -0.0564  0.1558  0.5750
24110SOL     OW72907   6.680   3.869   3.518  0.1361  0.2998  0.4114
24110SOL    HW172908   6.604   3.927   3.514 -0.8937 -0.9499  0.9981
24110SOL    HW272909   6.647   3.785   3.488  1.7579  0.1496 -1.0564
24111SOL     OW72910   3.072   9.058   7.914  0.0892  0.4214 -0.0642
24111SOL    HW172911   2.979   9.068   7.936 -0.1045 -1.4889  0.1283
24111SOL    HW272912   3.092   9.135   7.861 -1.6157  0.8522 -0.1594
24112SOL     OW72913   5.462   8.531   0.628  0.5828  0.2638 -0.3960
24112SOL    HW172914   5.489   8.560   0.715  1.3589 -1.4021 -0.0418
24112SOL    HW272915   5.542   8.534   0.576  0.4826 -0.3094 -0.5952
24113SOL     OW72916   2.041   6.306   1.851  0.2132 -0.2681 -0.1053
24113SOL    HW172917   1.955   6.285   1.885 -1.1483  3.2237 -0.9577
24113SOL    HW272918   2.086   6.348   1.924  0.1836  0.2747 -0.3937
24114SOL     OW72919   3.549   4.799   8.183 -0.0654  0.4524 -0.0445
24114SOL    HW172920   3.640   4.777   8.162 -0.4648 -1.1226 -0.2262
24114SOL    HW272921   3.520   4.729   8.242 -2.1487 -1.0294 -2.5931
24115SOL     OW72922   4.199   7.098   7.146 -0.3831 -0.2415  0.1611
24115SOL    HW172923   4.232   7.187   7.137 -0.9519 -0.1021 -0.7221
24115SOL    HW272924   4.158   7.096   7.232 -0.1043  0.2587  0.3090
24116SOL     OW72925   2.664   1.949   4.755  0.3379  0.4544  0.3331
24116SOL    HW172926   2.686   1.882   4.690  0.1002 -1.2390  1.9000
24116SOL    HW272927   2.747   1.970   4.798  0.3112  0.6781  0.2765
24117SOL     OW72928   5.145   7.452   5.180 -0.2446 -0.3577  0.5106
24117SOL    HW172929   5.072   7.395   5.205 -1.1026  1.1306  1.5857
24117SOL    HW272930   5.222   7.410   5.217 -0.6986 -1.3956  0.3049
24118SOL     OW72931   2.249   9.062   0.872 -0.6534  0.3692  0.7817
24118SOL    HW172932   2.317   8.995   0.878 -0.7618  0.3065  1.4360
24118SOL    HW272933   2.168   9.014   0.858 -0.5527  0.4529 -0.1422
24119SOL     OW72934   9.361   3.898   9.709  0.1901  0.5175  0.1991
24119SOL    HW172935   9.448   3.901   9.669  0.3096 -0.0015  0.4101
24119SOL    HW272936   9.367   3.955   9.786  0.6519 -0.3078  0.7911
24120SOL     OW72937   4.561   2.172   2.377 -0.1146  0.5166 -0.1387
24120SOL    HW172938   4.488   2.217   2.420  1.2987  1.1400  1.7565
24120SOL    HW272939   4.599   2.239   2.320 -0.0834  0.6689  0.0591
24121SOL     OW72940   4.137   8.988   2.600 -0.0822  0.1089  0.3367
24121SOL    HW172941   4.161   9.061   2.657 -1.3391  1.8513 -1.2202
24121SOL    HW272942   4.218   8.938   2.591  1.1694  1.9580  0.5842
24122SOL     OW72943   6.925   5.428   3.020  0.0793  0.0319 -0.5389
24122SOL    HW172944   6.880   5.492   2.965 -0.5340 -0.1201 -0.2230
24122SOL    HW272945   6.869   5.420   3.098  1.3898  0.9335  0.5357
24123SOL     OW72946   2.022   3.901   2.161 -0.4195 -0.2788 -0.4101
24123SOL    HW172947   2.093   3.841   2.186 -0.2275  0.4279  0.8193
24123SOL    HW272948   1.959   3.895   2.233 -0.9655  0.1198 -0.8423
24124SOL     OW72949   9.557   9.255   4.029  0.1398 -0.1393  0.0444
24124SOL    HW172950   9.526   9.206   3.953 -0.5283 -0.8356  0.7485
24124SOL    HW272951   9.507   9.336   4.027  0.4111  0.0157 -0.4794
24125SOL     OW72952   5.504   1.840   1.999  0.4581 -0.7620 -0.3647
24125SOL    HW172953   5.425   1.857   2.052  0.7787 -0.2595 -0.0375
24125SOL    HW272954   5.545   1.765   2.041  0.7623 -0.3038  0.1705
24126SOL     OW72955   4.372   3.802   4.790 -0.5707 -0.1199 -0.3875
24126SOL    HW172956   4.404   3.850   4.866  3.1906 -1.8458 -0.6772
24126SOL    HW272957   4.338   3.720   4.825  2.4049 -1.5165 -0.4682
24127SOL     OW72958   2.034   0.807   4.716  0.0012  0.4461 -0.0207
24127SOL    HW172959   2.029   0.718   4.752 -1.4137  1.2863  2.0012
24127SOL    HW272960   2.105   0.849   4.764 -0.0598  0.7555 -0.1999
24128SOL     OW72961   3.332   9.066   2.534 -0.7056  0.0849 -0.0633
24128SOL    HW172962   3.360   9.149   2.572 -2.3102  0.8812 -0.5060
24128SOL    HW272963   3.388   9.054   2.457  0.5769 -0.0572  0.8616
24129SOL     OW72964   5.699   8.210   4.378 -0.0135  0.5334 -0.2957
24129SOL    HW172965   5.786   8.224   4.414  0.1038  1.7562 -0.9739
24129SOL    HW272966   5.704   8.127   4.332  0.8981  0.7509 -0.5975
24130SOL     OW72967   8.807   5.794   4.965 -0.8309  0.4087  0.3372
24130SOL    HW172968   8.902   5.797   4.978 -0.6822  0.9595 -0.7973
24130SOL    HW272969   8.796   5.760   4.876 -1.7870 -1.8619  1.2414
24131SOL     OW72970   7.268   6.978   9.463 -0.2005  0.2435 -0.6842
24131SOL    HW172971   7.337   6.917   9.438  0.5542 -0.2287  2.1800
24131SOL    HW272972   7.187   6.931   9.444  0.3461 -0.9416 -0.2185
24132SOL     OW72973   4.263   8.610   3.360 -0.2060  0.6501 -0.0841
24132SOL    HW172974   4.231   8.563   3.283  1.7498 -0.1937 -0.4457
24132SOL    HW272975   4.299   8.692   3.326 -1.7856  1.5582  0.3100
24133SOL     OW72976   0.432   4.180   7.088  0.6580  0.4863 -0.4164
24133SOL    HW172977   0.429   4.120   7.163  2.6878  1.5034  0.5591
24133SOL    HW272978   0.387   4.259   7.118 -0.9498 -0.0420 -1.2857
24134SOL     OW72979   1.423   9.352   2.278 -0.4307  0.2782 -0.0148
24134SOL    HW172980   1.421   9.382   2.187  0.3106  0.4824  0.0268
24134SOL    HW272981   1.488   9.282   2.280 -0.4275  0.2844  0.3548
24135SOL     OW72982   0.901   4.048   9.162  0.0711  0.0452 -0.4933
24135SOL    HW172983   0.955   3.996   9.102 -0.4062 -1.6327  0.4861
24135SOL    HW272984   0.849   4.104   9.104  0.1921 -0.9633 -1.6223
24136SOL     OW72985   1.873   2.979   8.899  0.1755  0.4982 -0.0901
24136SOL    HW172986   1.783   2.947   8.900  0.4633 -0.4458  2.0562
24136SOL    HW272987   1.910   2.943   8.819 -1.3282  0.9188 -1.0188
24137SOL     OW72988   6.866   9.177   1.858 -0.1582 -0.1097 -0.2231
24137SOL    HW172989   6.873   9.269   1.831  0.4646 -0.1061 -0.0601
24137SOL    HW272990   6.872   9.180   1.953  1.2591 -0.4305 -0.2832
24138SOL     OW72991   7.153   9.404   9.688 -0.3174 -0.4948 -0.0550
24138SOL    HW172992   7.124   9.329   9.637  2.1783 -2.4154  1.1084
24138SOL    HW272993   7.213   9.450   9.630  2.7574 -2.8446  0.9583
24139SOL     OW72994   3.355   8.342   0.345  0.2945 -0.3059 -0.1211
24139SOL    HW172995   3.433   8.386   0.377  0.5890 -1.5255  0.9194
24139SOL    HW272996   3.283   8.383   0.393  0.2527  0.8764 -1.1426
24140SOL     OW72997   2.099   6.489   8.458  0.9355  0.1983 -0.3447
24140SOL    HW172998   2.073   6.424   8.393  1.2711  1.6061 -1.9806
24140SOL    HW272999   2.018   6.510   8.504  0.3450  0.2235 -1.3456
24141SOL     OW73000   2.945   3.981   6.845 -0.1893  0.0751 -0.1205
24141SOL    HW173001   2.989   3.946   6.923  0.2346 -0.9737 -0.7947
24141SOL    HW273002   3.016   4.016   6.791 -0.5962  1.8833  0.4615
24142SOL     OW73003   6.357   3.522   2.608  0.1597 -0.2850 -0.0581
24142SOL    HW173004   6.404   3.531   2.690 -0.3465 -0.7727  0.2859
24142SOL    HW273005   6.401   3.584   2.549  1.8013 -1.3724 -0.0200
24143SOL     OW73006   0.000   3.928   7.708 -0.6062  0.0687 -0.5409
24143SOL    HW173007  -0.015   4.020   7.730 -1.6486 -0.2211  0.0422
24143SOL    HW273008   0.090   3.911   7.735 -0.6933  0.6926  0.1633
24144SOL     OW73009   8.201   6.830   2.554  0.0157  0.3304  0.2120
24144SOL    HW173010   8.237   6.752   2.511  2.6326  0.9476  1.1208
24144SOL    HW273011   8.179   6.889   2.482 -3.1004 -1.5357 -0.5783
24145SOL     OW73012   4.230   1.008   5.793  0.0420  0.5084  0.1742
24145SOL    HW173013   4.162   1.072   5.817 -0.1964  0.4875 -0.4332
24145SOL    HW273014   4.239   0.953   5.871 -2.0096 -0.6735 -0.3481
24146SOL     OW73015   9.876   8.511   8.685  0.2357  0.6905 -0.4503
24146SOL    HW173016   9.850   8.599   8.658 -0.9938  0.5265  0.1651
24146SOL    HW273017   9.915   8.523   8.771 -0.0363  0.6247 -0.3163
24147SOL     OW73018   5.235   4.011   0.393  0.0501  0.2653 -0.3021
24147SOL    HW173019   5.291   3.961   0.453  0.7890  0.9528 -0.4135
24147SOL    HW273020   5.289   4.085   0.365 -0.4973  0.2852 -1.3496
24148SOL     OW73021   6.538   5.581   7.714  1.2574 -0.1417  0.4285
24148SOL    HW173022   6.456   5.580   7.764  0.1004  1.3653 -1.3015
24148SOL    HW273023   6.589   5.651   7.754  0.6537  0.5433  0.0416
24149SOL     OW73024   6.991   4.604   7.053  0.4846 -0.6058 -0.0201
24149SOL    HW173025   7.070   4.650   7.025  0.5713 -0.3946  0.5590
24149SOL    HW273026   7.018   4.557   7.133 -0.4029  0.8054  1.1506
24150SOL     OW73027   0.622   6.464  -0.012  0.2922 -0.8327  0.1630
24150SOL    HW173028   0.705   6.507   0.008 -0.4993  0.0094  1.7725
24150SOL    HW273029   0.635   6.373   0.015  0.4158 -0.5080  1.2161
24151SOL     OW73030   8.121   7.576   7.281  0.2169 -0.0823  0.0413
24151SOL    HW173031   8.139   7.499   7.334  1.4036 -1.2526 -1.9707
24151SOL    HW273032   8.027   7.592   7.292 -0.0382 -1.7949  0.5025
24152SOL     OW73033   7.465   8.228   8.449 -0.3314  0.0567  0.4303
24152SOL    HW173034   7.523   8.157   8.478 -1.3314 -0.7913  0.3943
24152SOL    HW273035   7.388   8.184   8.416 -0.6835  1.1539 -0.2538
24153SOL     OW73036   6.406   5.000   0.544 -0.4449 -0.3535  0.5570
24153SOL    HW173037   6.473   5.068   0.553 -1.0579  0.0379  2.6377
24153SOL    HW273038   6.384   4.975   0.634 -2.1766 -1.3938 -0.1011
24154SOL     OW73039   0.875   1.051   0.789 -0.3348  0.5557  0.3334
24154SOL    HW173040   0.831   0.974   0.755  1.3300  0.1984 -1.1803
24154SOL    HW273041   0.954   1.017   0.831  0.3228  1.3788 -0.1913
24155SOL     OW73042   4.821   7.956   1.232  0.5077 -0.1918 -0.4751
24155SOL    HW173043   4.893   7.905   1.269  0.7564  0.0174 -0.6778
24155SOL    HW273044   4.748   7.940   1.293  0.5784 -0.7974 -0.5412
24156SOL     OW73045   6.476   8.076   0.272  0.1684  0.3330 -0.4916
24156SOL    HW173046   6.388   8.051   0.300 -0.2939  2.6137  0.2580
24156SOL    HW273047   6.534   8.017   0.321 -0.8223  1.1998  1.8948
24157SOL     OW73048   1.175   7.476   2.387  0.1921  0.6256 -0.2284
24157SOL    HW173049   1.195   7.484   2.293  1.6932  0.2775  0.0403
24157SOL    HW273050   1.130   7.558   2.408  0.8037  1.1825 -1.0209
24158SOL     OW73051   1.081   5.597   0.552 -0.2968  0.1257 -0.0964
24158SOL    HW173052   0.999   5.597   0.502 -0.6437 -3.5277  0.2574
24158SOL    HW273053   1.078   5.517   0.604  3.1186  0.3340  0.6565
24159SOL     OW73054   1.149   9.446   3.211  0.3412 -0.0778 -0.7231
24159SOL    HW173055   1.094   9.516   3.245 -0.8019 -1.7221  0.9780
24159SOL    HW273056   1.121   9.435   3.120  2.0115  3.0080 -1.7389
24160SOL     OW73057   6.257   5.583   2.144 -0.0601 -0.2358  0.6541
24160SOL    HW173058   6.280   5.566   2.235 -0.4467  0.3069  0.8562
24160SOL    HW273059   6.162   5.576   2.141 -0.0736  0.0198  0.3561
24161SOL     OW73060   1.932   0.323   5.884 -0.0773 -0.3496 -0.1899
24161SOL    HW173061   1.960   0.375   5.959  2.6064  0.1370 -1.4046
24161SOL    HW273062   1.932   0.233   5.916  0.1273 -0.0663  0.6389
24162SOL     OW73063   7.041   5.109   4.062 -0.2675  0.2234  0.2426
24162SOL    HW173064   7.005   5.023   4.039  0.6244 -0.4454  1.2469
24162SOL    HW273065   7.134   5.101   4.044 -0.4447  1.6834 -1.6080
24163SOL     OW73066   5.471   6.094   8.990  0.5956 -0.4085 -0.0137
24163SOL    HW173067   5.412   6.058   8.923 -0.2431  1.3356 -0.2822
24163SOL    HW273068   5.524   6.158   8.943  1.5714 -0.7774  0.5642
24164SOL     OW73069   2.634   2.694   5.584  0.0067 -0.5721 -0.2165
24164SOL    HW173070   2.560   2.708   5.643  1.3194  0.3448  1.3130
24164SOL    HW273071   2.709   2.681   5.643  1.2265 -0.5215 -1.6988
24165SOL     OW73072   8.199   1.798   9.154 -0.1352  0.2381  0.8007
24165SOL    HW173073   8.277   1.768   9.200 -0.8329 -2.1597  0.5238
24165SOL    HW273074   8.145   1.837   9.223  0.5387  0.3039  1.3037
24166SOL     OW73075   6.794   0.426   5.315  0.1488 -0.4078  1.4054
24166SOL    HW173076   6.760   0.428   5.226  0.6980  0.5249  1.2008
24166SOL    HW273077   6.818   0.334   5.330 -0.1582 -0.6104  0.6786
24167SOL     OW73078   4.966   1.188   5.505 -0.1398 -0.6464  0.3475
24167SOL    HW173079   5.021   1.136   5.447 -0.2679  0.6746 -1.0264
24167SOL    HW273080   4.891   1.213   5.451 -1.4506 -1.3004  1.7915
24168SOL     OW73081   0.741   4.972   8.886  0.0248 -0.4807 -0.4023
24168SOL    HW173082   0.704   4.976   8.798 -0.4499  2.2783 -0.1820
24168SOL    HW273083   0.665   4.981   8.944  0.6838  3.3322  0.0983
24169SOL     OW73084   1.435   5.488   0.645  0.0391 -0.1328 -1.1260
24169SOL    HW173085   1.508   5.493   0.583  1.9865 -0.7047  0.9519
24169SOL    HW273086   1.404   5.578   0.653  2.8582  0.8632  0.3951
24170SOL     OW73087   8.610   5.211   2.352 -0.6422  0.2542 -0.4650
24170SOL    HW173088   8.689   5.169   2.385 -0.6404  0.4848 -0.1678
24170SOL    HW273089   8.603   5.291   2.404  0.1648  1.3662 -2.0015
24171SOL     OW73090   1.167   9.062   2.055 -0.4011  0.3275 -0.1885
24171SOL    HW173091   1.138   9.151   2.034  0.3395  0.5001 -0.5363
24171SOL    HW273092   1.259   9.060   2.027 -0.2280 -0.3507  0.4058
24172SOL     OW73093   5.281   7.489   3.598 -0.1006  0.0673 -0.2792
24172SOL    HW173094   5.278   7.423   3.528 -2.0626 -0.1658 -0.0504
24172SOL    HW273095   5.308   7.569   3.555 -1.2472 -0.0828 -1.3441
24173SOL     OW73096   1.660   9.516   6.094  0.0277 -0.3270  0.2521
24173SOL    HW173097   1.615   9.588   6.139 -0.0718 -0.3446  0.1801
24173SOL    HW273098   1.702   9.558   6.019  0.6587 -0.1993  0.6679
24174SOL     OW73099   2.637   7.171   0.590 -0.0472 -0.0197  0.1655
24174SOL    HW173100   2.581   7.247   0.606 -3.7037 -2.5588  0.6918
24174SOL    HW273101   2.649   7.132   0.676  0.8734 -0.6710 -0.2441
24175SOL     OW73102   4.655   1.273   1.755  0.5366 -0.4754 -0.1703
24175SOL    HW173103   4.615   1.328   1.822 -0.4551 -0.3840 -0.8118
24175SOL    HW273104   4.737   1.317   1.733 -0.5516  1.1694 -1.1696
24176SOL     OW73105   6.464   2.823   8.094 -0.1905 -0.2327 -0.5124
24176SOL    HW173106   6.458   2.804   8.001  0.9668  0.6297 -0.7872
24176SOL    HW273107   6.528   2.894   8.100 -0.9038  0.3421  0.8599
24177SOL     OW73108   9.746   0.663   8.925 -0.0463  0.5681  0.2719
24177SOL    HW173109   9.819   0.619   8.880 -0.6849 -0.9763  0.6620
24177SOL    HW273110   9.707   0.720   8.859  1.4180  1.3212  0.0154
24178SOL     OW73111   2.914   8.820   8.700  0.5014 -0.2988 -0.2313
24178SOL    HW173112   2.876   8.783   8.620  1.1610 -2.0094  0.1854
24178SOL    HW273113   3.008   8.804   8.692  0.5418 -0.8649  1.0401
24179SOL     OW73114  -0.016   5.169   6.756  0.0597 -0.1011 -0.2707
24179SOL    HW173115   0.025   5.255   6.755  0.4490 -0.2881 -0.2917
24179SOL    HW273116  -0.005   5.139   6.847  0.3478 -0.3331 -0.3822
24180SOL     OW73117   7.771   3.022   0.467  0.1978  0.2671  0.3314
24180SOL    HW173118   7.765   3.099   0.523 -3.8587  0.0378  0.4432
24180SOL    HW273119   7.710   3.038   0.395  0.6225 -2.0868 -0.6855
24181SOL     OW73120   1.012   9.049   2.296  0.3485 -0.1048  0.4840
24181SOL    HW173121   1.054   9.064   2.212  1.7807 -0.6555  1.0670
24181SOL    HW273122   1.085   9.037   2.358 -0.6542  0.7238  1.8904
24182SOL     OW73123   8.511   8.627   1.803 -0.1591 -0.4381  0.5906
24182SOL    HW173124   8.537   8.705   1.755 -0.7595 -0.8644 -0.4619
24182SOL    HW273125   8.417   8.619   1.788 -0.4672 -0.3129  2.2668
24183SOL     OW73126   6.514   9.468   8.046 -0.4306 -0.1203 -0.4887
24183SOL    HW173127   6.597   9.465   7.999 -0.0900 -0.5374  0.1289
24183SOL    HW273128   6.447   9.469   7.977  0.0660 -0.4238 -0.9776
24184SOL     OW73129   1.661   3.592   5.530 -0.7579 -0.4000  0.5140
24184SOL    HW173130   1.602   3.667   5.527 -0.5516 -0.2567 -0.1135
24184SOL    HW273131   1.622   3.533   5.595 -0.2062  0.8464  2.0503
24185SOL     OW73132   3.551   4.683   0.217 -0.4476 -0.0658 -0.1544
24185SOL    HW173133   3.528   4.599   0.178  0.2972 -0.2629 -0.1766
24185SOL    HW273134   3.644   4.695   0.197 -0.6148  0.8932 -0.3858
24186SOL     OW73135   3.209   8.887   5.585 -0.8369  0.0327 -0.1416
24186SOL    HW173136   3.174   8.840   5.509  0.1966  2.2595 -2.1607
24186SOL    HW273137   3.268   8.825   5.627 -1.7267 -1.3989 -0.9420
24187SOL     OW73138   7.194   7.730   0.906 -0.4404  0.1978 -0.3278
24187SOL    HW173139   7.286   7.706   0.919  0.8244  4.0930 -0.7332
24187SOL    HW273140   7.158   7.736   0.995 -0.0394 -0.4103 -0.1171
24188SOL     OW73141   7.529   9.685   7.099  0.2823  0.0213 -0.3128
24188SOL    HW173142   7.464   9.643   7.042 -0.7305  0.2846  0.6059
24188SOL    HW273143   7.613   9.668   7.057 -0.4350  0.2838 -1.9260
24189SOL     OW73144   7.970   4.760   2.901  0.1805 -0.0127 -0.2828
24189SOL    HW173145   7.927   4.675   2.892  1.5249 -0.4925 -3.5058
24189SOL    HW273146   7.899   4.823   2.887 -0.4161 -0.6591 -0.2488
24190SOL     OW73147   3.482   7.715   7.859  0.1017 -0.5924  0.0345
24190SOL    HW173148   3.482   7.776   7.933  1.0950 -0.4214 -0.0976
24190SOL    HW273149   3.546   7.648   7.883  0.4181 -0.5436 -0.6610
24191SOL     OW73150   9.229   4.692   3.505 -0.0323 -0.2701 -0.4225
24191SOL    HW173151   9.230   4.628   3.575  1.6633  0.0844 -0.1029
24191SOL    HW273152   9.255   4.643   3.427  0.2560 -0.1969 -0.3740
24192SOL     OW73153   5.428   7.272   2.188  0.1401 -0.6943 -0.2078
24192SOL    HW173154   5.495   7.290   2.122 -1.0944  0.1592 -1.2853
24192SOL    HW273155   5.395   7.185   2.167  0.0700 -0.6102 -0.4497
24193SOL     OW73156   0.092   3.064   1.124  0.4315  0.0358 -0.3169
24193SOL    HW173157   0.088   3.159   1.118  2.4901  0.2164  0.4850
24193SOL    HW273158   0.084   3.045   1.217 -1.7747 -0.7632 -0.5931
24194SOL     OW73159   0.233   5.461   4.619 -0.2611  0.0947  0.6206
24194SOL    HW173160   0.313   5.416   4.644  0.8975  0.4819 -2.0956
24194SOL    HW273161   0.169   5.391   4.606 -0.6850 -0.1764  3.4854
24195SOL     OW73162   4.039   2.122   9.679 -0.0478  0.2515 -0.6515
24195SOL    HW173163   4.081   2.105   9.763 -2.3951  1.0893  0.8180
24195SOL    HW273164   4.014   2.036   9.646  1.3238 -0.1190 -0.7688
24196SOL     OW73165   5.621   0.881   1.710 -0.5108 -0.4942 -0.3278
24196SOL    HW173166   5.529   0.855   1.696 -0.7842  1.0628 -1.6667
24196SOL    HW273167   5.670   0.828   1.647 -0.7947  0.4014 -1.3375
24197SOL     OW73168   1.778   5.570   4.218  0.1981 -0.1763 -0.3194
24197SOL    HW173169   1.860   5.550   4.172  1.2909 -0.5052  1.6377
24197SOL    HW273170   1.799   5.648   4.270  0.0935 -1.6052  2.0313
24198SOL     OW73171   2.029   4.187   5.461  0.0980 -0.4278  0.9140
24198SOL    HW173172   2.110   4.153   5.422  0.2146 -0.0338  0.8123
24198SOL    HW273173   2.036   4.166   5.554  0.0332 -0.9510  0.8050
24199SOL     OW73174   1.298   7.674   3.179 -0.0707  0.4932  0.5006
24199SOL    HW173175   1.256   7.760   3.175 -1.6319 -0.1355  2.1735
24199SOL    HW273176   1.303   7.646   3.087 -2.1687  1.1553  0.1240
24200SOL     OW73177   0.059   7.320   7.748 -0.0456  0.5449  0.0040
24200SOL    HW173178  -0.011   7.386   7.741 -0.1396  0.4781  0.2924
24200SOL    HW273179   0.022   7.242   7.707 -0.0630  0.5705 -0.0295
24201SOL     OW73180   6.714   9.074   6.237  0.2204 -0.2895  0.3046
24201SOL    HW173181   6.698   9.005   6.173 -1.3996 -1.3373  1.7461
24201SOL    HW273182   6.806   9.098   6.225  0.5739 -2.0870 -0.8151
24202SOL     OW73183   2.534   1.900   6.349  0.5427  0.5063 -0.7230
24202SOL    HW173184   2.552   1.876   6.258 -0.3576 -1.9132 -0.3190
24202SOL    HW273185   2.478   1.977   6.343  0.3090  0.2406 -2.2275
24203SOL     OW73186   6.964   4.857   8.153 -0.1232 -0.1572  0.6059
24203SOL    HW173187   6.935   4.930   8.207 -1.0019 -1.2320  1.6540
24203SOL    HW273188   6.980   4.895   8.067 -2.6631  0.9049  0.5234
24204SOL     OW73189   1.458   9.351   6.660  0.0393  0.3727 -0.0173
24204SOL    HW173190   1.545   9.364   6.699  0.2347  0.3894 -0.4476
24204SOL    HW273191   1.397   9.373   6.730  0.3818  0.1067  0.3748
24205SOL     OW73192   9.484   3.921   1.210  0.2920 -0.3027  0.6699
24205SOL    HW173193   9.493   4.015   1.229 -0.4938 -0.0822  0.0227
24205SOL    HW273194   9.436   3.885   1.284 -2.3254  0.4548 -0.5201
24206SOL     OW73195   7.019   0.708   5.207  0.2861 -0.8060 -0.2923
24206SOL    HW173196   6.974   0.722   5.290 -1.5355  0.8633 -1.4857
24206SOL    HW273197   7.081   0.781   5.200  2.6367 -2.5689  0.8962
24207SOL     OW73198   8.666   4.824   9.478  0.0879 -0.0498  0.0824
24207SOL    HW173199   8.655   4.892   9.411  0.3661 -0.5776 -0.5004
24207SOL    HW273200   8.744   4.851   9.526 -0.6496  0.8488  0.8352
24208SOL     OW73201   5.297   5.549   7.614 -0.1930 -0.0589 -0.1715
24208SOL    HW173202   5.228   5.564   7.550 -0.9157  2.7997  1.1327
24208SOL    HW273203   5.260   5.581   7.697  1.7215 -1.0168  1.1326
24209SOL     OW73204   9.816   0.397   0.888 -0.4765 -0.3454 -0.1387
24209SOL    HW173205   9.880   0.453   0.932 -0.2401  0.6484 -1.6464
24209SOL    HW273206   9.850   0.308   0.900 -0.6683 -0.1828  1.9891
24210SOL     OW73207   0.216   7.579   8.127  0.7199 -0.3547  0.5747
24210SOL    HW173208   0.310   7.594   8.138  0.4370  0.8636  1.4817
24210SOL    HW273209   0.180   7.665   8.106 -0.1650 -0.8674 -0.0864
24211SOL     OW73210   0.325   7.455   3.541  0.9278  0.1351  0.0327
24211SOL    HW173211   0.374   7.414   3.469  1.4238  0.8100 -0.0310
24211SOL    HW273212   0.310   7.384   3.603  1.8977 -0.1236 -0.0068
24212SOL     OW73213   9.497   5.191   6.628  0.3084  0.2457  0.2288
24212SOL    HW173214   9.588   5.165   6.613  0.3698 -0.5576  1.7710
24212SOL    HW273215   9.495   5.284   6.605  1.7692  0.5140  1.0514
24213SOL     OW73216   1.231   8.759   6.526 -0.3829  0.0737  0.5751
24213SOL    HW173217   1.231   8.752   6.430 -0.6775 -1.2804  0.6513
24213SOL    HW273218   1.176   8.834   6.544  0.7721  1.2000 -0.3481
24214SOL     OW73219   4.669   3.393   8.715  0.2915 -0.3653  0.0501
24214SOL    HW173220   4.601   3.362   8.775  0.6675  0.9490  1.2196
24214SOL    HW273221   4.751   3.383   8.764  0.3940  2.8113  0.7527
24215SOL     OW73222   4.526   6.260   7.964 -0.3029  0.1846 -0.4984
24215SOL    HW173223   4.499   6.188   8.021  0.0404 -0.4669 -1.1375
24215SOL    HW273224   4.445   6.307   7.946 -0.5439 -0.0800 -0.1286
24216SOL     OW73225   5.477   6.642   6.886  0.1954 -0.2723 -0.3814
24216SOL    HW173226   5.424   6.690   6.822  0.2201  2.2731  1.3809
24216SOL    HW273227   5.566   6.643   6.849 -0.1144 -0.4978 -1.1631
24217SOL     OW73228   3.819   1.938   3.376 -0.1914 -0.2458 -0.1194
24217SOL    HW173229   3.804   2.030   3.399 -0.2879 -0.0369 -0.9765
24217SOL    HW273230   3.902   1.940   3.328 -0.1427 -0.6224 -0.0496
24218SOL     OW73231   2.772   3.751   0.119  0.0866 -0.2702 -0.0307
24218SOL    HW173232   2.745   3.740   0.028  0.2771 -1.5064  0.0390
24218SOL    HW273233   2.858   3.792   0.114 -1.3290  2.9291 -0.2761
24219SOL     OW73234   7.413   5.757   3.707  0.2051  0.2768 -0.2700
24219SOL    HW173235   7.375   5.740   3.621 -0.4413 -0.7300  0.1953
24219SOL    HW273236   7.481   5.690   3.716  1.5152  1.4925 -0.7124
24220SOL     OW73237   1.434   4.591   4.125  0.5161  0.1691 -0.3970
24220SOL    HW173238   1.367   4.526   4.146 -0.1023  0.4351 -1.4627
24220SOL    HW273239   1.508   4.568   4.181 -0.9903  0.8328  1.9805
24221SOL     OW73240   7.909   8.575   3.463 -0.0187  0.3856  0.0054
24221SOL    HW173241   7.853   8.501   3.487 -1.2225  1.0099 -0.7338
24221SOL    HW273242   7.995   8.537   3.450 -1.1659 -1.5110 -3.2415
24222SOL     OW73243   7.849   3.574   9.037 -0.1243  0.1606  0.7277
24222SOL    HW173244   7.827   3.522   8.959  0.1141  1.9772 -0.6086
24222SOL    HW273245   7.780   3.553   9.099 -1.1165 -0.2972 -0.4748
24223SOL     OW73246   2.860   3.605   2.434 -0.6918  0.4139  0.0779
24223SOL    HW173247   2.913   3.541   2.389 -1.1320  0.2258 -0.1801
24223SOL    HW273248   2.782   3.616   2.379 -0.1002  2.0602 -0.5126
24224SOL     OW73249   4.851   2.420   8.770  0.6155  0.3742 -0.3188
24224SOL    HW173250   4.761   2.402   8.743  0.7142  0.0723 -0.4497
24224SOL    HW273251   4.904   2.358   8.721  0.9056  0.6064 -0.3044
24225SOL     OW73252   9.005   7.478   3.587  0.1583  0.3088  0.0539
24225SOL    HW173253   9.003   7.514   3.498  1.4496  0.8033  0.1912
24225SOL    HW273254   9.088   7.509   3.623 -0.2597 -0.0366  1.3779
24226SOL     OW73255   6.826   7.086   0.276  0.4425 -0.2315  0.1203
24226SOL    HW173256   6.918   7.061   0.272  0.6053  0.4555 -0.6756
24226SOL    HW273257   6.821   7.149   0.349  0.1188 -2.1139  1.8100
24227SOL     OW73258   3.431   0.005   2.192 -0.2824  0.7861 -0.1700
24227SOL    HW173259   3.453   0.046   2.108 -1.9381  0.5081 -0.7780
24227SOL    HW273260   3.337   0.019   2.201 -0.4031 -0.5438  0.9102
24228SOL     OW73261   8.929   5.720   8.303  1.0106 -0.3969 -0.2677
24228SOL    HW173262   8.930   5.809   8.340  1.2287 -1.0002  1.2206
24228SOL    HW273263   9.019   5.705   8.274  0.7022  0.3137 -1.6933
24229SOL     OW73264   6.586   7.870   5.448 -0.1150 -0.2121 -0.0016
24229SOL    HW173265   6.668   7.868   5.399  0.3939 -1.0347  0.8556
24229SOL    HW273266   6.558   7.778   5.452 -1.2122  0.0717 -0.4756
24230SOL     OW73267   5.845   7.982   2.014  0.0717 -0.5168  0.0519
24230SOL    HW173268   5.793   8.038   1.958 -0.9390  0.0109  1.4524
24230SOL    HW273269   5.935   8.013   2.004 -0.2998  0.5053 -0.1557
24231SOL     OW73270   3.590   4.534   4.863  0.0463  0.0736  0.1079
24231SOL    HW173271   3.545   4.612   4.895  0.0900  0.7477 -1.3634
24231SOL    HW273272   3.605   4.481   4.941 -0.3558  1.3411  1.0871
24232SOL     OW73273   8.637   3.389   7.789 -0.1006 -0.5659 -0.8103
24232SOL    HW173274   8.681   3.387   7.704  0.7967  0.2053 -0.3805
24232SOL    HW273275   8.613   3.480   7.802  0.0876 -0.6121 -0.0792
24233SOL     OW73276   1.973   0.844   9.113 -0.1800  0.2120 -0.0777
24233SOL    HW173277   2.042   0.886   9.061 -1.4860  0.1155 -2.0088
24233SOL    HW273278   1.986   0.876   9.202  2.2543  0.2805 -0.4135
24234SOL     OW73279   3.588   2.602   2.227 -0.3985  0.0475  0.3452
24234SOL    HW173280   3.541   2.658   2.289  0.6962 -0.2646  1.4763
24234SOL    HW273281   3.541   2.614   2.144  0.0193  2.9070  0.4503
24235SOL     OW73282   5.070   6.046   2.244  0.3934 -0.0415  0.0790
24235SOL    HW173283   5.089   5.993   2.166  0.7791 -0.1686  0.2581
24235SOL    HW273284   5.134   6.117   2.242  1.7994 -1.1913  1.3768
24236SOL     OW73285   0.512   3.969   0.245 -0.1575 -0.4667  0.3047
24236SOL    HW173286   0.606   3.984   0.249 -0.1504 -0.0582 -0.9635
24236SOL    HW273287   0.496   3.897   0.306  0.8454  0.0183  1.1662
24237SOL     OW73288   9.607   8.704   3.556 -0.2810 -0.9667 -0.3945
24237SOL    HW173289   9.592   8.780   3.501  0.3769 -0.7878 -0.3331
24237SOL    HW273290   9.662   8.646   3.503 -2.3040 -2.2529 -1.1684
24238SOL     OW73291   2.072   2.478   7.541 -0.1591  0.0818  0.3208
24238SOL    HW173292   2.050   2.386   7.550  0.8162  0.0143  2.7590
24238SOL    HW273293   2.115   2.485   7.456 -2.2475 -1.2312 -0.9438
24239SOL     OW73294   8.237  -0.017   2.918  0.0971 -0.1122  0.3770
24239SOL    HW173295   8.179   0.057   2.900 -0.2427 -0.6733 -0.9256
24239SOL    HW273296   8.261  -0.006   3.010 -1.2674  0.6859  0.6688
24240SOL     OW73297   9.230   6.836   4.377 -0.1938  0.5224 -0.5877
24240SOL    HW173298   9.280   6.755   4.376  1.2059  1.2324  2.1313
24240SOL    HW273299   9.183   6.833   4.461 -1.2702  1.8657 -1.1163
24241SOL     OW73300   4.508   7.026   8.088 -0.2627 -0.0527  0.3798
24241SOL    HW173301   4.433   6.972   8.064 -0.2969 -0.0220  0.4190
24241SOL    HW273302   4.543   7.057   8.004 -0.2991 -0.0595  0.3620
24242SOL     OW73303   5.038   9.581   2.006 -0.2735 -0.7132 -0.0662
24242SOL    HW173304   5.027   9.655   1.946  5.0701  1.9417  1.5869
24242SOL    HW273305   4.996   9.610   2.087 -0.7367 -0.8439 -0.2555
24243SOL     OW73306   9.346   1.411   8.077  0.0486  0.1095 -0.2631
24243SOL    HW173307   9.261   1.374   8.099  0.0466 -0.7414 -1.5642
24243SOL    HW273308   9.395   1.410   8.159 -0.0362 -2.6454 -0.1446
24244SOL     OW73309   1.568   0.513   1.854  0.1145 -0.4218  0.4931
24244SOL    HW173310   1.531   0.573   1.919  0.8420 -2.4392  2.9452
24244SOL    HW273311   1.646   0.557   1.822 -0.3392  0.6769  0.8536
24245SOL     OW73312   9.194   9.948   0.289 -0.2617  0.2061 -0.4166
24245SOL    HW173313   9.105   9.923   0.267 -0.8961  2.4196 -0.5669
24245SOL    HW273314   9.206  10.034   0.249  1.9011  0.0378 -0.2656
24246SOL     OW73315   7.329   6.944   5.814  0.7522  0.0960 -0.0433
24246SOL    HW173316   7.333   6.926   5.720 -0.4863 -0.3177 -0.0399
24246SOL    HW273317   7.411   6.988   5.834  1.1662 -0.0886 -1.2612
24247SOL     OW73318   0.119   8.808   5.705 -0.5439  0.5899  0.3324
24247SOL    HW173319   0.137   8.871   5.634 -1.2651  0.6378  0.1831
24247SOL    HW273320   0.193   8.747   5.701 -0.7083  0.4266 -0.6532
24248SOL     OW73321   7.516   1.430   6.407 -0.4881  0.9047 -0.1144
24248SOL    HW173322   7.596   1.380   6.422 -0.7100  1.3777  3.6304
24248SOL    HW273323   7.516   1.449   6.314  1.8860 -2.1653 -0.8872
24249SOL     OW73324   5.002   7.556   6.079  0.0744  0.2900  0.2140
24249SOL    HW173325   4.963   7.480   6.035  1.1124  0.0196 -0.2647
24249SOL    HW273326   5.085   7.524   6.114 -0.3031  0.7464  1.6121
24250SOL     OW73327   9.508   6.354   3.575  0.5392 -0.2320 -0.2952
24250SOL    HW173328   9.522   6.386   3.664  1.0439 -0.5865 -0.2463
24250SOL    HW273329   9.464   6.270   3.586  0.8133 -0.3852 -0.3774
24251SOL     OW73330   5.790   3.971   2.209  0.5062  0.6117  0.3107
24251SOL    HW173331   5.773   3.939   2.121 -1.1816 -0.2153  0.8841
24251SOL    HW273332   5.704   3.997   2.242  0.7776 -0.7959  2.3167
24252SOL     OW73333   8.813   9.261   5.286  0.0845  0.2335  0.2565
24252SOL    HW173334   8.865   9.276   5.366 -0.2340  0.0300  0.5050
24252SOL    HW273335   8.722   9.260   5.317  0.0170 -1.0351  0.0857
24253SOL     OW73336   1.914   4.972   6.918  0.3162 -0.0710  0.4319
24253SOL    HW173337   1.930   4.960   6.824  0.7962 -0.6191  0.5769
24253SOL    HW273338   1.979   4.916   6.960 -1.1318 -1.3247  1.0725
24254SOL     OW73339   6.695   9.167   4.875  0.1563 -0.0807  0.2870
24254SOL    HW173340   6.770   9.150   4.818  0.2787  0.6004  0.2281
24254SOL    HW273341   6.634   9.216   4.820 -0.4469 -0.8543  0.2634
24255SOL     OW73342   0.701   2.587   5.762  0.2982 -0.3465 -0.2637
24255SOL    HW173343   0.640   2.519   5.732  0.7739 -0.9066  0.0222
24255SOL    HW273344   0.676   2.602   5.853  0.3839 -0.3501 -0.2402
24256SOL     OW73345   1.789   8.375   2.941  0.0799 -0.3056  0.1321
24256SOL    HW173346   1.814   8.295   2.894 -0.5312 -0.7977  0.6164
24256SOL    HW273347   1.773   8.346   3.031  0.5156  0.4892  0.4774
24257SOL     OW73348   9.598   2.874   7.674 -0.2380  0.1353 -0.0100
24257SOL    HW173349   9.616   2.955   7.626 -1.0838  1.7987  2.2895
24257SOL    HW273350   9.684   2.840   7.696  0.3964  3.0953  3.0516
24258SOL     OW73351   9.473   8.427   9.644  0.4961  0.1618  0.2217
24258SOL    HW173352   9.546   8.445   9.585 -0.7199 -2.0956 -2.1277
24258SOL    HW273353   9.398   8.469   9.604 -0.0552 -0.0241  1.0329
24259SOL     OW73354   9.847   2.846   7.322 -0.6795 -0.6403 -0.7978
24259SOL    HW173355   9.894   2.827   7.403  0.7591  1.7420 -0.9717
24259SOL    HW273356   9.758   2.866   7.349 -0.2571 -0.0359  0.2065
24260SOL     OW73357   2.447   5.988   4.264 -0.3289  0.8224 -0.6163
24260SOL    HW173358   2.410   5.934   4.334  0.5110  0.8303 -0.1516
24260SOL    HW273359   2.536   5.954   4.251 -0.1189  1.4788 -0.9617
24261SOL     OW73360   3.249   9.408   9.283 -0.6050  0.1231  0.1400
24261SOL    HW173361   3.177   9.468   9.299 -1.5333 -0.8536 -0.2988
24261SOL    HW273362   3.257   9.357   9.364  1.0112  1.6324  0.9985
24262SOL     OW73363   6.010   0.706   7.218 -0.4678 -0.1665 -0.3488
24262SOL    HW173364   6.072   0.759   7.167 -2.7383  1.8523 -1.2142
24262SOL    HW273365   6.041   0.616   7.209  2.1495  0.7103 -0.9232
24263SOL     OW73366   3.146   9.155   5.556 -0.0261  0.5130 -0.1738
24263SOL    HW173367   3.169   9.062   5.556  0.2023  0.5615 -0.7865
24263SOL    HW273368   3.210   9.196   5.614 -0.4262  0.2252  0.4861
24264SOL     OW73369   3.840   9.682   2.813 -0.0308 -0.3002 -0.0662
24264SOL    HW173370   3.802   9.741   2.747  1.5989  0.5253 -0.3270
24264SOL    HW273371   3.841   9.735   2.893 -0.3953 -0.6994  0.2088
24265SOL     OW73372   5.071   3.963   5.930 -0.0931 -0.0819 -0.2558
24265SOL    HW173373   4.992   3.911   5.917 -0.6543  1.0946 -1.8745
24265SOL    HW273374   5.075   3.979   6.024 -1.5662 -0.4921 -0.1100
24266SOL     OW73375   5.626   8.835   2.306  0.7226  0.2206  0.0285
24266SOL    HW173376   5.585   8.917   2.331  1.0956  0.5473 -0.4141
24266SOL    HW273377   5.553   8.777   2.286  0.4460  0.2810  0.8226
24267SOL     OW73378   8.957   3.472   3.141 -0.7387 -0.5632  0.0260
24267SOL    HW173379   8.993   3.431   3.063 -1.3157 -2.5134  0.7182
24267SOL    HW273380   8.870   3.502   3.114  0.6820  2.8592 -1.2466
24268SOL     OW73381   8.382   2.318   5.641 -0.2045  0.2951  0.4384
24268SOL    HW173382   8.466   2.272   5.631  0.3599  1.2559  0.6244
24268SOL    HW273383   8.337   2.303   5.557 -0.4485 -1.3559  0.8249
24269SOL     OW73384   7.448   6.081   3.830 -0.0797 -0.3755  0.6886
24269SOL    HW173385   7.432   6.152   3.892 -0.6299  0.0480  0.0768
24269SOL    HW273386   7.542   6.086   3.811 -0.5851  2.3804 -1.8739
24270SOL     OW73387   5.046   0.168   2.626 -0.7552 -0.0575 -0.0703
24270SOL    HW173388   5.102   0.148   2.550 -0.3453 -0.2215  0.2680
24270SOL    HW273389   5.083   0.248   2.662  0.0017 -0.7950  0.8454
24271SOL     OW73390   1.137   0.113   7.154  0.1083  0.5633 -0.4769
24271SOL    HW173391   1.231   0.098   7.149 -0.0337 -0.1464 -1.3095
24271SOL    HW273392   1.099   0.046   7.097 -0.8467  1.3399 -0.7886
24272SOL     OW73393   3.617   8.092   2.965 -0.2591  0.7450 -0.2267
24272SOL    HW173394   3.700   8.097   3.013 -0.2336 -2.3091  0.2135
24272SOL    HW273395   3.551   8.076   3.033 -0.6043 -0.8335 -0.8837
24273SOL     OW73396   1.365   8.290   2.526 -0.6826  0.3986  0.0872
24273SOL    HW173397   1.361   8.377   2.567  0.1452  0.6952 -0.4291
24273SOL    HW273398   1.423   8.302   2.451 -0.5206 -0.6183  0.0404
24274SOL     OW73399   2.065   2.228   4.237  0.3904  0.4013 -0.1288
24274SOL    HW173400   2.127   2.285   4.282  0.0978  0.6206  0.0013
24274SOL    HW273401   2.029   2.172   4.306  1.6749 -0.8927 -0.4574
24275SOL     OW73402   0.676   3.131   3.535  0.2476 -0.0825 -0.1533
24275SOL    HW173403   0.688   3.225   3.521  0.7296 -0.0608  0.3462
24275SOL    HW273404   0.764   3.094   3.527  0.0340 -0.5209 -0.5260
24276SOL     OW73405   5.354   5.824   5.484  0.9073 -0.3306  0.2598
24276SOL    HW173406   5.395   5.833   5.398  1.8491 -2.6808  0.4095
24276SOL    HW273407   5.357   5.913   5.520  2.7991  0.2407 -1.1115
24277SOL     OW73408   8.643   9.061   9.098 -0.0938 -0.7849  0.2925
24277SOL    HW173409   8.559   9.081   9.058 -0.5648 -0.6707  1.3075
24277SOL    HW273410   8.685   9.001   9.037 -0.2513  0.3517 -0.9705
24278SOL     OW73411   6.143   1.992   4.176  0.0592  0.7423  0.2465
24278SOL    HW173412   6.116   1.985   4.084 -0.7646  0.5031  0.4965
24278SOL    HW273413   6.081   1.936   4.223  0.7831  0.4736  0.8932
24279SOL     OW73414   9.753   3.896   9.929  0.1463 -0.6313  0.5487
24279SOL    HW173415   9.800   3.964   9.977 -0.5532  1.6540 -1.7536
24279SOL    HW273416   9.796   3.893   9.844 -0.3214 -2.5925  0.3432
24280SOL     OW73417   6.492   5.941   3.540 -0.0640 -0.2484  0.4711
24280SOL    HW173418   6.425   5.910   3.601  0.4842 -1.2075  0.6126
24280SOL    HW273419   6.575   5.925   3.585  0.2986  0.1356 -0.0473
24281SOL     OW73420   9.121   0.274   0.300 -0.2677  0.0345 -0.5428
24281SOL    HW173421   9.158   0.230   0.377  1.0267  1.0828 -0.5241
24281SOL    HW273422   9.196   0.318   0.259 -0.9447 -0.4003 -2.3556
24282SOL     OW73423   2.946   6.805   4.334 -0.4604 -0.1410 -0.0149
24282SOL    HW173424   2.907   6.865   4.271  1.1344 -0.0812 -0.9902
24282SOL    HW273425   2.921   6.718   4.303 -0.4110 -0.0783 -0.2324
24283SOL     OW73426   0.536   9.905   2.734  0.3087  0.4390 -0.3526
24283SOL    HW173427   0.495   9.990   2.753  1.2315  0.7703  0.1996
24283SOL    HW273428   0.492   9.875   2.655 -0.0339  1.4356 -0.5566
24284SOL     OW73429   7.816   0.862   0.660  0.1341 -0.0222  0.1152
24284SOL    HW173430   7.739   0.920   0.653  0.4688  0.2799 -1.5143
24284SOL    HW273431   7.782   0.775   0.640  0.0158 -0.0563  0.4662
24285SOL     OW73432   8.407   9.002   0.070 -0.0658 -0.2762 -0.4590
24285SOL    HW173433   8.487   8.983   0.020 -1.3392 -0.7914 -2.4192
24285SOL    HW273434   8.363   9.070   0.019 -1.1867 -0.4605  0.2413
24286SOL     OW73435   1.950   8.626   6.134  0.2117  0.2954 -0.1019
24286SOL    HW173436   2.034   8.600   6.173  0.2172  2.5163  1.5093
24286SOL    HW273437   1.974   8.681   6.059  0.1834  0.1301 -0.2337
24287SOL     OW73438   1.334   9.275   3.287 -0.2755  0.1985 -0.9422
24287SOL    HW173439   1.380   9.243   3.210 -1.0378 -0.9569 -0.9405
24287SOL    HW273440   1.282   9.349   3.255  0.9877  1.0509 -1.0899
24288SOL     OW73441   3.593   8.503   5.267  0.2833  0.3998  0.2991
24288SOL    HW173442   3.684   8.522   5.242  1.4042 -3.5178  0.7886
24288SOL    HW273443   3.600   8.459   5.351 -2.4648  2.6979  1.9321
24289SOL     OW73444   4.348   8.614   9.753  0.1617  0.0339  0.6831
24289SOL    HW173445   4.294   8.592   9.677  1.0485 -0.2643  0.1280
24289SOL    HW273446   4.367   8.707   9.742  1.0545 -0.2116  0.0284
24290SOL     OW73447   7.046   9.220   0.444 -0.0473  0.2491 -0.2517
24290SOL    HW173448   7.126   9.208   0.394  0.0164  0.7703 -0.2808
24290SOL    HW273449   6.994   9.282   0.392 -0.1064  0.5672  0.1811
24291SOL     OW73450   4.880   7.425   3.868 -0.5064 -0.4754 -0.1621
24291SOL    HW173451   4.912   7.420   3.958  1.3492 -0.2532 -0.7505
24291SOL    HW273452   4.952   7.466   3.820 -1.2282 -1.0835 -1.8478
24292SOL     OW73453   8.647   1.095   1.939  0.2388 -0.5255  0.1957
24292SOL    HW173454   8.625   1.172   1.992  0.0489 -1.1088  0.9651
24292SOL    HW273455   8.637   1.021   1.998 -1.7085 -1.3822 -1.0964
24293SOL     OW73456   0.846   3.716   1.680  0.5626  0.3645  0.5126
24293SOL    HW173457   0.777   3.775   1.712  0.7505  1.2575 -0.6868
24293SOL    HW273458   0.872   3.752   1.596 -0.6305 -2.4863 -1.2282
24294SOL     OW73459   5.949   5.547   4.032 -0.2002 -0.0601  0.3678
24294SOL    HW173460   5.964   5.611   4.101 -0.1794 -0.7775  1.0388
24294SOL    HW273461   5.871   5.499   4.060 -0.5773  0.0703 -0.4285
24295SOL     OW73462   6.874   4.495   7.896  0.1467  0.1583 -0.0155
24295SOL    HW173463   6.944   4.498   7.961 -0.5858  0.0948  0.7942
24295SOL    HW273464   6.897   4.563   7.834  1.0615 -0.0319  0.0924
24296SOL     OW73465   0.372   2.891   4.966  0.0336 -0.6633  0.0719
24296SOL    HW173466   0.408   2.849   5.044 -1.5280 -1.9793  0.1321
24296SOL    HW273467   0.299   2.943   4.999 -0.5259 -1.0941 -0.4660
24297SOL     OW73468   6.457   8.053   7.829  0.6020  0.2070 -0.1564
24297SOL    HW173469   6.503   8.021   7.752 -0.9400 -1.7769 -0.3320
24297SOL    HW273470   6.375   8.004   7.830 -0.6869  2.2183  1.1815
24298SOL     OW73471   9.375   0.964   5.734 -0.1699 -0.4673 -0.1305
24298SOL    HW173472   9.302   0.985   5.791  0.5129 -0.9799  0.9684
24298SOL    HW273473   9.438   1.034   5.749  1.0735 -1.8922  1.6908
24299SOL     OW73474   5.857   1.954   8.217 -0.1562 -0.0645  0.1430
24299SOL    HW173475   5.863   1.965   8.122  0.0056  0.7507  0.2386
24299SOL    HW273476   5.945   1.976   8.249 -0.3459  0.1554  0.5217
24300SOL     OW73477   3.337   4.014   1.420  0.4628 -0.9077  0.0678
24300SOL    HW173478   3.377   3.939   1.375  0.5468 -1.9932  1.8803
24300SOL    HW273479   3.411   4.066   1.451  0.4296 -1.2108  0.6550
24301SOL     OW73480   6.982   3.204   4.021 -0.6142 -0.0319  0.0374
24301SOL    HW173481   7.048   3.143   4.053 -0.0675  0.3162 -0.3913
24301SOL    HW273482   6.912   3.149   3.986  0.7612 -0.4886 -2.2110
24302SOL     OW73483   4.812   5.012   6.161 -0.2116 -0.0124 -0.2218
24302SOL    HW173484   4.808   5.028   6.067 -0.1630  1.1628 -0.0473
24302SOL    HW273485   4.739   5.063   6.196  0.5847  0.6606  0.5042
24303SOL     OW73486   8.630   4.198   3.668  0.0371 -0.0282 -0.1201
24303SOL    HW173487   8.677   4.138   3.611 -0.4550 -0.9365  0.4148
24303SOL    HW273488   8.560   4.234   3.613 -3.2064 -4.1007  0.8555
24304SOL     OW73489   2.535   5.929   8.495  0.1070 -0.6627 -0.0368
24304SOL    HW173490   2.453   5.881   8.509  0.1614 -1.6505 -2.6562
24304SOL    HW273491   2.569   5.942   8.584 -2.0950 -1.5827  1.0395
24305SOL     OW73492   0.018   7.746   9.359 -0.1023 -0.0062 -0.6440
24305SOL    HW173493   0.087   7.787   9.411 -0.1041 -0.9903  0.1610
24305SOL    HW273494  -0.030   7.692   9.421  0.8624 -2.4934 -1.9155
24306SOL     OW73495   7.066   0.902   7.052 -0.2481 -0.1329  0.2162
24306SOL    HW173496   7.091   0.819   7.012 -0.8809 -0.8983  1.3530
24306SOL    HW273497   6.970   0.899   7.054 -0.2437  0.2066  1.1001
24307SOL     OW73498   3.995   7.058   0.108  0.0794  0.2809 -0.4186
24307SOL    HW173499   4.001   6.979   0.163  2.2305  0.6607 -0.0167
24307SOL    HW273500   4.037   7.033   0.025 -0.5493  0.5692 -0.8264
24308SOL     OW73501   6.211   0.900   3.088 -0.1219 -0.2763  0.4276
24308SOL    HW173502   6.272   0.840   3.131 -0.9239 -1.2794  0.2124
24308SOL    HW273503   6.210   0.977   3.144 -0.9633 -1.4503  2.1166
24309SOL     OW73504   2.532   3.102   3.201 -0.2999  0.3591  0.1919
24309SOL    HW173505   2.602   3.167   3.214  0.2713 -0.0112 -0.9030
24309SOL    HW273506   2.555   3.030   3.259  0.7560 -0.1550 -0.8320
24310SOL     OW73507   5.697   0.381   3.306  0.0149 -0.1255  0.4325
24310SOL    HW173508   5.707   0.454   3.367  1.2362  0.4379 -0.3918
24310SOL    HW273509   5.712   0.303   3.359 -2.8774  0.0543  1.6719
24311SOL     OW73510   8.171   7.558   1.408 -0.3471  0.1155  0.0240
24311SOL    HW173511   8.241   7.506   1.447  0.2203 -0.5175 -1.7093
24311SOL    HW273512   8.116   7.493   1.364 -1.9680  0.6278  1.2258
24312SOL     OW73513   0.963   1.892   5.565  0.0119 -0.3102 -0.4322
24312SOL    HW173514   1.030   1.960   5.556  0.2118 -0.3050  0.8849
24312SOL    HW273515   0.920   1.912   5.648 -0.3760 -1.4097 -0.3564
24313SOL     OW73516   2.894   5.256   9.084  0.1483 -0.7445 -0.5421
24313SOL    HW173517   2.831   5.189   9.060 -0.9064  0.1221 -0.2472
24313SOL    HW273518   2.965   5.208   9.127 -1.5472 -1.5026  1.6182
24314SOL     OW73519   9.538   7.257   3.855  0.3046 -0.2164 -0.4698
24314SOL    HW173520   9.492   7.254   3.938  0.4759  1.1631 -0.2948
24314SOL    HW273521   9.526   7.170   3.817  1.1833 -1.2621  1.5001
24315SOL     OW73522   7.851   0.104   7.336 -0.1035 -0.1046 -0.1468
24315SOL    HW173523   7.843   0.181   7.279  0.2208 -0.5873 -0.8581
24315SOL    HW273524   7.912   0.132   7.404 -2.3112  1.2932  1.4128
24316SOL     OW73525   6.140   5.336   4.534 -0.1792  0.1840  0.2310
24316SOL    HW173526   6.051   5.315   4.563 -0.8246  3.3898  1.0485
24316SOL    HW273527   6.197   5.300   4.602 -1.1025  0.6198  1.2638
24317SOL     OW73528   2.746   6.087   5.977  0.3138 -0.1799  0.1462
24317SOL    HW173529   2.827   6.138   5.977 -1.2299  2.4767 -1.5110
24317SOL    HW273530   2.707   6.105   6.063 -0.6312  2.3861 -0.7102
24318SOL     OW73531   2.194   8.203   1.484  0.1054  0.1475 -0.0003
24318SOL    HW173532   2.290   8.208   1.482  0.2698 -0.8401  2.1992
24318SOL    HW273533   2.166   8.295   1.485  1.1295  0.4784  0.9698
24319SOL     OW73534   9.862   6.624   6.350  0.1074  0.4459 -0.5277
24319SOL    HW173535   9.833   6.551   6.296  0.9589  0.5150 -1.0992
24319SOL    HW273536   9.933   6.665   6.299 -0.6121  1.9055 -0.4057
24320SOL     OW73537   2.412   1.528   3.066  0.2260  0.6896  0.0101
24320SOL    HW173538   2.355   1.588   3.017 -0.1573  0.4932  0.2105
24320SOL    HW273539   2.490   1.580   3.084 -0.3531  1.3448  0.7146
24321SOL     OW73540   1.290   0.484   6.407 -0.9587 -0.5276  0.6807
24321SOL    HW173541   1.236   0.488   6.329 -0.5852  0.7447  0.4565
24321SOL    HW273542   1.308   0.576   6.429  2.2261 -0.8397 -0.0694
24322SOL     OW73543   9.070   8.053   3.050  0.1073  0.3366  0.2321
24322SOL    HW173544   8.979   8.083   3.061  0.2316  0.6281  0.5064
24322SOL    HW273545   9.063   7.975   2.995 -0.2978  0.4368  0.1331
24323SOL     OW73546   6.210   2.190   8.034 -0.0409 -0.0771 -0.0104
24323SOL    HW173547   6.297   2.220   8.060  0.3885 -1.2180 -0.0639
24323SOL    HW273548   6.218   2.169   7.941 -1.0324  2.0492 -0.6558
24324SOL     OW73549   4.654   1.773   4.529 -0.2776 -0.1175 -0.2415
24324SOL    HW173550   4.559   1.786   4.535 -0.2159 -0.0374  0.9405
24324SOL    HW273551   4.691   1.845   4.581  0.3120 -1.4815  1.3070
24325SOL     OW73552   1.547   1.031   1.367 -0.0853  0.7282  0.0221
24325SOL    HW173553   1.465   1.004   1.409  0.6079 -0.1685  0.8664
24325SOL    HW273554   1.612   1.025   1.437  0.5640  2.2348 -0.4169
24326SOL     OW73555   8.554   3.302   5.396 -0.4841 -0.6207 -0.3829
24326SOL    HW173556   8.496   3.309   5.320 -0.1840  0.2877 -0.5437
24326SOL    HW273557   8.602   3.385   5.397  0.0242 -0.9126  0.3884
24327SOL     OW73558   4.187   4.261   1.690  0.5649  0.4545 -0.4095
24327SOL    HW173559   4.213   4.185   1.639  2.2525  0.3495  0.5299
24327SOL    HW273560   4.258   4.272   1.754 -0.8062  1.3849  1.0158
24328SOL     OW73561   3.574   9.821   1.897  0.0337 -0.0667 -0.6352
24328SOL    HW173562   3.527   9.757   1.951  0.1953 -1.2165 -1.7953
24328SOL    HW273563   3.662   9.784   1.887  0.4794  0.9012 -0.4205
24329SOL     OW73564   9.905   5.298   3.560  0.2006  0.1459  0.2438
24329SOL    HW173565   9.842   5.370   3.557 -0.0003  0.1229  2.2682
24329SOL    HW273566   9.903   5.261   3.472 -2.1471  0.5539  0.0454
24330SOL     OW73567   9.584   9.410   9.262  0.2695  0.5663  0.7183
24330SOL    HW173568   9.570   9.429   9.354  1.5939  1.2188  0.8194
24330SOL    HW273569   9.669   9.367   9.259  0.9362  1.8726 -0.3108
24331SOL     OW73570   1.269   8.560   4.367  0.2960 -0.1803  0.6702
24331SOL    HW173571   1.184   8.520   4.349  0.8677 -0.5443 -1.5225
24331SOL    HW273572   1.265   8.646   4.325  0.8363  0.0019  0.9792
24332SOL     OW73573   0.469   6.182   4.189 -0.0291  0.0105  0.4909
24332SOL    HW173574   0.464   6.264   4.239 -1.3611  0.1516  0.1683
24332SOL    HW273575   0.407   6.124   4.233 -0.3250 -0.2604 -0.2754
24333SOL     OW73576   0.982   6.769   9.504  0.1919  0.0414  0.0847
24333SOL    HW173577   0.892   6.768   9.472  0.5172 -2.4104 -0.9015
24333SOL    HW273578   0.985   6.699   9.569  1.4612 -0.1559 -0.1632
24334SOL     OW73579   1.565   0.712   0.413  0.3439 -0.3232 -0.2491
24334SOL    HW173580   1.648   0.754   0.437 -0.6779  1.3669  0.5249
24334SOL    HW273581   1.504   0.785   0.401 -1.2135 -1.5485 -0.1160
24335SOL     OW73582   8.138   5.281   6.786 -0.0969  0.4368 -0.1819
24335SOL    HW173583   8.079   5.353   6.806 -2.3878 -1.5288  0.6576
24335SOL    HW273584   8.132   5.270   6.691 -0.2071  0.9689 -0.2394
24336SOL     OW73585   4.920   8.550   9.056 -0.3226 -0.1621 -0.0354
24336SOL    HW173586   4.940   8.581   9.145  3.9426 -1.7782 -0.1905
24336SOL    HW273587   4.927   8.455   9.062 -2.7952 -0.5195 -1.6371
24337SOL     OW73588   3.157   2.826   8.712  0.3739 -0.1934 -0.7684
24337SOL    HW173589   3.210   2.826   8.632 -0.5573 -0.3867 -1.4168
24337SOL    HW273590   3.073   2.863   8.683 -0.2356 -0.9978 -0.0608
24338SOL     OW73591   6.859   9.697   3.725 -0.4382  0.1907  0.0733
24338SOL    HW173592   6.763   9.688   3.729 -0.4688  0.4722 -0.0158
24338SOL    HW273593   6.888   9.682   3.815 -0.5133 -0.4651 -0.0028
24339SOL     OW73594   2.084   1.480   5.054  1.0228 -0.2672  0.1419
24339SOL    HW173595   2.001   1.494   5.008  0.0915  1.0144  2.0746
24339SOL    HW273596   2.083   1.388   5.079  0.7490 -0.5531 -0.8836
24340SOL     OW73597   0.095   8.902   9.024 -0.5961 -0.0130  0.2597
24340SOL    HW173598   0.086   8.809   9.003  0.2772 -0.1610  0.5295
24340SOL    HW273599   0.121   8.904   9.115 -2.2867  0.5650  0.7775
24341SOL     OW73600   2.430   7.695   1.601  0.0052  0.1799 -0.3670
24341SOL    HW173601   2.421   7.617   1.547  0.5346 -1.2156  1.4581
24341SOL    HW273602   2.388   7.671   1.684  0.7075  1.6149  0.4325
24342SOL     OW73603   8.301   9.827   5.543  0.6203  0.6998  0.2144
24342SOL    HW173604   8.311   9.887   5.617  3.7221  1.5111 -0.7071
24342SOL    HW273605   8.306   9.740   5.582  0.2857  1.0901  1.1533
24343SOL     OW73606   9.830   1.097   2.801 -0.0607 -0.1312  0.0799
24343SOL    HW173607   9.765   1.036   2.837  0.7625 -0.2152  1.4962
24343SOL    HW273608   9.898   1.042   2.765  0.1093 -0.0561  0.2824
24344SOL     OW73609   1.877   8.817   9.414 -0.5883  0.5034 -0.3808
24344SOL    HW173610   1.912   8.739   9.370  0.8156  1.0213 -0.2270
24344SOL    HW273611   1.826   8.861   9.346 -0.4191  0.0571 -0.8038
24345SOL     OW73612   1.643   4.791   4.366  0.7826 -0.4054 -0.3600
24345SOL    HW173613   1.702   4.775   4.292  0.3727  0.1716 -0.8174
24345SOL    HW273614   1.595   4.709   4.377  1.0656 -0.5951 -0.5274
24346SOL     OW73615   0.984   5.905   4.923  0.3772  1.0653 -0.0808
24346SOL    HW173616   0.899   5.864   4.908  0.7767 -0.7300  2.0711
24346SOL    HW273617   0.981   5.934   5.014  1.1448  3.4779 -0.7281
24347SOL     OW73618   0.710   7.801   9.561 -0.5227  0.3579 -0.3452
24347SOL    HW173619   0.718   7.881   9.509 -2.7378  0.0392 -1.2867
24347SOL    HW273620   0.738   7.731   9.502 -2.6988  0.0345 -1.0863
24348SOL     OW73621   9.238   3.045   1.638 -0.0677 -0.2711 -0.4673
24348SOL    HW173622   9.188   3.007   1.567 -0.2183  0.2981 -0.6752
24348SOL    HW273623   9.326   3.056   1.603 -0.6425  2.1346 -1.4171
24349SOL     OW73624   9.758   9.635   7.725  0.3146 -0.1286  0.3081
24349SOL    HW173625   9.677   9.625   7.774  0.3660  0.4783  0.5254
24349SOL    HW273626   9.748   9.719   7.679  1.0721  0.2672  0.8447
24350SOL     OW73627   5.817   1.801   2.479  0.0545 -0.1023  0.1545
24350SOL    HW173628   5.807   1.814   2.573  0.2939  0.0136  0.1656
24350SOL    HW273629   5.910   1.781   2.468  0.0598  0.0488 -0.0745
24351SOL     OW73630   9.507   9.356   0.350  0.2043  0.2518  0.1803
24351SOL    HW173631   9.530   9.449   0.342  2.8221 -0.3752 -0.8069
24351SOL    HW273632   9.513   9.322   0.261  2.0513 -1.3533  0.8239
24352SOL     OW73633   1.408   7.079   8.433  0.1325  0.0870  0.5403
24352SOL    HW173634   1.409   7.119   8.346  0.1320  2.7764  1.6796
24352SOL    HW273635   1.478   7.014   8.430  1.3214  1.3467 -0.9582
24353SOL     OW73636   4.003   7.899   7.427  0.4688 -0.1425 -0.3202
24353SOL    HW173637   4.008   7.939   7.340 -1.3777 -0.1456 -0.4647
24353SOL    HW273638   4.090   7.911   7.464  0.8240  1.3024 -1.5461
24354SOL     OW73639   5.101   0.438   6.464  0.0116  0.8994 -0.2775
24354SOL    HW173640   5.088   0.528   6.435 -0.4118  1.5779  1.8353
24354SOL    HW273641   5.082   0.385   6.387 -0.9801  2.5441 -1.2331
24355SOL     OW73642   0.099   2.136   0.371  0.4476 -0.5791  0.5363
24355SOL    HW173643   0.183   2.172   0.344  0.1520  0.1380  0.5411
24355SOL    HW273644   0.117   2.089   0.452  0.4996  1.3187  1.6817
24356SOL     OW73645   4.808   0.744   3.563  0.3539 -0.1075  0.8789
24356SOL    HW173646   4.842   0.666   3.519  1.5913  0.6533  0.4279
24356SOL    HW273647   4.834   0.816   3.506  0.9618  0.7979  2.2592
24357SOL     OW73648   5.944   0.118   2.292  0.1254  0.0997  0.2144
24357SOL    HW173649   5.885   0.193   2.290  0.0392  0.0125 -1.2402
24357SOL    HW273650   5.985   0.117   2.206  0.1429 -1.5229  0.2148
24358SOL     OW73651   1.704   8.074   6.886 -0.4479 -1.2163 -0.0213
24358SOL    HW173652   1.722   7.988   6.848  1.1456 -0.6279 -0.7207
24358SOL    HW273653   1.757   8.076   6.966  0.3580 -0.5274 -0.5551
24359SOL     OW73654   6.947   3.863   3.162 -0.0662 -0.6495 -0.1113
24359SOL    HW173655   7.006   3.805   3.210 -0.6422 -1.8657 -0.8020
24359SOL    HW273656   6.971   3.850   3.070 -1.0468 -0.7605 -0.3634
24360SOL     OW73657   4.254   1.526   6.163 -0.7250 -0.6969 -0.2187
24360SOL    HW173658   4.276   1.475   6.085 -3.0967 -0.7856 -0.9051
24360SOL    HW273659   4.274   1.467   6.236  2.0895 -0.3958 -0.6349
24361SOL     OW73660   0.671   5.188   4.806  0.1406 -0.6592 -0.1128
24361SOL    HW173661   0.645   5.148   4.889  0.8432  2.3622  1.7133
24361SOL    HW273662   0.763   5.211   4.817  0.7380 -1.6358 -2.4181
24362SOL     OW73663   4.629   7.949   0.062  0.2530  0.9385 -0.5328
24362SOL    HW173664   4.583   7.906  -0.009 -1.0296  0.2620  0.6721
24362SOL    HW273665   4.577   8.027   0.081  0.6138  1.1434 -0.3667
24363SOL     OW73666   6.142   4.117   8.434  0.1760  0.0360 -0.3806
24363SOL    HW173667   6.087   4.054   8.388  2.5285 -1.5590 -1.1554
24363SOL    HW273668   6.146   4.085   8.524 -1.1857  0.9195  0.0246
24364SOL     OW73669   7.021   0.369   6.232 -0.0475  0.5928 -0.7268
24364SOL    HW173670   7.115   0.386   6.242  0.3158  0.2419 -3.0632
24364SOL    HW273671   6.982   0.455   6.219  0.3748  0.5450 -2.5144
24365SOL     OW73672   7.697   5.526   4.375  0.2736 -0.2044 -0.2429
24365SOL    HW173673   7.700   5.608   4.326  2.4162  1.8084  2.8825
24365SOL    HW273674   7.622   5.535   4.434  1.8415  0.7091  1.7469
24366SOL     OW73675   0.231   8.815   7.779 -0.4778 -0.3603 -0.1655
24366SOL    HW173676   0.237   8.747   7.846 -0.9962  0.2304  0.4889
24366SOL    HW273677   0.274   8.891   7.817 -0.6432 -0.0629 -0.5621
24367SOL     OW73678   7.978   7.448   8.964  0.2374 -0.2415  0.8338
24367SOL    HW173679   7.957   7.450   9.057 -0.6683  0.0512  0.6302
24367SOL    HW273680   8.053   7.389   8.958  1.0325  0.6250  1.8759
24368SOL     OW73681   2.525   8.893   7.909  0.4147 -0.0290  0.1387
24368SOL    HW173682   2.585   8.833   7.954 -1.3386 -0.6525  1.7588
24368SOL    HW273683   2.442   8.846   7.905 -0.3324  1.2970 -0.9296
24369SOL     OW73684   4.222   0.796   6.630 -0.0273 -0.0981  0.0058
24369SOL    HW173685   4.160   0.847   6.682  0.4992  0.3911  0.1647
24369SOL    HW273686   4.240   0.718   6.682 -0.5745 -0.2795 -0.0791
24370SOL     OW73687   4.020   2.593   8.440 -0.5259  0.0771  0.0219
24370SOL    HW173688   3.955   2.640   8.492 -0.4332 -0.5809  0.7549
24370SOL    HW273689   4.102   2.606   8.488 -0.7561 -2.0849  1.1164
24371SOL     OW73690   5.549   4.137   0.785 -0.9984 -0.2850  0.2368
24371SOL    HW173691   5.523   4.175   0.702 -0.7247 -2.4433 -0.8981
24371SOL    HW273692   5.641   4.161   0.794 -1.1818  0.4621  0.2535
24372SOL     OW73693   1.284   5.909   7.553 -0.0265  0.1756  0.4590
24372SOL    HW173694   1.355   5.913   7.616 -0.2627  2.7089  0.6440
24372SOL    HW273695   1.327   5.886   7.470  0.4840 -1.6237  1.1684
24373SOL     OW73696   7.061   4.197   5.439 -0.0678  0.5257 -0.0734
24373SOL    HW173697   7.076   4.275   5.386  2.2865  0.4962  0.4534
24373SOL    HW273698   7.114   4.129   5.397  0.9342  0.2129  1.6193
24374SOL     OW73699   3.288   7.619   8.955 -0.2184 -0.4543 -0.2458
24374SOL    HW173700   3.318   7.709   8.943  0.3957 -0.5315  0.5455
24374SOL    HW273701   3.285   7.608   9.050  0.3565 -1.4664 -0.3333
24375SOL     OW73702   5.803   9.164   1.974  0.3412 -0.2805 -0.0300
24375SOL    HW173703   5.829   9.138   2.063  1.9414 -1.0250 -0.6663
24375SOL    HW273704   5.851   9.245   1.958 -2.2513  1.5288  0.8145
24376SOL     OW73705   3.199   9.084   6.590  0.5228  0.3209  0.0377
24376SOL    HW173706   3.283   9.048   6.618 -0.5475 -2.2561  0.1333
24376SOL    HW273707   3.201   9.080   6.494 -0.3111 -1.8822  0.0724
24377SOL     OW73708   5.595   7.115   3.327  0.1974 -0.0314 -0.1577
24377SOL    HW173709   5.673   7.129   3.274  0.4769 -0.0186  0.2591
24377SOL    HW273710   5.578   7.199   3.369  0.5980 -0.3246  0.6109
24378SOL     OW73711   0.977   2.434   6.760 -0.3340  0.3488  0.2946
24378SOL    HW173712   0.913   2.386   6.706  0.8021 -0.7761 -0.1007
24378SOL    HW273713   0.978   2.387   6.843  1.5371 -1.0746 -0.4370
24379SOL     OW73714   0.349   1.344   0.804 -0.2050 -0.5403 -0.2674
24379SOL    HW173715   0.390   1.270   0.849 -1.7249 -0.2808  1.6715
24379SOL    HW273716   0.346   1.318   0.712  1.7461 -1.6953 -0.0580
24380SOL     OW73717   8.448   8.551   4.856 -0.0823 -0.5089 -0.0763
24380SOL    HW173718   8.477   8.496   4.929  0.0682  0.5660  0.7013
24380SOL    HW273719   8.435   8.490   4.783  1.4713 -1.3937  0.3386
24381SOL     OW73720   4.143   4.392   8.235 -0.2864  0.5545  0.2316
24381SOL    HW173721   4.231   4.405   8.201 -0.6688  0.8981 -0.6555
24381SOL    HW273722   4.156   4.343   8.316  0.6639 -0.0718 -0.2814
24382SOL     OW73723   1.211   1.756   4.040 -0.0891 -0.7561  0.2577
24382SOL    HW173724   1.159   1.721   4.113  0.2445  0.1516  0.9430
24382SOL    HW273725   1.152   1.753   3.965 -0.7790 -0.7453  0.7910
24383SOL     OW73726   2.258   7.986   6.016  0.3529  0.3704 -0.1751
24383SOL    HW173727   2.195   8.008   5.947 -0.1492 -0.5177 -0.0104
24383SOL    HW273728   2.215   8.013   6.097  0.0903 -0.4177 -0.0447
24384SOL     OW73729   6.702   2.555   8.603  0.4945  0.5035  0.2319
24384SOL    HW173730   6.712   2.508   8.520  0.0268  0.9839 -0.1035
24384SOL    HW273731   6.663   2.639   8.578  2.3434  1.5549  0.6818
24385SOL     OW73732   8.759   2.660   1.519  0.3215  0.1933 -0.0895
24385SOL    HW173733   8.803   2.666   1.434  1.4160  1.5092  0.5250
24385SOL    HW273734   8.712   2.743   1.527  1.7694  0.9329  1.3632
24386SOL     OW73735   2.148   2.853   6.720 -0.3507 -0.5786 -0.1082
24386SOL    HW173736   2.235   2.892   6.731 -0.4867 -0.1518 -0.5113
24386SOL    HW273737   2.087   2.926   6.729 -0.6097 -0.6924 -0.8854
24387SOL     OW73738   0.304   1.516   0.557  0.5886 -0.4061 -0.3567
24387SOL    HW173739   0.386   1.474   0.534  1.1600  0.8206 -0.5968
24387SOL    HW273740   0.310   1.605   0.522 -0.1616  0.2325  1.0082
24388SOL     OW73741   9.230   8.986   4.132  0.1031  0.5679  0.0059
24388SOL    HW173742   9.263   9.068   4.170  0.1883  0.2392  0.6469
24388SOL    HW273743   9.291   8.919   4.163  1.3485  0.5370 -2.2850
24389SOL     OW73744   2.445   0.768   3.655 -0.1683 -0.3588  0.1314
24389SOL    HW173745   2.416   0.757   3.746  0.1518  0.3508  0.3231
24389SOL    HW273746   2.448   0.862   3.641  0.5596 -0.4438 -0.3647
24390SOL     OW73747   8.741   0.031   7.194 -0.4257  0.4470  0.1250
24390SOL    HW173748   8.806   0.063   7.133 -0.8689  1.3396  0.1110
24390SOL    HW273749   8.790   0.011   7.274  0.0814 -0.2943 -0.3618
24391SOL     OW73750   3.140   1.447   1.733 -0.5387 -0.3193 -0.4592
24391SOL    HW173751   3.156   1.519   1.795 -1.1309  0.5926 -1.3339
24391SOL    HW273752   3.161   1.368   1.782 -0.1055  0.4392  0.6099
24392SOL     OW73753   9.745   5.482   4.665 -0.2531  0.3349 -0.7483
24392SOL    HW173754   9.821   5.482   4.606  0.1970 -1.2900 -0.2268
24392SOL    HW273755   9.766   5.414   4.730 -1.9879  0.1359 -0.3648
24393SOL     OW73756   7.945   9.883   7.133 -0.1440 -0.0406  0.3376
24393SOL    HW173757   7.898   9.934   7.199  1.4256  1.0436  0.6593
24393SOL    HW273758   8.030   9.864   7.173 -0.0804 -1.5349 -0.4246
24394SOL     OW73759   5.943   8.384   1.733  0.2027  0.1643  0.3718
24394SOL    HW173760   5.913   8.295   1.715  1.8399 -0.4598  0.5662
24394SOL    HW273761   6.017   8.373   1.793 -0.1379  1.7236  1.1217
24395SOL     OW73762   0.849   3.529   8.251  0.0458  0.0816  0.4499
24395SOL    HW173763   0.810   3.460   8.305  2.1718 -0.4896  1.3544
24395SOL    HW273764   0.820   3.610   8.291  3.3510 -0.2691  4.0798
24396SOL     OW73765   0.079   5.746   2.514 -0.0215 -0.7152  0.1122
24396SOL    HW173766   0.059   5.701   2.431  0.3489  0.7750 -0.8315
24396SOL    HW273767   0.043   5.834   2.502 -0.2991 -0.5875  1.7107
24397SOL     OW73768   6.941   5.274   8.140 -0.2264 -0.0171 -0.1973
24397SOL    HW173769   6.942   5.246   8.049 -0.1874 -0.6687  0.0003
24397SOL    HW273770   6.989   5.205   8.187 -1.5409 -0.4605  0.5347
24398SOL     OW73771   1.172   1.692   3.208  0.2914  0.2542  0.2484
24398SOL    HW173772   1.201   1.636   3.135  0.5851 -0.0624  0.6029
24398SOL    HW273773   1.092   1.734   3.176  0.1759 -0.2204 -0.0922
24399SOL     OW73774   8.560   0.579   4.455  0.1295  0.3212 -0.1029
24399SOL    HW173775   8.601   0.538   4.379  2.0263  1.4267  0.2643
24399SOL    HW273776   8.610   0.547   4.530  1.0209  2.4728  0.2802
24400SOL     OW73777   7.466   7.396   6.880 -0.0399 -0.7633  0.4018
24400SOL    HW173778   7.375   7.403   6.907 -0.5545  0.0579 -1.4394
24400SOL    HW273779   7.466   7.329   6.811  0.7742 -0.8245  0.4475
24401SOL     OW73780   9.000   3.297   0.626  0.3242 -0.2996  0.0356
24401SOL    HW173781   9.061   3.263   0.691  0.6209 -2.1017 -1.1043
24401SOL    HW273782   9.050   3.296   0.544 -0.5681  0.2641 -0.5302
24402SOL     OW73783   1.424   2.989   6.954  0.4505  0.5494 -0.3663
24402SOL    HW173784   1.386   2.934   7.023 -1.4425  0.9846 -0.9844
24402SOL    HW273785   1.497   2.938   6.920  1.1646  0.1360  1.6500
24403SOL     OW73786   8.341   0.921   2.909 -0.5751  0.2002 -0.2517
24403SOL    HW173787   8.385   0.914   2.824  0.2147  0.5233  0.1132
24403SOL    HW273788   8.290   1.001   2.904 -1.0663 -0.1289 -0.6490
24404SOL     OW73789   4.453   1.336   0.184  0.1529  0.5374 -0.3637
24404SOL    HW173790   4.537   1.306   0.220 -0.0563  0.7106  0.2859
24404SOL    HW273791   4.391   1.324   0.256 -0.1824  1.3366 -0.5167
24405SOL     OW73792   9.458   8.312   7.034  0.1846 -0.1558 -0.9336
24405SOL    HW173793   9.396   8.351   7.095  1.5259 -1.4134  1.3858
24405SOL    HW273794   9.518   8.383   7.012 -0.2363  0.2853 -0.6914
24406SOL     OW73795   0.972   0.734   9.157  0.4274  0.8226  0.2668
24406SOL    HW173796   1.031   0.705   9.087  0.0362  1.2509 -0.2477
24406SOL    HW273797   1.001   0.822   9.177  0.6340  0.6443  0.7538
24407SOL     OW73798   0.189   2.178   9.956  0.0183 -0.1506 -0.7569
24407SOL    HW173799   0.127   2.157  10.026 -0.1749  0.1384 -0.8401
24407SOL    HW273800   0.196   2.098   9.905 -1.1975  0.1568 -1.4476
24408SOL     OW73801   3.352   0.007   9.284 -0.4821 -0.1953  0.2250
24408SOL    HW173802   3.387  -0.065   9.336  0.3769 -2.3151 -2.9775
24408SOL    HW273803   3.427   0.062   9.265 -0.7709  0.5094  1.0818
24409SOL     OW73804   0.910   2.690   5.580 -0.4681  0.2074  0.8934
24409SOL    HW173805   0.914   2.776   5.621  0.0815  0.2930  0.6565
24409SOL    HW273806   0.845   2.643   5.632 -0.9391  0.8341  0.8846
24410SOL     OW73807   0.165   9.752   1.803  0.0240  0.0711 -0.4401
24410SOL    HW173808   0.143   9.839   1.838  3.2339  0.6320  0.4231
24410SOL    HW273809   0.082   9.704   1.806 -2.0353  3.2249 -1.5136
24411SOL     OW73810   4.588   3.669   6.239  0.5754 -0.5828 -0.5087
24411SOL    HW173811   4.544   3.751   6.262  1.4017 -0.6432  1.5960
24411SOL    HW273812   4.618   3.634   6.324 -0.1626 -3.3095 -1.2690
24412SOL     OW73813   7.957   8.303   9.073  0.0646  0.1647  0.1119
24412SOL    HW173814   7.920   8.279   8.988 -2.6292  2.8099  0.3674
24412SOL    HW273815   7.903   8.258   9.136  0.5655  0.0419  0.4581
24413SOL     OW73816   1.104   7.047   2.036 -0.7794  0.6233  0.2290
24413SOL    HW173817   1.109   7.092   1.952 -1.6714  1.6798  0.7170
24413SOL    HW273818   1.074   6.959   2.015  1.5067  0.0036 -0.8055
24414SOL     OW73819   3.309   3.725   3.233  0.2517 -0.0508  0.3328
24414SOL    HW173820   3.275   3.682   3.311  0.6587 -0.3968  0.3216
24414SOL    HW273821   3.331   3.814   3.262  0.1878 -0.1082  0.5546
24415SOL     OW73822   5.659   6.207   9.949 -0.5821  0.0642  0.1774
24415SOL    HW173823   5.662   6.125   9.901 -0.2357 -0.5354  1.1838
24415SOL    HW273824   5.567   6.235   9.943 -0.7342 -0.4722 -0.0395
24416SOL     OW73825   2.326   5.906   2.430 -0.1266 -0.2178 -0.5740
24416SOL    HW173826   2.284   5.964   2.366  0.0855 -1.0665 -1.5078
24416SOL    HW273827   2.255   5.850   2.461  0.0490 -0.8072 -1.2072
24417SOL     OW73828   3.178   1.197   8.659 -0.1988 -0.6453 -0.5712
24417SOL    HW173829   3.095   1.240   8.679 -0.6603 -1.8848  0.3014
24417SOL    HW273830   3.156   1.104   8.652  1.1926 -1.0632  0.1969
24418SOL     OW73831   3.454   8.888   3.638 -0.1619  0.1067  0.2194
24418SOL    HW173832   3.519   8.921   3.576 -1.5249  1.2085 -0.7047
24418SOL    HW273833   3.393   8.961   3.648 -1.6006 -1.0987  0.5349
24419SOL     OW73834   1.674   6.405   4.564 -0.2238 -0.3209 -0.5138
24419SOL    HW173835   1.694   6.459   4.488 -0.3640  2.0661  1.0393
24419SOL    HW273836   1.581   6.383   4.555 -0.9856  2.2637  0.2386
24420SOL     OW73837   9.085   3.182   9.629 -0.2562  0.1191 -0.0511
24420SOL    HW173838   9.092   3.276   9.617 -0.2499  0.5343  2.5573
24420SOL    HW273839   8.991   3.163   9.622 -0.5584  0.7621  1.7234
24421SOL     OW73840   6.944   9.745   7.475  0.4223 -0.1806  0.2021
24421SOL    HW173841   6.896   9.716   7.397  0.1391  1.0650 -0.1011
24421SOL    HW273842   6.888   9.720   7.548 -1.2148  2.0654 -0.1777
24422SOL     OW73843   7.608   8.566   3.355  0.1524 -0.2316  0.4385
24422SOL    HW173844   7.659   8.645   3.340  0.4444 -0.7746 -1.7770
24422SOL    HW273845   7.655   8.498   3.307 -0.8871 -1.4502  1.0786
24423SOL     OW73846   6.287   4.845   3.840 -0.6676 -0.0263 -0.0292
24423SOL    HW173847   6.198   4.809   3.842 -1.7994  2.5043 -0.9600
24423SOL    HW273848   6.302   4.878   3.928 -0.5319 -0.6417  0.1865
24424SOL     OW73849   2.560   4.151   0.631 -0.1446 -0.3399  0.3388
24424SOL    HW173850   2.600   4.196   0.556 -0.1229  0.9221  1.0783
24424SOL    HW273851   2.586   4.059   0.620 -0.4690 -0.2607 -1.4028
24425SOL     OW73852   3.047   0.681   9.556 -0.4325 -0.3174  0.1381
24425SOL    HW173853   3.014   0.707   9.471 -2.2694  1.0610  1.1916
24425SOL    HW273854   3.002   0.598   9.575 -0.8927 -0.0520  0.2244
24426SOL     OW73855   6.565   4.306   3.702  0.0860  0.4317  0.0791
24426SOL    HW173856   6.488   4.325   3.756 -1.0073  1.3838 -1.7522
24426SOL    HW273857   6.589   4.216   3.727 -1.3660  0.2489  0.9609
24427SOL     OW73858   1.661   3.762   1.254  0.6458  0.1529  0.0548
24427SOL    HW173859   1.693   3.837   1.205  2.4698 -0.2785  0.5315
24427SOL    HW273860   1.693   3.775   1.343  1.5174 -1.4605  0.0161
24428SOL     OW73861   8.334   3.925   5.092  0.6828  0.3115 -0.4812
24428SOL    HW173862   8.332   4.020   5.080  0.4198  0.3163 -0.4021
24428SOL    HW273863   8.418   3.908   5.134  0.9323  0.4594 -0.9055
24429SOL     OW73864   3.464   1.796   4.432  0.0710 -0.1452  0.1583
24429SOL    HW173865   3.554   1.768   4.448  0.4716  0.0764 -1.5152
24429SOL    HW273866   3.472   1.887   4.402 -0.6943 -0.1369 -0.0494
24430SOL     OW73867   1.540   3.022   5.573 -0.9101  0.0062  0.0202
24430SOL    HW173868   1.570   2.953   5.513  4.1144  1.4617  0.4068
24430SOL    HW273869   1.520   3.096   5.516 -0.3725  0.0595 -0.1053
24431SOL     OW73870   0.168   8.500   2.628 -0.4874  0.1820 -0.0844
24431SOL    HW173871   0.075   8.494   2.647 -0.3329 -1.5042  0.2707
24431SOL    HW273872   0.191   8.415   2.591  0.9310  0.5244 -0.0484
24432SOL     OW73873   6.159   2.356   1.290  0.0793  0.2587 -0.1230
24432SOL    HW173874   6.103   2.286   1.256 -0.3868  0.7375 -0.3489
24432SOL    HW273875   6.234   2.359   1.230 -0.4918  0.7597 -0.8288
24433SOL     OW73876   4.099   7.136   7.657  0.4263  0.2421 -0.2835
24433SOL    HW173877   4.193   7.152   7.645  0.4873 -0.3248 -0.5816
24433SOL    HW273878   4.090   7.110   7.749  0.2615  2.3964  0.3673
24434SOL     OW73879   0.082   9.342   0.715  0.0360 -0.4113  0.3439
24434SOL    HW173880  -0.012   9.357   0.729 -0.3333 -2.7128  0.8022
24434SOL    HW273881   0.125   9.407   0.770 -1.3016  0.3508  0.5419
24435SOL     OW73882   8.774   8.636   6.275 -0.2517 -0.3964  0.0887
24435SOL    HW173883   8.840   8.702   6.293 -2.0377  1.2685  0.9554
24435SOL    HW273884   8.769   8.583   6.355  1.2605 -1.7255 -0.6476
24436SOL     OW73885   3.563   5.184   8.419 -0.1368  0.3494 -0.2376
24436SOL    HW173886   3.605   5.269   8.431  0.0508  0.3900 -1.1580
24436SOL    HW273887   3.578   5.162   8.328 -1.6529  0.1153 -0.4561
24437SOL     OW73888   6.998   2.239   8.244  0.8002 -0.5032 -0.6039
24437SOL    HW173889   6.996   2.317   8.298 -1.6320  0.4453 -1.8898
24437SOL    HW273890   7.000   2.271   8.154 -1.3378 -1.8232 -1.1991
24438SOL     OW73891   9.130   5.993   0.627  0.1724 -0.5823  0.1855
24438SOL    HW173892   9.225   6.001   0.633  0.0333  0.0876  2.1442
24438SOL    HW273893   9.114   5.958   0.539  2.2869 -1.8918  0.2654
24439SOL     OW73894   1.752   0.296   4.025  0.3915 -0.1312 -0.6740
24439SOL    HW173895   1.791   0.245   3.954  1.4021 -1.2094  0.6107
24439SOL    HW273896   1.781   0.386   4.009 -2.0519  0.3476 -3.4268
24440SOL     OW73897   3.436   5.180   7.533  0.0661 -0.1023 -0.4630
24440SOL    HW173898   3.475   5.110   7.482  0.0283 -0.5747  0.1406
24440SOL    HW273899   3.507   5.212   7.589 -0.0482 -0.0184 -0.3643
24441SOL     OW73900   8.131   8.348   0.307 -0.0873  0.1335 -0.3471
24441SOL    HW173901   8.217   8.319   0.338  1.0687  2.6770 -0.9191
24441SOL    HW273902   8.124   8.310   0.219 -0.5437 -1.7794  0.4471
24442SOL     OW73903   3.348   2.353   1.443  1.0300  0.5241  0.2258
24442SOL    HW173904   3.377   2.409   1.516  2.0965 -0.3235  0.4637
24442SOL    HW273905   3.300   2.413   1.386  2.0586  1.6783  0.5245
24443SOL     OW73906   9.590   3.719   8.357  0.2295 -0.0573 -0.3017
24443SOL    HW173907   9.546   3.749   8.277  0.3436  0.5045 -0.1569
24443SOL    HW273908   9.539   3.756   8.428  0.4224 -0.1454 -0.1174
24444SOL     OW73909   4.033   1.008   2.689  0.3194  0.0655 -0.3373
24444SOL    HW173910   4.039   0.915   2.709 -2.8101 -0.4856 -1.4408
24444SOL    HW273911   3.971   1.043   2.752  0.0975  1.0140 -1.0568
24445SOL     OW73912   0.274   3.778   3.334  0.2869 -0.1709 -0.5284
24445SOL    HW173913   0.246   3.709   3.274  0.7326 -0.9398  0.1256
24445SOL    HW273914   0.215   3.770   3.409  0.2346  0.2712 -0.5214
24446SOL     OW73915   5.475   1.048   4.876 -0.5464 -1.0405 -0.2757
24446SOL    HW173916   5.543   1.014   4.818 -0.8133  0.5521 -1.6190
24446SOL    HW273917   5.522   1.082   4.952  0.4864  1.6912 -1.9713
24447SOL     OW73918   3.399   6.449   1.869  0.2763 -0.0187  0.0700
24447SOL    HW173919   3.367   6.538   1.852  2.7065  0.8790 -0.1258
24447SOL    HW273920   3.424   6.450   1.961  0.0515 -0.5965  0.1382
24448SOL     OW73921   9.312   7.261   6.460 -0.0818  0.3518  0.6432
24448SOL    HW173922   9.340   7.170   6.462  2.0082  0.8065 -1.8184
24448SOL    HW273923   9.378   7.308   6.511  0.9628  0.8505 -1.0846
24449SOL     OW73924   6.680   2.445   5.491 -0.6393 -0.4773  0.1172
24449SOL    HW173925   6.613   2.377   5.484 -3.0826  1.7414  0.2317
24449SOL    HW273926   6.683   2.485   5.404  1.8349 -1.5588 -0.3815
24450SOL     OW73927   5.827   9.837   4.948  0.0640 -0.2914 -0.5161
24450SOL    HW173928   5.917   9.807   4.933  0.3591  0.5511 -0.4795
24450SOL    HW273929   5.781   9.760   4.981  0.5236 -1.0052 -1.4912
24451SOL     OW73930   6.519   2.157   1.300 -0.2525  0.0197  0.2346
24451SOL    HW173931   6.519   2.245   1.263 -0.8689  0.6587  1.6964
24451SOL    HW273932   6.491   2.101   1.228 -0.1111  1.0392 -0.6385
24452SOL     OW73933   0.150   3.176   6.614  0.3448  0.2807  0.3268
24452SOL    HW173934   0.229   3.230   6.610  2.2094 -2.2922 -0.3855
24452SOL    HW273935   0.159   3.126   6.696  0.3687 -1.2758 -0.5890
24453SOL     OW73936   6.732   9.529   4.177 -0.4582  0.2720  0.6695
24453SOL    HW173937   6.800   9.572   4.229 -0.7934  1.5521  0.0770
24453SOL    HW273938   6.674   9.489   4.243  0.3974 -0.1333  1.1966
24454SOL     OW73939   5.465   0.126   5.078 -0.6039  0.2170  0.8333
24454SOL    HW173940   5.488   0.218   5.082  0.2192  0.0525  0.1628
24454SOL    HW273941   5.515   0.092   5.004 -1.4151 -0.6197  0.6550
24455SOL     OW73942   8.430   1.002   6.007  0.2396  0.2951 -0.3263
24455SOL    HW173943   8.355   1.050   6.043  0.6984 -0.0451  1.1512
24455SOL    HW273944   8.390   0.928   5.961 -0.4140  1.4159 -1.6401
24456SOL     OW73945   4.483   8.561   2.262  0.1142 -0.2466 -0.8723
24456SOL    HW173946   4.458   8.651   2.282 -1.3806 -0.7963 -0.1510
24456SOL    HW273947   4.402   8.512   2.268  1.2098 -1.9797  0.6094
24457SOL     OW73948   8.824   0.321   3.201 -0.3622  0.6920 -0.4319
24457SOL    HW173949   8.771   0.357   3.273 -1.0691  1.6245 -1.3868
24457SOL    HW273950   8.789   0.233   3.188 -1.1925  1.0367 -0.5698
24458SOL     OW73951   0.326   1.444   2.039 -1.3673  0.0879 -0.2582
24458SOL    HW173952   0.272   1.378   1.995 -0.5570  0.6096 -2.1322
24458SOL    HW273953   0.272   1.523   2.039 -1.5564 -0.0373  0.1585
24459SOL     OW73954   0.274   0.237   6.160 -0.4519  0.0970 -0.9370
24459SOL    HW173955   0.215   0.304   6.126  1.1369  1.8167 -0.4635
24459SOL    HW273956   0.352   0.244   6.105  0.4870 -0.0194  0.3480
24460SOL     OW73957   4.328   1.824   2.245 -0.2815  0.3075  0.0880
24460SOL    HW173958   4.339   1.748   2.188 -0.0846 -0.3535  0.9820
24460SOL    HW273959   4.412   1.833   2.290 -0.4161  0.8530  0.2474
24461SOL     OW73960   2.656   2.929   3.928 -0.2948  0.3525  0.0112
24461SOL    HW173961   2.672   3.007   3.874  1.0786  1.1386  1.4704
24461SOL    HW273962   2.648   2.858   3.865 -1.2955  1.6031 -1.3559
24462SOL     OW73963   3.759   8.303   6.233 -0.6846  0.4056  0.0172
24462SOL    HW173964   3.742   8.345   6.317 -0.2154  1.7477 -0.5367
24462SOL    HW273965   3.800   8.219   6.256 -2.7027 -0.3418  1.1651
24463SOL     OW73966   0.777   2.410   0.807  0.0370  0.6292 -0.0294
24463SOL    HW173967   0.729   2.411   0.724  0.4639  0.2338 -0.2807
24463SOL    HW273968   0.808   2.500   0.818  0.5943  0.5202 -0.6566
24464SOL     OW73969   8.548   9.158   6.468  0.4747 -0.3210 -0.0514
24464SOL    HW173970   8.487   9.088   6.492  2.8077 -1.4150  3.5540
24464SOL    HW273971   8.583   9.131   6.383 -3.0107 -0.2332 -1.6822
24465SOL     OW73972   6.292   1.689   9.842  0.2769 -0.4582 -0.3422
24465SOL    HW173973   6.254   1.650   9.764 -0.3140  1.5709 -1.1465
24465SOL    HW273974   6.369   1.736   9.811  0.0182  0.4074  0.2534
24466SOL     OW73975   1.643   4.303   2.587 -0.0392 -0.2389 -0.2052
24466SOL    HW173976   1.695   4.275   2.512  0.1632  0.2147 -0.2328
24466SOL    HW273977   1.702   4.295   2.661  0.0023  0.0651 -0.2051
24467SOL     OW73978   3.829   4.018   3.938  0.1635 -0.2458  0.3949
24467SOL    HW173979   3.894   4.072   3.983 -1.0694  1.3383  0.3689
24467SOL    HW273980   3.776   3.980   4.008 -1.1116  1.3950  0.3779
24468SOL     OW73981   6.330   0.322   3.606  0.1240 -0.2577 -0.0709
24468SOL    HW173982   6.288   0.236   3.606  1.6818 -1.1041  1.3270
24468SOL    HW273983   6.424   0.302   3.611  0.6629  1.5275 -1.7812
24469SOL     OW73984   3.858   1.910   2.321 -0.8167 -0.4980  0.0796
24469SOL    HW173985   3.838   1.963   2.398  0.1971 -1.5047  1.0771
24469SOL    HW273986   3.938   1.948   2.285 -1.8071  0.5780 -1.1037
24470SOL     OW73987   8.651   9.149   0.415  0.5055  0.2901 -0.1846
24470SOL    HW173988   8.692   9.090   0.352  0.3475  1.4657 -1.4301
24470SOL    HW273989   8.559   9.153   0.388  0.1801 -0.0476  0.8139
24471SOL     OW73990   2.275   9.242   2.239  0.0460  0.0077  0.1637
24471SOL    HW173991   2.206   9.307   2.228  0.7430  0.7197 -0.1075
24471SOL    HW273992   2.234   9.159   2.216 -0.6556  0.4549 -0.2200
24472SOL     OW73993   4.752   7.711   4.738  0.3273  0.5233 -0.4399
24472SOL    HW173994   4.773   7.803   4.756 -0.1962  1.1316 -2.6322
24472SOL    HW273995   4.667   7.714   4.694  0.9926 -0.8501 -1.9033
24473SOL     OW73996   1.126   8.080   4.562  0.4027  0.1133  0.5116
24473SOL    HW173997   1.100   8.164   4.524  0.8939  0.3902  0.7769
24473SOL    HW273998   1.209   8.098   4.605  0.2079 -0.3691  1.1013
24474SOL     OW73999   8.690   4.410   2.109  0.6905  0.4909 -0.0494
24474SOL    HW174000   8.759   4.345   2.123  1.0061  0.9971  0.7715
24474SOL    HW274001   8.623   4.387   2.173  0.2208  0.1890 -0.6389
24475SOL     OW74002   0.796   8.309   1.286 -0.5821 -0.1689  0.5061
24475SOL    HW174003   0.822   8.390   1.330 -0.4063 -0.7162  1.4319
24475SOL    HW274004   0.778   8.335   1.195  1.6720  0.5008  0.2140
24476SOL     OW74005   3.724   2.659   5.007  0.2326 -0.3773 -0.3633
24476SOL    HW174006   3.646   2.604   5.011  0.4025 -0.5823  0.1114
24476SOL    HW274007   3.793   2.607   5.047  0.4752  0.0407 -0.2350
24477SOL     OW74008   6.401   3.483   8.646  0.1714  0.1052 -0.4301
24477SOL    HW174009   6.386   3.572   8.615  0.7111 -0.0473 -1.1634
24477SOL    HW274010   6.347   3.475   8.724 -1.9414  0.2245 -1.7947
24478SOL     OW74011   2.361   2.420   7.790 -0.6281  0.0957  0.2203
24478SOL    HW174012   2.399   2.427   7.703 -1.8829  1.0341 -0.2933
24478SOL    HW274013   2.288   2.358   7.779 -1.2762  0.8069  0.3979
24479SOL     OW74014   9.243   0.084   0.601 -0.4987  0.4168 -0.7399
24479SOL    HW174015   9.195   0.020   0.655 -1.5811  0.9190 -1.0728
24479SOL    HW274016   9.335   0.060   0.611 -0.7361  0.0366  0.7287
24480SOL     OW74017   0.006   7.533   7.445 -0.1883 -0.1386  0.3585
24480SOL    HW174018   0.018   7.447   7.406 -0.5358 -0.2039  0.3964
24480SOL    HW274019   0.095   7.562   7.468  0.1313  0.3348 -1.3794
24481SOL     OW74020   0.820   9.508   4.796 -0.2065 -0.7806 -0.1133
24481SOL    HW174021   0.746   9.537   4.742 -0.7898  1.2046  1.5795
24481SOL    HW274022   0.831   9.579   4.860  0.9631 -2.6159  1.8322
24482SOL     OW74023   3.765   8.172   7.048 -0.7189 -0.4121 -0.3745
24482SOL    HW174024   3.822   8.144   6.976  0.9131  0.7375  0.3990
24482SOL    HW274025   3.732   8.091   7.086 -1.1275 -1.0557 -1.9987
24483SOL     OW74026   0.464   7.335   7.882 -0.0350  0.5834 -0.4002
24483SOL    HW174027   0.479   7.340   7.976  1.4293  0.0676 -0.5849
24483SOL    HW274028   0.375   7.300   7.874  0.2883 -0.6289  0.8132
24484SOL     OW74029   0.844   3.842   1.408  0.1870  0.0873 -0.1220
24484SOL    HW174030   0.754   3.875   1.403  0.1326 -0.1597 -1.0161
24484SOL    HW274031   0.842   3.762   1.355  1.1442  0.5551 -0.8965
24485SOL     OW74032   4.658   7.837   8.648  0.4827 -0.3552 -0.2832
24485SOL    HW174033   4.652   7.903   8.579  1.2199 -1.0608 -1.0425
24485SOL    HW274034   4.697   7.761   8.605  0.6159 -0.9308  0.8280
24486SOL     OW74035   9.136   0.544   5.774  0.1806 -0.2371  0.1622
24486SOL    HW174036   9.091   0.611   5.826 -0.0053 -0.5406  0.3967
24486SOL    HW274037   9.065   0.502   5.724  0.1126 -1.1432  1.0065
24487SOL     OW74038   4.654   0.917   1.391 -0.0681  0.2587 -0.2160
24487SOL    HW174039   4.635   0.979   1.462  1.4224  0.0281  0.4294
24487SOL    HW274040   4.715   0.854   1.430 -0.5965 -0.9015 -1.2209
24488SOL     OW74041   5.151   5.482   9.410  0.2087 -0.1550  0.3430
24488SOL    HW174042   5.073   5.444   9.449 -0.7180 -0.7212 -1.8978
24488SOL    HW274043   5.213   5.409   9.402 -0.2112 -0.4264 -0.6401
24489SOL     OW74044   9.405   3.907   4.526 -0.3706  0.3525  0.8148
24489SOL    HW174045   9.327   3.903   4.472 -0.1052  0.4016  0.4226
24489SOL    HW274046   9.398   3.990   4.573  0.4916  1.4261 -0.8467
24490SOL     OW74047   4.280   8.281   8.495  0.1366  0.1951  0.2557
24490SOL    HW174048   4.363   8.248   8.529 -0.1262  0.1476  0.8548
24490SOL    HW274049   4.297   8.372   8.472  0.6821 -0.1422 -0.7645
24491SOL     OW74050   7.919   6.100   4.789 -0.1276  0.5095 -0.6890
24491SOL    HW174051   7.836   6.144   4.774 -0.7404 -0.5493 -0.4956
24491SOL    HW274052   7.930   6.100   4.884  0.4810  1.3135 -0.7439
24492SOL     OW74053   5.892   4.995   3.917 -0.5341 -0.3334 -0.0881
24492SOL    HW174054   5.962   5.055   3.944 -0.5996 -0.2219 -0.1613
24492SOL    HW274055   5.819   5.015   3.976 -1.3001  1.1548 -1.4252
24493SOL     OW74056   7.082   5.466   3.413  0.2728  0.5119 -0.4296
24493SOL    HW174057   7.144   5.447   3.342  0.7495  0.0005  0.1079
24493SOL    HW274058   6.999   5.427   3.384 -0.5653  3.4489 -2.3515
24494SOL     OW74059   5.460   1.808   4.685 -0.0274  0.1204 -0.2837
24494SOL    HW174060   5.554   1.791   4.691  0.1666  0.7570 -1.3309
24494SOL    HW274061   5.439   1.852   4.768  0.1202 -2.0361  0.9626
24495SOL     OW74062   9.017   9.731   8.067  0.0396 -0.0447  0.0635
24495SOL    HW174063   8.994   9.730   8.160  0.1009  0.9858  0.0940
24495SOL    HW274064   9.083   9.800   8.059  0.5232 -0.5770 -0.6347
24496SOL     OW74065   3.575   7.069   2.122 -0.2900  0.1954 -0.1043
24496SOL    HW174066   3.571   7.160   2.151  0.6518  0.7154 -1.4954
24496SOL    HW274067   3.570   7.018   2.203  0.5727  1.5254  0.8375
24497SOL     OW74068   0.640   3.222   4.094  0.3832  0.4212 -0.5296
24497SOL    HW174069   0.650   3.295   4.033  0.3122 -1.0597 -2.3902
24497SOL    HW274070   0.722   3.219   4.142 -0.2412  2.7706  0.8693
24498SOL     OW74071   6.342   5.339   6.448  0.2926 -0.0903 -0.5837
24498SOL    HW174072   6.337   5.427   6.486  0.9330  0.0365 -0.7803
24498SOL    HW274073   6.255   5.324   6.411  0.5368  0.9899 -1.6848
24499SOL     OW74074   3.741   2.311   2.669 -0.6203 -0.1812 -0.4096
24499SOL    HW174075   3.776   2.385   2.619  0.5983 -0.8758 -0.6259
24499SOL    HW274076   3.818   2.271   2.709 -0.8756 -2.7777 -2.2408
24500SOL     OW74077   6.383   2.769   6.047 -0.5335 -0.3364  0.3293
24500SOL    HW174078   6.456   2.750   5.988 -0.7043 -1.1086  0.3557
24500SOL    HW274079   6.394   2.861   6.070 -0.5591  0.0205 -1.0382
24501SOL     OW74080   5.363   1.991   7.667  0.6037  0.4598  0.3921
24501SOL    HW174081   5.393   1.903   7.644 -1.7071 -1.2500  3.1702
24501SOL    HW274082   5.408   2.012   7.749  0.3338  1.4218  0.3091
24502SOL     OW74083   8.893   0.589   9.236  0.3108 -0.0975  0.2283
24502SOL    HW174084   8.923   0.641   9.161  0.7592 -1.1631 -0.3585
24502SOL    HW274085   8.912   0.643   9.312  0.2059  0.8481 -0.4009
24503SOL     OW74086   9.561   7.571   4.708  0.1285  1.2931  0.2173
24503SOL    HW174087   9.643   7.609   4.740  0.5287  1.3022 -0.7786
24503SOL    HW274088   9.544   7.617   4.625 -0.0464  0.2019 -0.3729
24504SOL     OW74089   1.546   0.131   5.058 -0.0078  0.3178  0.0330
24504SOL    HW174090   1.606   0.153   4.986 -3.5263  1.8241 -2.7892
24504SOL    HW274091   1.460   0.155   5.024 -1.9738  1.1343  4.8664
24505SOL     OW74092   4.459   5.755   8.662  0.2423  0.2238 -0.0812
24505SOL    HW174093   4.506   5.705   8.728  0.5894 -0.8835 -1.1291
24505SOL    HW274094   4.519   5.826   8.638  1.0224 -0.6148 -0.7110
24506SOL     OW74095   1.677   8.197   0.274 -0.3004 -0.4343  0.9340
24506SOL    HW174096   1.707   8.267   0.215 -0.3020 -0.4604  0.9025
24506SOL    HW274097   1.748   8.187   0.337  1.1438 -2.5715 -0.8942
24507SOL     OW74098   6.675   3.371   0.773  0.1982  0.0188  0.4808
24507SOL    HW174099   6.747   3.351   0.833 -1.0721  0.9094  2.3973
24507SOL    HW274100   6.702   3.452   0.729  0.7525 -0.1402  0.5251
24508SOL     OW74101   7.929   4.310   8.862  0.8146  0.0550 -0.1894
24508SOL    HW174102   7.918   4.222   8.828  1.2449  0.1058 -0.4630
24508SOL    HW274103   8.003   4.346   8.814  2.0525 -0.2041  1.4283
24509SOL     OW74104   3.287   4.350   7.387 -0.0563  0.3330 -0.3578
24509SOL    HW174105   3.235   4.276   7.418  1.7372 -0.6700  0.4036
24509SOL    HW274106   3.248   4.426   7.428 -0.5482 -0.4712  0.6867
24510SOL     OW74107   1.509   0.545   7.569 -0.4027  0.0009  0.5051
24510SOL    HW174108   1.414   0.558   7.568 -0.1997  1.8481  0.3069
24510SOL    HW274109   1.530   0.525   7.660 -1.1019 -1.8170  0.3031
24511SOL     OW74110   7.554   3.825   8.084  0.4269  0.0786 -0.2357
24511SOL    HW174111   7.631   3.814   8.029  0.4701  1.2616 -0.4370
24511SOL    HW274112   7.482   3.787   8.033  1.1472 -3.2245  0.9095
24512SOL     OW74113   5.227   9.573   2.451 -0.6066  0.7173 -0.5139
24512SOL    HW174114   5.214   9.536   2.363 -0.4319  0.1226 -0.2932
24512SOL    HW274115   5.285   9.648   2.437  1.9707 -1.1546 -0.5518
24513SOL     OW74116   6.197   4.035   7.187  0.3195  0.2669 -0.6566
24513SOL    HW174117   6.249   3.957   7.166 -1.0997 -0.4334 -1.7214
24513SOL    HW274118   6.153   4.013   7.269  1.9481  1.0264  0.4799
24514SOL     OW74119   4.882   3.577   5.890 -0.2665  0.5333 -0.0136
24514SOL    HW174120   4.803   3.524   5.896  0.0544  0.0026 -0.3714
24514SOL    HW274121   4.902   3.580   5.796 -1.0878  2.5077 -0.1853
24515SOL     OW74122   6.384   9.155   2.322 -0.0057 -0.2329  0.2302
24515SOL    HW174123   6.436   9.143   2.402 -0.1827  0.1971  0.4113
24515SOL    HW274124   6.294   9.163   2.353 -0.0283  0.3681  0.0220
24516SOL     OW74125   2.122   1.393   0.154 -0.1755 -0.1579  0.5602
24516SOL    HW174126   2.057   1.405   0.085  0.5047 -1.0127 -0.2555
24516SOL    HW274127   2.185   1.463   0.141 -0.5718  0.2802  0.9490
24517SOL     OW74128   6.368   3.305   7.082 -0.1336 -0.3710 -0.1683
24517SOL    HW174129   6.326   3.320   7.167  1.1669  0.0919  0.4158
24517SOL    HW274130   6.382   3.211   7.078 -1.2995 -0.5510 -0.4254
24518SOL     OW74131   6.236   2.428   0.197 -0.2956 -0.0964 -0.2757
24518SOL    HW174132   6.225   2.419   0.102  0.1575  0.2358 -0.3613
24518SOL    HW274133   6.161   2.481   0.225 -0.9467 -0.9792 -0.3039
24519SOL     OW74134   4.643   8.207   7.796  0.2240 -0.2083 -0.2097
24519SOL    HW174135   4.638   8.301   7.812  0.2498 -0.5160  1.8031
24519SOL    HW274136   4.655   8.168   7.882 -0.7217 -2.1437 -0.8913
24520SOL     OW74137   8.947   7.496   4.640  0.9397  0.1700 -0.0862
24520SOL    HW174138   8.964   7.554   4.566  0.3802  0.2514 -0.1499
24520SOL    HW274139   8.870   7.445   4.615 -0.3317  1.3956  1.1218
24521SOL     OW74140   4.970   5.698   9.688 -0.3701 -0.4946 -0.7620
24521SOL    HW174141   4.970   5.613   9.733 -0.6747 -1.1026 -1.8722
24521SOL    HW274142   4.877   5.722   9.684 -0.1872  0.7261  1.0135
24522SOL     OW74143   4.187   9.363   8.092 -0.3983  0.1275 -0.3752
24522SOL    HW174144   4.225   9.416   8.162  1.1209  0.0467 -1.1039
24522SOL    HW274145   4.214   9.274   8.112 -0.5577  0.0061 -0.6922
24523SOL     OW74146   9.736   8.358   1.603  0.0832 -0.0574  0.0178
24523SOL    HW174147   9.773   8.311   1.679 -1.9083  0.1130  1.1661
24523SOL    HW274148   9.666   8.300   1.572 -0.9458  1.1393  0.0661
24524SOL     OW74149   3.373   8.084   9.515  0.4591  0.2990  0.5474
24524SOL    HW174150   3.293   8.061   9.563  1.0152 -1.2108  0.8136
24524SOL    HW274151   3.438   8.099   9.584  0.7102  0.3079  0.3073
24525SOL     OW74152   6.824   8.726   1.314  0.2330 -0.4552 -0.3523
24525SOL    HW174153   6.821   8.769   1.400  0.8146 -0.4334 -0.3368
24525SOL    HW274154   6.853   8.795   1.254 -0.4633 -0.3890 -0.6233
24526SOL     OW74155   6.499   0.563   0.898 -0.2582  0.5777 -0.4604
24526SOL    HW174156   6.413   0.604   0.907 -0.2689  0.4883 -0.1332
24526SOL    HW274157   6.556   0.613   0.957 -0.5375 -0.5939  0.8536
24527SOL     OW74158   2.306   7.847   3.948 -0.1161  0.5688 -0.2605
24527SOL    HW174159   2.312   7.753   3.965  2.0026  0.5339 -0.9461
24527SOL    HW274160   2.212   7.864   3.939 -0.4846 -1.6678 -1.1929
24528SOL     OW74161   1.523   1.978   5.799  0.7524  0.1901 -0.2647
24528SOL    HW174162   1.454   1.934   5.849  1.4278 -2.3387 -1.3758
24528SOL    HW274163   1.477   2.041   5.744 -0.3446  0.5160  0.9608
24529SOL     OW74164   1.944   8.297   7.761 -0.0330 -0.8099  0.0620
24529SOL    HW174165   2.000   8.320   7.836  0.4651 -3.2785  0.5440
24529SOL    HW274166   2.000   8.242   7.706 -1.4429 -1.8957 -0.3389
24530SOL     OW74167   9.139   7.468   2.496  0.5903 -0.2206  0.6010
24530SOL    HW174168   9.136   7.373   2.483 -0.8143 -0.1387  0.0603
24530SOL    HW274169   9.086   7.504   2.425 -0.2635  0.8470  1.7079
24531SOL     OW74170   7.773   5.906   0.941  0.8489 -0.0250 -0.1242
24531SOL    HW174171   7.725   5.823   0.946  1.6895 -0.4904  0.5852
24531SOL    HW274172   7.720   5.968   0.990  1.4632 -0.7990  1.5997
24532SOL     OW74173   4.230   6.477   3.550  0.2663 -0.2980 -0.4540
24532SOL    HW174174   4.294   6.412   3.518  0.3637 -1.4327  1.8708
24532SOL    HW274175   4.283   6.547   3.587  0.2077 -1.0393  1.0894
24533SOL     OW74176   1.035   2.838   8.954  0.2327 -0.2045 -0.6779
24533SOL    HW174177   1.091   2.914   8.938 -0.0841 -0.0222 -0.9303
24533SOL    HW274178   1.026   2.834   9.050  0.9844 -0.4628 -0.6172
24534SOL     OW74179   6.846   7.512   1.308 -0.3878 -0.4385 -0.0901
24534SOL    HW174180   6.754   7.514   1.283 -0.9053 -1.8551  1.4684
24534SOL    HW274181   6.864   7.419   1.324  1.7219 -0.3803 -1.7303
24535SOL     OW74182   3.038   9.875   3.654 -0.3466  0.0087 -0.1007
24535SOL    HW174183   3.051   9.785   3.624  0.9490 -0.1173  0.7435
24535SOL    HW274184   2.944   9.883   3.666 -0.4273 -1.4172  0.3575
24536SOL     OW74185   4.661   8.459   0.767 -0.0983  0.3830  0.3939
24536SOL    HW174186   4.622   8.503   0.691 -0.3087  1.4770  1.1061
24536SOL    HW274187   4.753   8.449   0.744 -0.0329  1.2574  0.2196
24537SOL     OW74188   0.851   3.066   4.483 -0.4626 -0.2509  0.3016
24537SOL    HW174189   0.760   3.065   4.511 -0.4080 -3.0427  0.6604
24537SOL    HW274190   0.901   3.091   4.561 -0.8716  1.1700  0.1315
24538SOL     OW74191   0.541   4.240   2.061  0.8325  0.3412  0.1618
24538SOL    HW174192   0.474   4.304   2.085 -0.0300 -0.6754  0.5086
24538SOL    HW274193   0.551   4.184   2.137  1.8315  0.2519 -0.0153
24539SOL     OW74194   4.060   1.086   4.954 -0.3133 -0.0712  0.1851
24539SOL    HW174195   4.003   1.158   4.927  0.6051  0.7966  0.4863
24539SOL    HW274196   4.002   1.010   4.959 -1.9910  1.1982  2.6648
24540SOL     OW74197   7.502   8.695   9.703  0.1499 -0.0804 -0.4233
24540SOL    HW174198   7.454   8.638   9.764 -0.2856  0.1671 -0.5372
24540SOL    HW274199   7.437   8.721   9.638  0.7230 -0.7315 -1.2863
24541SOL     OW74200   7.084   4.102   6.746  0.0319 -0.0147 -0.0077
24541SOL    HW174201   7.032   4.023   6.757 -0.8717  0.4516 -0.7946
24541SOL    HW274202   7.093   4.111   6.651  2.1411 -0.4477  0.0820
24542SOL     OW74203   9.875   3.395   7.538  0.1096 -0.3318 -0.5576
24542SOL    HW174204   9.940   3.332   7.507  0.0750 -0.4715 -0.3389
24542SOL    HW274205   9.917   3.480   7.524  0.2852 -0.4161 -0.5440
24543SOL     OW74206   5.796   4.087   4.571 -0.0154 -0.3576 -0.1555
24543SOL    HW174207   5.816   4.175   4.601 -1.1086 -0.2715  0.3684
24543SOL    HW274208   5.733   4.053   4.635  1.4574 -2.0691  0.4724
24544SOL     OW74209   8.798   0.961   1.119 -0.0108  0.0468 -0.2698
24544SOL    HW174210   8.806   1.031   1.054  1.0155  0.2406  0.0526
24544SOL    HW274211   8.818   1.003   1.202  0.0193 -0.4977  0.0011
24545SOL     OW74212   7.524   4.077   9.000 -0.5684  0.1873 -0.4667
24545SOL    HW174213   7.487   4.094   9.087 -1.4751  0.6620 -0.9362
24545SOL    HW274214   7.604   4.129   8.997  0.1853 -0.8612  0.5685
24546SOL     OW74215   9.737   4.672   8.783 -0.6809 -0.6310  0.4499
24546SOL    HW174216   9.672   4.620   8.737  0.5206 -0.4972 -1.5022
24546SOL    HW274217   9.819   4.658   8.735 -0.1880  2.6414  0.0493
24547SOL     OW74218   9.352   7.201   4.484  0.1379 -0.0635  0.2526
24547SOL    HW174219   9.279   7.225   4.541  0.7229  2.6684  0.0065
24547SOL    HW274220   9.424   7.182   4.544 -0.5352 -2.1430  0.4763
24548SOL     OW74221   7.474   8.682   2.696 -0.3328  0.2682  0.0796
24548SOL    HW174222   7.379   8.670   2.698 -0.2562 -1.1298 -1.7898
24548SOL    HW274223   7.509   8.609   2.747 -0.2430 -0.4993 -1.0289
24549SOL     OW74224   3.773   6.577   3.046  0.0657  0.1112 -0.0490
24549SOL    HW174225   3.681   6.595   3.028 -0.4286  0.5887  2.5522
24549SOL    HW274226   3.771   6.515   3.119  1.8366 -1.1301 -0.9798
24550SOL     OW74227   3.568   1.022   8.060  0.4842  0.2128  0.1433
24550SOL    HW174228   3.627   1.002   8.133  0.1560 -1.2336  0.0456
24550SOL    HW274229   3.620   1.002   7.981 -0.2660 -1.6131  0.0638
24551SOL     OW74230   1.184   2.943   0.618  0.4174 -1.1995  0.3298
24551SOL    HW174231   1.222   2.972   0.535 -0.2003 -0.8591  0.1608
24551SOL    HW274232   1.256   2.900   0.663  1.8393  1.8565  1.2529
24552SOL     OW74233   2.020   5.014   3.012  0.0188 -0.3761  0.2758
24552SOL    HW174234   2.069   5.077   3.065 -0.7803 -0.6952  1.4326
24552SOL    HW274235   2.080   4.940   3.001  1.0545  0.6297 -1.2948
24553SOL     OW74236   4.157   9.728   3.949 -0.1061  0.8999 -0.1405
24553SOL    HW174237   4.095   9.677   3.896 -1.3781  0.1264  1.9582
24553SOL    HW274238   4.103   9.796   3.989  0.5996  0.8514  0.9298
24554SOL     OW74239   2.407   6.225   6.134  0.2414  0.2803 -0.1551
24554SOL    HW174240   2.341   6.294   6.125 -0.6058 -0.6493 -1.2785
24554SOL    HW274241   2.400   6.174   6.054  0.9754 -1.0219  0.5769
24555SOL     OW74242   7.506   8.530   9.268 -0.1041  0.0268 -0.5505
24555SOL    HW174243   7.459   8.481   9.335  2.7569  0.3759  1.9359
24555SOL    HW274244   7.437   8.565   9.211 -2.9260  0.9583  3.0244
24556SOL     OW74245   9.381   5.239   9.193 -0.4992  0.5710 -0.2729
24556SOL    HW174246   9.451   5.288   9.149 -0.9996  2.0953  0.5549
24556SOL    HW274247   9.302   5.289   9.174 -1.4738 -1.3400 -1.5281
24557SOL     OW74248   2.129   6.402   5.480  0.0552  0.5183  1.2121
24557SOL    HW174249   2.166   6.387   5.568  1.6308  1.9919  0.8613
24557SOL    HW274250   2.202   6.386   5.421 -0.6411  0.7848  0.2638
24558SOL     OW74251   7.960   3.029   3.647  0.1856 -0.2701  0.0841
24558SOL    HW174252   8.039   3.040   3.594  0.1654 -2.8886 -0.6293
24558SOL    HW274253   7.888   3.033   3.583 -0.2196  1.2024  0.6054
24559SOL     OW74254   0.185   3.128   8.437  0.2130  0.3731  0.0151
24559SOL    HW174255   0.142   3.159   8.357  1.1100  1.1494 -0.1955
24559SOL    HW274256   0.114   3.103   8.495 -0.4877  0.7386 -0.6658
24560SOL     OW74257   9.329   0.046   2.576  0.0241  0.3314 -0.0995
24560SOL    HW174258   9.334   0.116   2.511 -1.0567  0.9865  0.4915
24560SOL    HW274259   9.236   0.040   2.598  0.0799 -1.3480 -0.1809
24561SOL     OW74260   8.480   7.008   5.240  0.5005  0.4765 -0.2174
24561SOL    HW174261   8.569   6.984   5.216  0.8469  2.1750 -0.7408
24561SOL    HW274262   8.490   7.085   5.296 -0.5008 -1.0747  2.2574
24562SOL     OW74263   5.514   3.781   4.427  0.5100 -0.5498  0.2981
24562SOL    HW174264   5.580   3.830   4.476 -1.8306  1.1935  1.9270
24562SOL    HW274265   5.541   3.790   4.335  2.0842  0.7692  0.8406
24563SOL     OW74266   9.409   5.377   3.962  0.1204  0.0625  0.5170
24563SOL    HW174267   9.443   5.290   3.942  2.3415  1.1599 -0.8973
24563SOL    HW274268   9.359   5.402   3.885  1.7751  1.0345 -0.3155
24564SOL     OW74269   7.621   3.071   0.261  0.4912 -0.3719  0.2752
24564SOL    HW174270   7.594   3.143   0.204  0.8439  0.6897  1.4070
24564SOL    HW274271   7.554   3.004   0.248  1.8076 -1.2269 -3.2038
24565SOL     OW74272   0.840   1.442   9.644  0.3776  0.4847  0.9422
24565SOL    HW174273   0.774   1.377   9.668 -0.9295  0.8865 -1.2679
24565SOL    HW274274   0.798   1.526   9.661  0.2823  0.7467 -0.4629
24566SOL     OW74275   8.291   6.244   4.124  0.0762 -0.3590 -0.6645
24566SOL    HW174276   8.295   6.203   4.037  0.6613  0.3408 -0.9771
24566SOL    HW274277   8.368   6.301   4.128 -0.7745  0.8323 -0.3161
24567SOL     OW74278   7.215   1.865   2.091  0.3114 -0.0844 -0.6747
24567SOL    HW174279   7.282   1.900   2.032  0.7577 -0.9133 -0.6806
24567SOL    HW274280   7.142   1.844   2.034  0.4550 -0.1763 -0.8271
24568SOL     OW74281   9.659   8.526   8.013  0.1319  0.3424  0.1896
24568SOL    HW174282   9.684   8.610   7.975 -0.5835  0.5727  0.2231
24568SOL    HW274283   9.628   8.547   8.101 -1.8820  0.3101 -0.4588
24569SOL     OW74284   7.500   3.523   8.233  0.6257  0.6946 -0.1157
24569SOL    HW174285   7.475   3.610   8.203 -1.9909 -1.1119 -3.9573
24569SOL    HW274286   7.416   3.478   8.247  1.8734 -1.0775  2.6361
24570SOL     OW74287   7.850   0.706   2.720 -0.6044  0.2222  0.4046
24570SOL    HW174288   7.768   0.675   2.680 -0.3317 -1.2721  0.9226
24570SOL    HW274289   7.919   0.674   2.662 -0.3278  0.2021  0.7380
24571SOL     OW74290   0.767   1.973   9.962 -0.2229  0.4886  0.0652
24571SOL    HW174291   0.705   1.978  10.034 -0.3596  0.1507 -0.0291
24571SOL    HW274292   0.720   2.010   9.887 -0.3589  0.1170 -0.0365
24572SOL     OW74293   0.546   5.630   8.133 -0.8189  0.1793 -0.0533
24572SOL    HW174294   0.513   5.563   8.193 -0.4677  0.3769  0.3654
24572SOL    HW274295   0.500   5.613   8.051 -0.3537 -0.9000 -0.1088
24573SOL     OW74296   0.850   1.861   1.972  0.4245  0.3770  0.3451
24573SOL    HW174297   0.874   1.917   2.046 -1.0035  0.8090  0.5130
24573SOL    HW274298   0.784   1.912   1.925 -1.8226 -1.5976  1.1690
24574SOL     OW74299   0.238   7.914   2.185  0.4776  0.3086  0.6983
24574SOL    HW174300   0.175   7.982   2.164  0.8266  0.0876 -1.2311
24574SOL    HW274301   0.220   7.892   2.277 -1.2153  1.3040  0.6458
24575SOL     OW74302   0.227   3.790   9.825 -0.5765 -0.1942 -0.3232
24575SOL    HW174303   0.298   3.737   9.790 -0.4820  0.1886 -0.7148
24575SOL    HW274304   0.155   3.729   9.838  0.2399 -0.8738  1.3722
24576SOL     OW74305   3.429   3.116   2.832  0.2580 -0.4537 -0.1598
24576SOL    HW174306   3.382   3.097   2.751 -1.0499 -0.5926  0.6031
24576SOL    HW274307   3.425   3.212   2.840 -2.6150 -0.6130  1.4082
24577SOL     OW74308   4.059   3.002   5.080  0.6246  0.1476  0.6021
24577SOL    HW174309   3.993   2.935   5.094  1.1507 -0.5019  0.0224
24577SOL    HW274310   4.044   3.065   5.150 -2.1084  1.2582 -0.8363
24578SOL     OW74311   4.735   4.449   1.289  0.1301 -0.5522 -0.2705
24578SOL    HW174312   4.674   4.522   1.277 -0.7575 -0.8535  1.9092
24578SOL    HW274313   4.694   4.376   1.242  0.4347  0.0353 -1.4717
24579SOL     OW74314   7.918   7.192   7.442  0.0342  0.4327 -0.5422
24579SOL    HW174315   7.865   7.245   7.503  0.4075 -0.0673  0.2332
24579SOL    HW274316   7.869   7.195   7.360  0.4732  2.7164 -0.8061
24580SOL     OW74317   5.806   3.337   0.547 -0.1360 -0.3248 -0.5568
24580SOL    HW174318   5.829   3.385   0.467  0.4690 -0.3318 -0.3908
24580SOL    HW274319   5.715   3.310   0.533 -0.4467  0.7664 -0.6941
24581SOL     OW74320   9.468   5.439   4.230  0.2560 -0.5474 -0.1284
24581SOL    HW174321   9.467   5.452   4.136 -1.0464  0.6548  0.0211
24581SOL    HW274322   9.464   5.343   4.241 -1.4486 -0.6484 -1.3021
24582SOL     OW74323   1.116   6.750   3.352 -0.1395 -0.1654 -0.6261
24582SOL    HW174324   1.099   6.658   3.329 -0.7545 -0.0970 -0.4636
24582SOL    HW274325   1.114   6.750   3.448 -0.8839  0.1459 -0.6332
24583SOL     OW74326   3.266   7.643   6.790 -0.3951  0.1481  0.6528
24583SOL    HW174327   3.175   7.628   6.815 -0.5746 -1.5139 -0.7858
24583SOL    HW274328   3.297   7.557   6.761  1.7501  0.5950  1.4200
24584SOL     OW74329   8.069   5.358   5.313  0.1921  0.4255  0.2099
24584SOL    HW174330   8.026   5.399   5.238  0.0318  1.2343  0.7386
24584SOL    HW274331   7.997   5.321   5.365  0.2475  0.4797  0.3256
24585SOL     OW74332   1.944   3.078   4.400 -0.2330 -0.3445 -0.3884
24585SOL    HW174333   1.993   3.104   4.323  0.1117  3.1803  0.8597
24585SOL    HW274334   1.879   3.147   4.413 -2.0275 -2.1415  1.0592
24586SOL     OW74335   0.734   0.104   4.238  0.2888 -0.0629 -0.1705
24586SOL    HW174336   0.663   0.167   4.250 -1.2717 -1.7100 -0.4921
24586SOL    HW274337   0.752   0.070   4.326 -0.1137 -0.4727 -0.2448
24587SOL     OW74338   5.907   1.968   3.727 -0.4133 -0.6370  0.3395
24587SOL    HW174339   5.885   1.885   3.685  2.9550 -1.6605  0.2547
24587SOL    HW274340   5.932   1.943   3.816 -0.5772  0.4756  0.7096
24588SOL     OW74341   9.745   7.878   1.520  0.1383 -0.1372 -0.3410
24588SOL    HW174342   9.835   7.870   1.553 -0.0367 -2.3946 -0.2287
24588SOL    HW274343   9.690   7.856   1.596 -0.5045  0.7987 -0.5256
24589SOL     OW74344   8.879   6.182   1.106 -0.2465  0.6902  0.3050
24589SOL    HW174345   8.935   6.147   1.037  0.5748  3.1481 -0.3843
24589SOL    HW274346   8.814   6.113   1.122  2.7700 -2.2465  1.0226
24590SOL     OW74347   7.316   4.216   2.977  0.5015  0.7060 -0.1001
24590SOL    HW174348   7.231   4.260   2.973 -0.3843 -0.7929  0.9848
24590SOL    HW274349   7.354   4.230   2.890 -0.8929  1.3264 -0.6528
24591SOL     OW74350   5.694   5.370   7.490  0.5006 -0.0242 -0.3422
24591SOL    HW174351   5.729   5.424   7.419  0.5480 -2.8191 -2.6287
24591SOL    HW274352   5.600   5.366   7.472  0.2463  0.5201  0.7606
24592SOL     OW74353   4.865   1.373   8.408  0.3584 -0.3069  0.0497
24592SOL    HW174354   4.798   1.311   8.436 -0.1015  0.2538  0.2188
24592SOL    HW274355   4.947   1.340   8.446 -0.0851 -0.1204  1.2105
24593SOL     OW74356   6.466   7.663   4.071  0.3993  0.2885 -0.5177
24593SOL    HW174357   6.459   7.617   3.987  1.9357 -3.2599  1.0547
24593SOL    HW274358   6.377   7.666   4.105 -0.1046  0.9309 -1.8392
24594SOL     OW74359   3.191   9.503   5.607  0.8099 -0.5707  0.1671
24594SOL    HW174360   3.187   9.506   5.703  0.6329  0.4192  0.1429
24594SOL    HW274361   3.283   9.484   5.588  1.3845  1.5296  0.5446
24595SOL     OW74362   3.738   3.858   7.257  0.1424 -0.0650 -0.2323
24595SOL    HW174363   3.825   3.822   7.238  0.3298  0.5200 -0.4775
24595SOL    HW274364   3.746   3.952   7.243 -0.3942  0.0636  0.2513
24596SOL     OW74365   5.603   4.166   6.826  0.0253 -0.3826  0.4945
24596SOL    HW174366   5.669   4.230   6.852 -1.0880  1.0896 -0.1988
24596SOL    HW274367   5.566   4.200   6.745 -0.8324 -1.7481  0.2667
24597SOL     OW74368   1.741   7.024   6.824  0.1593 -0.0008  0.2830
24597SOL    HW174369   1.755   7.110   6.785  0.7872 -0.0036  0.4972
24597SOL    HW274370   1.692   6.976   6.757 -0.1387  0.4976  0.1351
24598SOL     OW74371   3.713   4.627   8.514 -0.1637  0.7742  0.1965
24598SOL    HW174372   3.682   4.571   8.443  1.8827 -1.2254  0.7542
24598SOL    HW274373   3.635   4.674   8.543 -1.5883 -0.3257 -1.6139
24599SOL     OW74374   0.255   7.649   4.924  0.2200  0.1257  0.4322
24599SOL    HW174375   0.346   7.659   4.950  0.7781 -0.1111 -1.2980
24599SOL    HW274376   0.237   7.556   4.937  0.3015  0.1283  0.5647
24600SOL     OW74377   6.886   8.352   9.553 -0.0452  0.6713  0.6541
24600SOL    HW174378   6.796   8.322   9.564 -0.1769  1.4183  1.8115
24600SOL    HW274379   6.886   8.397   9.469 -0.3150 -0.8077 -0.1679
24601SOL     OW74380   1.310   7.341   8.533  0.4439  0.1211  0.4935
24601SOL    HW174381   1.384   7.402   8.531  0.4369  0.2703 -3.4930
24601SOL    HW274382   1.340   7.266   8.482 -1.7487 -0.2866 -0.3009
24602SOL     OW74383   4.258   9.675   3.196 -0.4517  0.4166 -0.1767
24602SOL    HW174384   4.193   9.719   3.141 -0.3740 -0.8584 -1.3528
24602SOL    HW274385   4.311   9.625   3.134  0.2900 -0.2665  0.9818
24603SOL     OW74386   6.352   4.444   2.025  0.1757  0.2372 -0.0958
24603SOL    HW174387   6.272   4.495   2.038  0.3267  0.1823  1.1420
24603SOL    HW274388   6.323   4.353   2.025  0.1909  0.2321 -0.0195
24604SOL     OW74389   7.178   8.411   1.139  0.2566 -0.3621 -0.3977
24604SOL    HW174390   7.208   8.464   1.065  0.8718  0.3585  0.3508
24604SOL    HW274391   7.218   8.325   1.124  0.7585 -0.0891 -0.6682
24605SOL     OW74392   4.976   4.409   0.508 -0.2621  0.8098  0.1979
24605SOL    HW174393   4.987   4.314   0.510  2.0328  1.0122 -0.4739
24605SOL    HW274394   4.881   4.421   0.508 -0.6750 -1.5384 -1.3787
24606SOL     OW74395   5.582   6.923   7.262 -0.0848 -0.0670  0.4132
24606SOL    HW174396   5.562   7.014   7.285 -2.2897 -0.5336  0.5934
24606SOL    HW274397   5.503   6.892   7.220  1.1956 -1.4860 -1.0455
24607SOL     OW74398   5.846   4.197   4.860 -0.2512 -0.3117  0.0271
24607SOL    HW174399   5.872   4.219   4.950  1.2280  1.1385 -0.6938
24607SOL    HW274400   5.759   4.157   4.869 -0.0948 -0.2959  2.0998
24608SOL     OW74401   4.144   1.513   2.050 -0.1209  0.3344  0.0749
24608SOL    HW174402   4.148   1.475   1.962  0.7319  1.1118 -0.2420
24608SOL    HW274403   4.093   1.594   2.039  1.7019  1.5195 -0.1643
24609SOL     OW74404   7.722   2.403   9.503  0.0412 -0.0973 -0.4062
24609SOL    HW174405   7.806   2.444   9.525  0.5544 -1.8271  1.1608
24609SOL    HW274406   7.697   2.356   9.582 -0.7139 -2.3591 -1.8702
24610SOL     OW74407   0.139   4.298   9.790  0.3173 -0.4879 -0.4487
24610SOL    HW174408   0.076   4.321   9.859 -0.0967  0.3479 -1.0893
24610SOL    HW274409   0.224   4.325   9.825  0.3725 -1.7592  0.4864
24611SOL     OW74410   9.297   1.696   3.659 -0.1045 -0.1284  0.2777
24611SOL    HW174411   9.298   1.602   3.678  0.2814 -0.0172  0.8055
24611SOL    HW274412   9.273   1.738   3.741  0.7878  0.3012  0.3334
24612SOL     OW74413   7.872   1.179   4.725  0.7788 -0.5784 -0.3747
24612SOL    HW174414   7.900   1.090   4.702  1.9908 -0.0903 -0.8180
24612SOL    HW274415   7.943   1.235   4.697  0.7177  0.3994  1.2897
24613SOL     OW74416   2.513   0.249   3.989 -0.2081  0.2533 -0.7191
24613SOL    HW174417   2.513   0.343   3.970  1.9170  0.5326  0.3102
24613SOL    HW274418   2.606   0.226   3.994 -0.6680 -1.5028  0.8617
24614SOL     OW74419   4.857   7.028   2.231 -0.0914  0.0139 -0.0542
24614SOL    HW174420   4.815   7.112   2.212  2.0426  1.0880 -0.3653
24614SOL    HW274421   4.924   7.049   2.296  0.0144 -1.6065  0.3954
24615SOL     OW74422   1.378   6.682   3.633  0.3055 -0.8009  0.1511
24615SOL    HW174423   1.425   6.614   3.584  0.0572 -0.3984 -0.6787
24615SOL    HW274424   1.412   6.764   3.597 -0.4319 -0.5012  0.1165
24616SOL     OW74425   9.143   6.256   9.085  0.6638 -0.1654  0.2775
24616SOL    HW174426   9.208   6.306   9.135  0.1691 -1.6759  2.6026
24616SOL    HW274427   9.067   6.314   9.080  1.0926  0.4124  0.3575
24617SOL     OW74428   0.275   9.896   1.575 -0.1418  0.3295  0.0209
24617SOL    HW174429   0.258   9.885   1.482  0.4262 -2.2933  0.1553
24617SOL    HW274430   0.219   9.832   1.618  0.3557  0.7876  1.4205
24618SOL     OW74431   3.880   3.909   2.209 -0.0899  0.4845  0.2042
24618SOL    HW174432   3.808   3.960   2.246  0.3256  1.1845  0.0668
24618SOL    HW274433   3.879   3.929   2.116  0.6773  1.0033  0.3012
24619SOL     OW74434   5.169   4.280   3.349  0.3160  0.6142  0.1825
24619SOL    HW174435   5.202   4.253   3.435 -1.0429  0.6018  0.7283
24619SOL    HW274436   5.207   4.367   3.335  0.6270  0.5764  0.7637
24620SOL     OW74437   8.281   9.118   0.850 -0.2471 -0.4088 -0.3645
24620SOL    HW174438   8.322   9.050   0.797 -0.0283 -1.1816  0.7667
24620SOL    HW274439   8.312   9.102   0.939  0.3518  1.5869 -0.1634
24621SOL     OW74440   8.731   5.596   3.943  0.1843 -0.3116 -0.7054
24621SOL    HW174441   8.710   5.634   3.858  0.6425 -0.7065 -1.0010
24621SOL    HW274442   8.827   5.599   3.947  0.1441  0.3351  0.0911
24622SOL     OW74443   8.024   5.011   8.096 -0.5397  0.2670 -0.4088
24622SOL    HW174444   7.986   5.094   8.067  0.1808  0.4995 -0.7147
24622SOL    HW274445   8.079   5.034   8.171 -0.9226 -0.0475 -0.0297
24623SOL     OW74446   8.141   6.554   7.835  0.0089 -0.1155  0.8406
24623SOL    HW174447   8.144   6.461   7.812 -0.4377 -0.0704  0.5835
24623SOL    HW274448   8.209   6.564   7.901  1.5675 -0.1949 -0.6814
24624SOL     OW74449   3.993   9.407   0.524 -0.1647  0.2726 -0.3213
24624SOL    HW174450   4.017   9.383   0.434  2.0591 -0.8084  0.4993
24624SOL    HW274451   4.052   9.357   0.579 -2.2498  0.0046  1.8465
24625SOL     OW74452   0.283   3.274   7.097  0.1270 -0.1855 -0.1852
24625SOL    HW174453   0.191   3.298   7.099  0.0371 -0.5259 -0.2105
24625SOL    HW274454   0.324   3.341   7.043 -0.1032 -0.0240 -0.1614
24626SOL     OW74455   1.507   8.676   0.897  0.1194  0.0900  0.0682
24626SOL    HW174456   1.533   8.654   0.986  0.3342  1.2834  0.3163
24626SOL    HW274457   1.457   8.600   0.867 -0.3637 -0.1347  1.3717
24627SOL     OW74458   7.197   6.427   9.095 -0.5710 -0.1403  0.0717
24627SOL    HW174459   7.216   6.334   9.105 -0.2527 -0.0736  0.0843
24627SOL    HW274460   7.159   6.434   9.007 -2.1727 -0.5296  0.7044
24628SOL     OW74461   0.017   5.820   5.472 -0.4269  0.3462 -0.1823
24628SOL    HW174462   0.112   5.830   5.480 -0.6850  1.1093  4.3965
24628SOL    HW274463  -0.009   5.889   5.410  1.8144  1.5843  0.1512
24629SOL     OW74464   2.283   6.329   0.504 -0.2563  0.1131 -0.2671
24629SOL    HW174465   2.323   6.390   0.442  1.1388 -0.6345 -0.1234
24629SOL    HW274466   2.285   6.375   0.587 -1.4756  0.8290 -0.5976
24630SOL     OW74467   6.775   7.128   7.624 -0.2730  0.0373  0.3198
24630SOL    HW174468   6.703   7.142   7.563  1.8541  0.9294 -2.2116
24630SOL    HW274469   6.841   7.192   7.597  2.4984 -2.4489  0.7001
24631SOL     OW74470   1.905   3.980   6.682  0.1249  0.0275  0.3105
24631SOL    HW174471   1.935   3.904   6.732  0.3300  0.0197  0.1780
24631SOL    HW274472   1.959   3.980   6.603 -2.9116 -2.4329 -2.0365
24632SOL     OW74473   7.435   0.615   9.547 -0.1304  0.1854  0.1576
24632SOL    HW174474   7.367   0.561   9.589  0.1516  1.2725  2.1408
24632SOL    HW274475   7.517   0.581   9.581  0.3745 -0.9188 -1.9944
24633SOL     OW74476   1.433   8.319   4.325  0.6687  0.0637 -0.0681
24633SOL    HW174477   1.427   8.297   4.418 -2.5857  0.6770 -0.0183
24633SOL    HW274478   1.405   8.410   4.319 -0.8804 -0.4508 -1.7713
24634SOL     OW74479   7.076   5.964   3.864 -0.1447 -0.2628 -0.2213
24634SOL    HW174480   7.066   6.056   3.841  0.9586 -0.0681  0.0026
24634SOL    HW274481   7.034   5.955   3.950  0.5591  0.2551  0.1891
24635SOL     OW74482   2.800   1.477   8.911 -0.5004 -0.1508  0.3919
24635SOL    HW174483   2.793   1.570   8.931  1.4606  0.7291 -2.3765
24635SOL    HW274484   2.740   1.465   8.837 -0.4136 -0.9921  0.4510
24636SOL     OW74485   9.937   5.746   4.951 -0.0663  0.0603 -0.2383
24636SOL    HW174486   9.848   5.715   4.934  0.0469 -0.5391  0.2388
24636SOL    HW274487   9.984   5.726   4.870 -0.2028 -0.2448 -0.2466
24637SOL     OW74488   0.046   7.014   8.532  0.0036  0.1465  0.4231
24637SOL    HW174489   0.007   6.962   8.462  0.0844 -0.7928  1.0530
24637SOL    HW274490  -0.025   7.073   8.560  0.3137  1.3464 -1.1844
24638SOL     OW74491   2.477   9.466   5.495 -0.2853 -0.2836 -0.0077
24638SOL    HW174492   2.436   9.398   5.442 -0.9092  0.1831 -0.1316
24638SOL    HW274493   2.520   9.418   5.566 -1.2341 -0.7796  0.2546
24639SOL     OW74494   9.955   6.612   6.823  0.3589  0.0258  0.3865
24639SOL    HW174495   9.978   6.562   6.902  1.6917 -0.2052 -0.1248
24639SOL    HW274496   9.964   6.704   6.850 -1.2660  0.0301  1.0803
24640SOL     OW74497   5.284   4.336   9.294 -0.6326  0.1180  1.0488
24640SOL    HW174498   5.242   4.314   9.210  1.0516 -0.3534  0.2995
24640SOL    HW274499   5.306   4.429   9.285 -0.9520  0.2112  1.2040
24641SOL     OW74500   4.362   8.812   2.030 -0.1142 -0.5411 -0.3434
24641SOL    HW174501   4.340   8.750   1.960  1.6152 -0.0256 -1.4102
24641SOL    HW274502   4.395   8.757   2.101 -0.2637 -0.9651 -0.6002
24642SOL     OW74503   0.773   0.510   2.328 -0.0177  0.2541  0.5192
24642SOL    HW174504   0.852   0.455   2.335  1.2687  1.9885  0.3670
24642SOL    HW274505   0.728   0.478   2.250  0.6721 -0.5923  0.4512
24643SOL     OW74506   9.911   8.458   3.588  0.7168  0.5376  0.3049
24643SOL    HW174507   9.866   8.484   3.508  1.3801 -1.4207 -0.7607
24643SOL    HW274508   9.841   8.430   3.647  0.3349  0.2563 -0.2763
24644SOL     OW74509   2.563   8.323   7.750  0.1543  0.6085 -0.4256
24644SOL    HW174510   2.499   8.253   7.741 -0.8033  1.1272  1.8080
24644SOL    HW274511   2.520   8.388   7.805  2.3042  1.3478  0.4902
24645SOL     OW74512   4.287   2.351   3.423 -0.3445 -0.1585  0.2539
24645SOL    HW174513   4.326   2.354   3.336 -1.6977 -1.0459 -0.4089
24645SOL    HW274514   4.302   2.262   3.454  0.9108  0.3832  1.3481
24646SOL     OW74515   3.493   7.070   9.114 -0.9982  0.1095 -0.4958
24646SOL    HW174516   3.522   7.160   9.125 -0.6009  0.4622 -3.5631
24646SOL    HW274517   3.560   7.017   9.157 -0.1600  1.2270 -0.3964
24647SOL     OW74518   3.203   7.512   0.359 -0.2473  0.2036 -0.3975
24647SOL    HW174519   3.135   7.455   0.322 -0.3392  0.1655 -0.1735
24647SOL    HW274520   3.161   7.551   0.436  0.2040 -0.3275  0.1257
24648SOL     OW74521   8.139   7.869   3.946 -0.0139  0.5902  0.5862
24648SOL    HW174522   8.092   7.819   3.880 -1.1492  0.8986  1.1423
24648SOL    HW274523   8.170   7.947   3.900  0.9773 -0.1487 -0.0583
24649SOL     OW74524   9.147   2.591   2.445  0.3393  0.5141  0.6243
24649SOL    HW174525   9.175   2.516   2.497 -0.8188 -0.2284  0.2185
24649SOL    HW274526   9.078   2.632   2.497 -0.2428  0.2643  0.0590
24650SOL     OW74527   3.392   7.755   3.891 -0.0696 -0.2256  0.0565
24650SOL    HW174528   3.317   7.767   3.951  0.0148  1.1782 -0.0879
24650SOL    HW274529   3.428   7.843   3.880  0.1368 -0.5112 -1.7946
24651SOL     OW74530   3.284   8.848   2.183 -0.5644  0.0507  0.5893
24651SOL    HW174531   3.230   8.840   2.261  0.7138 -0.3294  1.4780
24651SOL    HW274532   3.357   8.905   2.210 -0.2217  0.0908 -0.3809
24652SOL     OW74533   9.008   8.819   6.329  0.0563 -0.0356  0.4842
24652SOL    HW174534   9.058   8.824   6.410 -0.3725 -0.4306  0.7805
24652SOL    HW274535   9.006   8.909   6.296  1.1305 -0.0559  0.3523
24653SOL     OW74536   2.845   1.590   2.764  0.9712 -0.4153  0.8289
24653SOL    HW174537   2.794   1.510   2.767 -1.0821  0.7063 -1.0538
24653SOL    HW274538   2.936   1.561   2.767  0.4177 -3.0740 -2.3668
24654SOL     OW74539   6.417   0.496   9.379 -0.2856 -0.1764  0.3639
24654SOL    HW174540   6.422   0.456   9.466  1.7118 -0.0342  0.3669
24654SOL    HW274541   6.451   0.428   9.320  1.4356  0.8319  0.1416
24655SOL     OW74542   6.958   6.045   0.888 -0.2237  0.2340 -0.2073
24655SOL    HW174543   6.951   6.005   0.801 -2.1468  1.5507 -0.7411
24655SOL    HW274544   6.960   6.139   0.870 -0.7075  0.5254  1.1729
24656SOL     OW74545   9.439   4.105   4.893 -0.2090 -0.4304 -0.2594
24656SOL    HW174546   9.499   4.138   4.960 -0.0463 -2.9185  0.9146
24656SOL    HW274547   9.459   4.158   4.815  3.5578 -1.1529  0.0391
24657SOL     OW74548   7.162   5.229   6.984 -0.4404  0.1153 -0.2442
24657SOL    HW174549   7.078   5.215   6.939 -1.0669  1.5218  0.4251
24657SOL    HW274550   7.171   5.153   7.041 -1.5089  0.1751  0.0336
24658SOL     OW74551   6.768   3.707   6.450  0.3267  0.0597  0.2279
24658SOL    HW174552   6.797   3.623   6.486 -1.4989 -0.7770 -0.1230
24658SOL    HW274553   6.673   3.698   6.445  0.0613  2.2936  0.5106
24659SOL     OW74554   1.099   0.249   1.745  0.2608 -1.0536 -1.0402
24659SOL    HW174555   1.050   0.209   1.673 -0.4716  0.5822 -1.4923
24659SOL    HW274556   1.041   0.243   1.821 -1.2287  1.8572 -1.8178
24660SOL     OW74557   9.813   4.773   7.141  0.2363 -0.2798 -0.3765
24660SOL    HW174558   9.775   4.794   7.056  1.1557 -1.8465 -1.2066
24660SOL    HW274559   9.795   4.680   7.154 -0.6712  0.1117  1.5773
24661SOL     OW74560   9.124   5.867   1.648 -0.1943 -0.0051 -0.4359
24661SOL    HW174561   9.184   5.900   1.715 -0.2034 -0.7499 -0.0581
24661SOL    HW274562   9.042   5.912   1.664 -1.1295 -2.3334  1.9891
24662SOL     OW74563   9.465   9.082   9.291  0.2318 -0.4151 -0.8593
24662SOL    HW174564   9.434   9.172   9.278 -0.4097 -0.5498 -0.3050
24662SOL    HW274565   9.386   9.032   9.310  0.8477 -0.5917  1.5366
24663SOL     OW74566   6.357   6.651   9.013  0.3040  0.4193  0.1009
24663SOL    HW174567   6.319   6.591   8.949 -1.1462  1.3324  0.0446
24663SOL    HW274568   6.418   6.597   9.064 -0.6135 -0.9823 -0.2309
24664SOL     OW74569   8.917   5.070   0.139 -0.5236 -0.5193  0.0874
24664SOL    HW174570   8.826   5.042   0.138 -0.5781 -0.4040  0.8101
24664SOL    HW274571   8.958   5.016   0.207 -0.0663 -0.5350 -0.1968
24665SOL     OW74572   7.363   5.335   1.412  0.3720  0.2376 -0.4956
24665SOL    HW174573   7.403   5.289   1.338  1.4022 -2.5003  1.5777
24665SOL    HW274574   7.435   5.350   1.473 -0.6067  1.5789  0.4065
24666SOL     OW74575   3.199   3.580   9.007  0.5199  0.5371 -0.0135
24666SOL    HW174576   3.126   3.621   8.960 -0.2401  0.4927  1.0775
24666SOL    HW274577   3.275   3.591   8.949 -0.3630  0.5213 -1.2000
24667SOL     OW74578   8.395   2.450   9.730  0.0899 -0.2598 -0.6905
24667SOL    HW174579   8.405   2.487   9.642 -0.7246  0.6913 -0.3979
24667SOL    HW274580   8.313   2.403   9.727 -0.0254 -0.0804 -0.3943
24668SOL     OW74581   1.486   7.911   1.249  0.3247 -0.2032  0.1142
24668SOL    HW174582   1.526   7.847   1.308  0.3940 -0.1364  0.1391
24668SOL    HW274583   1.392   7.902   1.263  0.2338 -1.4615 -1.0521
24669SOL     OW74584   9.631   8.018   4.272 -0.0339  0.6487  0.3899
24669SOL    HW174585   9.541   7.998   4.248  0.8281  0.5999 -3.5049
24669SOL    HW274586   9.643   8.110   4.245  1.1168  0.6015  0.6986
24670SOL     OW74587   1.006   7.293   0.591  0.1744  0.3158  0.5891
24670SOL    HW174588   0.955   7.363   0.631 -0.8955  0.0684 -0.2859
24670SOL    HW274589   1.096   7.310   0.618 -0.3822  0.5450  2.5182
24671SOL     OW74590   4.442   5.072   3.459 -0.4424  0.8646 -0.4333
24671SOL    HW174591   4.378   5.143   3.460 -0.7420  0.5937  0.1680
24671SOL    HW274592   4.522   5.112   3.495 -0.6473  0.8645  0.0235
24672SOL     OW74593   3.406   1.107   3.556 -0.3251 -0.2187 -0.0500
24672SOL    HW174594   3.365   1.135   3.638 -0.8519  1.0888 -0.7286
24672SOL    HW274595   3.341   1.128   3.488 -1.0617 -3.6883 -0.6420
24673SOL     OW74596   8.390   3.266   3.896 -0.2500  0.5573  0.3454
24673SOL    HW174597   8.445   3.342   3.876 -0.1733  0.4720  0.2326
24673SOL    HW274598   8.319   3.301   3.950 -0.8944  0.9355 -0.7139
24674SOL     OW74599   1.516   8.172   5.524 -0.0337 -0.1016 -0.1104
24674SOL    HW174600   1.541   8.262   5.504  0.6731 -0.3164 -0.2360
24674SOL    HW274601   1.433   8.180   5.572  0.6648  0.7052  1.0206
24675SOL     OW74602   1.544   4.544   4.410 -0.3582  0.4282  0.0642
24675SOL    HW174603   1.524   4.485   4.482 -2.0622  0.6880 -0.1514
24675SOL    HW274604   1.616   4.501   4.363  0.7978  0.2723  1.8959
24676SOL     OW74605   0.891   8.509   7.633  0.0871  0.2265  0.3492
24676SOL    HW174606   0.878   8.435   7.693 -0.7181  0.2892  0.2629
24676SOL    HW274607   0.813   8.563   7.645 -1.6072 -1.2028 -2.7928
24677SOL     OW74608   7.056   4.107   1.775  0.2486 -0.4869  0.8302
24677SOL    HW174609   7.044   4.024   1.821 -0.5891 -0.8125  0.0447
24677SOL    HW274610   6.996   4.103   1.701  1.2080  0.2408 -0.0245
24678SOL     OW74611   8.940   5.636   8.784 -0.2997  0.3569 -0.4190
24678SOL    HW174612   8.932   5.541   8.781  1.6846  0.1531 -0.5969
24678SOL    HW274613   8.850   5.667   8.792 -0.9795 -1.5294 -0.1369
24679SOL     OW74614   4.491   9.500   8.524  0.7454 -0.0924 -0.6163
24679SOL    HW174615   4.553   9.573   8.529  1.2399 -0.4616 -1.2458
24679SOL    HW274616   4.405   9.541   8.523  0.9885  0.4406 -0.0885
24680SOL     OW74617   8.944   0.779   0.535  0.2840 -0.2216 -0.1558
24680SOL    HW174618   8.940   0.875   0.529 -0.8600 -0.0962  1.8855
24680SOL    HW274619   9.024   0.756   0.487  0.7911  1.7812 -0.3698
24681SOL     OW74620   5.759   7.910   0.582  0.0751  0.3891  0.0011
24681SOL    HW174621   5.715   7.925   0.666 -1.6950 -0.1653 -0.7843
24681SOL    HW274622   5.852   7.906   0.604 -0.1864  2.0254  1.6814
24682SOL     OW74623   8.256   9.193   5.541  0.0893 -0.0461  0.0234
24682SOL    HW174624   8.312   9.131   5.493  0.9370  1.4013 -0.9530
24682SOL    HW274625   8.205   9.236   5.473 -0.1955  0.6068  0.6400
24683SOL     OW74626   0.172   2.695   9.748  0.4786 -0.5381 -0.0280
24683SOL    HW174627   0.139   2.774   9.791  0.8390 -0.0177 -0.6936
24683SOL    HW274628   0.097   2.661   9.699  0.3785 -0.4939  0.0949
24684SOL     OW74629   1.222   4.225   0.009 -0.5989 -0.4784 -0.9084
24684SOL    HW174630   1.164   4.149   0.011 -1.0730 -0.1562 -1.7056
24684SOL    HW274631   1.310   4.189   0.010 -0.8228 -1.0076 -0.4678
24685SOL     OW74632   1.358   4.253   7.084 -0.0741 -0.1116 -0.2979
24685SOL    HW174633   1.426   4.320   7.095  1.3294 -1.2611 -1.5458
24685SOL    HW274634   1.284   4.301   7.046  0.1063  1.1114  0.8058
24686SOL     OW74635   3.844   2.311   3.153  0.2028 -0.0220  0.1885
24686SOL    HW174636   3.759   2.280   3.125  0.8154 -2.4218  0.7380
24686SOL    HW274637   3.829   2.348   3.240 -0.4127  0.3648 -0.0803
24687SOL     OW74638   5.432   0.148   0.467 -0.2727  0.0203 -0.3247
24687SOL    HW174639   5.468   0.220   0.518  2.3754 -0.5559 -1.2161
24687SOL    HW274640   5.357   0.186   0.421  0.3561  1.8959  0.1141
24688SOL     OW74641   1.028   4.340   3.481 -0.1958  0.1654  0.0896
24688SOL    HW174642   1.020   4.385   3.397  0.7722 -0.5491 -0.3963
24688SOL    HW274643   0.998   4.405   3.545 -0.4171  0.9164 -0.7445
24689SOL     OW74644   6.993   9.623   4.865  0.1367 -0.6282  0.3213
24689SOL    HW174645   7.023   9.533   4.879 -1.0161 -1.1912 -0.7015
24689SOL    HW274646   6.940   9.643   4.942  1.5302 -0.2946  1.2317
24690SOL     OW74647   2.191   1.316   7.409  0.2513 -0.1778 -0.3255
24690SOL    HW174648   2.226   1.403   7.389  0.8135 -0.3641 -0.1739
24690SOL    HW274649   2.257   1.276   7.466 -0.3171 -0.4609  0.1398
24691SOL     OW74650   2.103   4.590   2.920  0.0680  0.7396 -0.0026
24691SOL    HW174651   2.011   4.603   2.898  0.2595  0.1515 -1.2284
24691SOL    HW274652   2.105   4.508   2.969 -0.0208  0.5446 -0.3212
24692SOL     OW74653   0.388   6.432   9.565  0.8499  1.0785 -0.2706
24692SOL    HW174654   0.454   6.364   9.555 -0.8047 -0.9555  1.5247
24692SOL    HW274655   0.314   6.387   9.607 -1.1891  3.5079 -0.9960
24693SOL     OW74656   9.430   1.459   6.901 -0.3301 -0.2291 -0.0305
24693SOL    HW174657   9.495   1.448   6.831 -2.9421 -0.1934 -2.6723
24693SOL    HW274658   9.439   1.380   6.954 -0.2043 -1.8286 -2.2434
24694SOL     OW74659   8.085   0.058   8.859  0.2842 -0.1416  0.3731
24694SOL    HW174660   8.041   0.127   8.808  1.1773  0.1524 -0.0160
24694SOL    HW274661   8.013   0.001   8.888 -0.3317  0.1671 -0.4848
24695SOL     OW74662   1.949   4.344   2.059  0.0683 -0.3146 -0.2295
24695SOL    HW174663   1.940   4.411   1.991 -3.2248  0.6831  0.9911
24695SOL    HW274664   1.991   4.271   2.014 -0.8768  0.7164 -3.0398
24696SOL     OW74665   4.901   4.018   8.509  0.3214  0.0936  0.6485
24696SOL    HW174666   4.958   4.036   8.434  0.7989  0.7627  1.1683
24696SOL    HW274667   4.940   3.940   8.550 -1.3281 -1.8106 -1.1734
24697SOL     OW74668   9.660   1.077   5.412 -0.5272 -0.0051  0.0721
24697SOL    HW174669   9.618   1.134   5.476 -1.4869 -1.2969  0.6354
24697SOL    HW274670   9.587   1.042   5.360 -0.0211 -1.1604  0.1141
24698SOL     OW74671   1.474   3.809   0.490  0.5482 -0.4690 -1.0075
24698SOL    HW174672   1.454   3.903   0.494 -0.0298 -0.5749 -1.3018
24698SOL    HW274673   1.561   3.801   0.529  0.0740  0.0365  0.2215
24699SOL     OW74674   9.268   8.074   5.643 -0.2310 -0.4389  0.1279
24699SOL    HW174675   9.309   8.154   5.609 -1.5336 -0.7091 -2.3105
24699SOL    HW274676   9.341   8.020   5.672  0.7617  1.1056  0.6517
24700SOL     OW74677   6.750   1.690   3.432 -0.2723 -0.0506  0.1187
24700SOL    HW174678   6.843   1.671   3.420 -0.3523 -1.5203  1.5425
24700SOL    HW274679   6.741   1.780   3.402  1.6688  0.2288  0.2066
24701SOL     OW74680   4.083   7.828   8.007 -0.3503  0.0467 -0.0751
24701SOL    HW174681   4.175   7.804   8.020  0.0411 -0.0986 -2.6813
24701SOL    HW274682   4.064   7.890   8.078  2.0558  0.8253 -0.0280
24702SOL     OW74683   7.494   5.964   9.191  0.0096 -0.4006  0.2221
24702SOL    HW174684   7.438   5.914   9.251  0.8663 -0.3175  1.1044
24702SOL    HW274685   7.571   5.909   9.178 -0.0645 -0.3215 -0.6500
24703SOL     OW74686   1.382   3.901   4.562 -0.3581  0.0115 -0.2870
24703SOL    HW174687   1.407   3.855   4.482  0.6368 -0.0667  0.0494
24703SOL    HW274688   1.454   3.883   4.623 -0.0650  1.7870 -0.0550
24704SOL     OW74689   6.778   2.356   0.895  0.5347  0.7372 -0.6384
24704SOL    HW174690   6.789   2.321   0.807  1.0032  1.9705 -1.1043
24704SOL    HW274691   6.684   2.364   0.907  0.4734  0.8993 -1.1845
24705SOL     OW74692   0.011   6.052   7.109 -0.4144 -0.8351 -0.2386
24705SOL    HW174693   0.022   6.089   7.021  0.3518  2.9410  1.2873
24705SOL    HW274694   0.100   6.035   7.139 -0.6273 -1.3074  0.1310
24706SOL     OW74695   9.445   4.939   6.541  0.3667 -0.6004 -0.4795
24706SOL    HW174696   9.446   5.023   6.587  3.9154 -0.3073 -0.8043
24706SOL    HW274697   9.378   4.887   6.586  1.3094  0.8301  2.8326
24707SOL     OW74698   6.423   0.507   3.380  0.1718 -0.3094  0.3257
24707SOL    HW174699   6.422   0.519   3.475  2.6743 -2.2727  0.7123
24707SOL    HW274700   6.502   0.552   3.351  0.8140 -1.8617 -0.4247
24708SOL     OW74701   7.327   1.470   9.530 -0.0385  0.5250  0.7370
24708SOL    HW174702   7.382   1.544   9.556  0.4407  0.6493 -0.5889
24708SOL    HW274703   7.388   1.404   9.499 -0.6053  0.4439 -0.2247
24709SOL     OW74704   1.122   3.796   3.923 -0.2530  0.3066  0.2825
24709SOL    HW174705   1.085   3.719   3.879 -1.1438  0.3134  0.9889
24709SOL    HW274706   1.181   3.834   3.859 -0.7799 -0.2363 -0.5458
24710SOL     OW74707   5.656   9.535   0.428 -0.4430  0.1411 -0.2695
24710SOL    HW174708   5.567   9.569   0.417 -1.0500 -1.5480 -0.9260
24710SOL    HW274709   5.657   9.499   0.516 -0.3527  0.3125 -0.2004
24711SOL     OW74710   6.404   6.850   0.428 -0.2843  0.1623  0.1802
24711SOL    HW174711   6.393   6.759   0.401 -0.5630  1.0232 -2.9263
24711SOL    HW274712   6.459   6.889   0.361 -0.3030  2.3496  1.3366
24712SOL     OW74713   0.039   9.322   8.587 -0.4716 -0.3617  0.4307
24712SOL    HW174714   0.078   9.244   8.627 -0.1126  0.9459  2.8276
24712SOL    HW274715   0.011   9.293   8.500  0.6176 -2.8554  0.8223
24713SOL     OW74716   8.331   1.492   4.455 -0.2718  0.2027  0.2633
24713SOL    HW174717   8.263   1.505   4.389  1.0717  3.3119 -0.6834
24713SOL    HW274718   8.368   1.406   4.435 -1.2267  0.2065 -1.7658
24714SOL     OW74719   1.388   5.266   6.814 -0.4729 -0.3217 -0.0042
24714SOL    HW174720   1.336   5.277   6.894  0.0285 -0.7484  0.3934
24714SOL    HW274721   1.449   5.339   6.816 -0.7886 -0.0515 -0.2568
24715SOL     OW74722   5.729   1.455   7.695 -0.1642  0.0302 -0.3904
24715SOL    HW174723   5.778   1.401   7.633 -0.8409  0.2001 -1.1018
24715SOL    HW274724   5.749   1.418   7.781 -0.1855 -1.0071 -0.8169
24716SOL     OW74725   7.160   7.020   3.202  0.2342 -0.0881 -0.0369
24716SOL    HW174726   7.204   7.103   3.220  0.2309 -0.0101 -0.3923
24716SOL    HW274727   7.091   7.015   3.268 -0.3766  0.6424 -0.6071
24717SOL     OW74728   6.531   6.853   9.095 -0.4498  0.0056  0.1844
24717SOL    HW174729   6.471   6.779   9.085  2.7823 -2.9126  0.5934
24717SOL    HW274730   6.544   6.862   9.189  1.5600 -1.1947  0.1023
24718SOL     OW74731   3.649   5.420   5.343  0.0137 -0.7250 -0.4882
24718SOL    HW174732   3.724   5.418   5.402 -1.8778  1.0858  2.2042
24718SOL    HW274733   3.662   5.498   5.290 -0.3268  0.0819  0.5778
24719SOL     OW74734   5.058   3.198   1.335  0.4076  0.6746  0.2184
24719SOL    HW174735   5.134   3.225   1.385  1.8856 -0.6155 -1.2326
24719SOL    HW274736   5.021   3.280   1.301  1.9503  1.2405 -0.1662
24720SOL     OW74737   8.618   2.383   9.882  0.3722  0.4505 -0.1557
24720SOL    HW174738   8.684   2.368   9.814  0.0693 -0.0491 -0.3425
24720SOL    HW274739   8.539   2.407   9.834  0.4888  1.3706  0.0807
24721SOL     OW74740   6.348   2.329   6.293 -0.4813 -0.2311 -0.1000
24721SOL    HW174741   6.329   2.423   6.293 -2.2477 -0.5467  1.4398
24721SOL    HW274742   6.438   2.323   6.326 -1.1152  0.8356  1.9982
24722SOL     OW74743   7.550   3.881   4.729  0.7521 -0.3038  0.4255
24722SOL    HW174744   7.613   3.908   4.795  0.5832  0.0791  0.4323
24722SOL    HW274745   7.537   3.959   4.675  0.6321 -0.5154  0.1484
24723SOL     OW74746   9.943   6.887   4.759 -0.3081  0.7364  0.3869
24723SOL    HW174747   9.897   6.872   4.842  0.9588  0.5625  1.0881
24723SOL    HW274748   9.882   6.857   4.692 -1.5573  1.3536  1.2178
24724SOL     OW74749   5.921   5.202   0.926 -0.5692  0.5111 -0.0157
24724SOL    HW174750   5.908   5.218   1.020 -1.7373  0.1521 -0.1030
24724SOL    HW274751   6.009   5.167   0.920 -0.1944  1.2532  0.8640
24725SOL     OW74752   2.353   4.960   6.287  0.0386  0.1869 -0.2504
24725SOL    HW174753   2.281   5.014   6.320 -1.6156 -2.9959  1.8780
24725SOL    HW274754   2.311   4.899   6.227  0.5437 -2.4675  1.8777
24726SOL     OW74755   0.628   4.807   9.617 -0.2647 -0.2766  0.0029
24726SOL    HW174756   0.680   4.728   9.625 -0.9072 -0.6004  1.1834
24726SOL    HW274757   0.691   4.879   9.625  0.1833 -0.6602 -0.0711
24727SOL     OW74758   2.912   0.411   2.937 -0.0547  0.6448  0.4671
24727SOL    HW174759   2.872   0.459   2.864  0.0081  0.9913  0.6589
24727SOL    HW274760   2.868   0.446   3.015 -0.3847  0.0157  0.5712
24728SOL     OW74761   1.511   1.440   8.984  0.4923 -0.6463 -0.3191
24728SOL    HW174762   1.529   1.439   9.078 -0.4747 -0.1567 -0.1096
24728SOL    HW274763   1.466   1.524   8.970  1.8402 -0.0852 -1.4687
24729SOL     OW74764   0.698   2.563   4.013 -0.0489  0.2496 -0.0336
24729SOL    HW174765   0.787   2.584   3.985 -0.1338  0.3320 -0.2424
24729SOL    HW274766   0.694   2.593   4.104 -0.3078  1.6030 -0.4593
24730SOL     OW74767   1.172   2.510   5.744 -0.1106  0.1636  0.2706
24730SOL    HW174768   1.168   2.601   5.716 -0.2384  0.2947  0.7039
24730SOL    HW274769   1.180   2.460   5.663 -1.0264  0.4989 -0.0323
24731SOL     OW74770   5.232   1.293   4.078 -0.0602 -0.6750  0.1166
24731SOL    HW174771   5.208   1.200   4.068 -0.4888 -0.6143  0.5491
24731SOL    HW274772   5.149   1.339   4.076  0.0847 -0.3804  0.8004
24732SOL     OW74773   6.327   1.193   1.995 -0.6629 -0.0861  0.2673
24732SOL    HW174774   6.232   1.187   1.986 -0.4365 -1.1399 -2.5073
24732SOL    HW274775   6.351   1.265   1.936  0.4110 -1.2432 -0.7481
24733SOL     OW74776   0.297   3.021   2.531 -0.0904  0.3977  0.0734
24733SOL    HW174777   0.342   2.949   2.487 -1.8203 -0.6641 -0.0667
24733SOL    HW274778   0.367   3.078   2.561  1.3203 -1.0486 -0.3095
24734SOL     OW74779   3.853   3.992   3.654 -0.4557 -0.1672  0.7874
24734SOL    HW174780   3.877   3.899   3.657  0.2862 -0.0074  0.0980
24734SOL    HW274781   3.868   4.022   3.744  2.5715  0.0407  0.3374
24735SOL     OW74782   4.662   6.074   6.000 -0.3763 -0.2777  0.0026
24735SOL    HW174783   4.743   6.123   5.986 -0.0777 -0.8093 -0.1985
24735SOL    HW274784   4.659   6.060   6.094 -0.5086  0.1969  0.0706
24736SOL     OW74785   3.968   9.514   1.279  0.4819  0.5684 -0.5775
24736SOL    HW174786   4.016   9.515   1.362 -0.3383 -0.7553 -0.0598
24736SOL    HW274787   3.884   9.474   1.301 -0.2050  1.2888 -1.8171
24737SOL     OW74788   4.013   0.719   5.214 -0.2987  0.3197 -0.1525
24737SOL    HW174789   4.058   0.636   5.227 -0.2177  0.5981  1.4869
24737SOL    HW274790   4.021   0.736   5.120  2.1238 -0.1329 -0.0956
24738SOL     OW74791   2.153   7.896   7.498  0.5072 -0.2861  0.4272
24738SOL    HW174792   2.180   7.985   7.474 -1.1403 -0.4703 -2.5585
24738SOL    HW274793   2.099   7.908   7.577 -0.8457  1.6027 -0.7077
24739SOL     OW74794   7.104   8.042   1.306  0.3171  0.0822 -0.3388
24739SOL    HW174795   7.026   7.999   1.341  0.4175  0.1023 -0.0928
24739SOL    HW274796   7.149   8.077   1.383 -0.0231  1.0757 -0.5712
24740SOL     OW74797   9.087   7.048   0.637  0.1896 -0.0158  0.4092
24740SOL    HW174798   9.142   7.073   0.711  0.5589  1.6476 -0.3952
24740SOL    HW274799   9.059   7.131   0.599 -1.3329 -0.8369 -0.3480
24741SOL     OW74800   1.853   1.451   6.787  0.1704  0.1010 -0.2535
24741SOL    HW174801   1.878   1.377   6.843  1.0281  0.8294  0.3551
24741SOL    HW274802   1.920   1.454   6.719 -1.1259 -1.0681 -1.6448
24742SOL     OW74803   0.493   6.945   8.541 -0.4177  0.1820  0.0901
24742SOL    HW174804   0.438   6.882   8.494  0.3491 -1.0984  0.8658
24742SOL    HW274805   0.432   7.016   8.565 -0.6657  1.4457 -3.6180
24743SOL     OW74806   6.318   9.692   8.597  0.5277  0.5674  0.0177
24743SOL    HW174807   6.355   9.678   8.684 -0.0427 -0.6981  0.0761
24743SOL    HW274808   6.240   9.745   8.613  0.2262  0.0369  0.3220
24744SOL     OW74809   2.609   3.547   7.884  0.2487 -0.9955  0.6601
24744SOL    HW174810   2.547   3.587   7.946 -0.8650  1.3594 -1.7413
24744SOL    HW274811   2.671   3.617   7.864  0.4073 -1.5628 -1.0243
24745SOL     OW74812   9.117   9.867   0.773 -0.3185  0.1193 -0.2225
24745SOL    HW174813   9.116   9.772   0.779  2.4534  0.0421  0.3240
24745SOL    HW274814   9.074   9.897   0.854 -4.9643 -0.4786 -2.1831
24746SOL     OW74815   3.351   0.710   3.418 -0.0600 -0.0627  0.0611
24746SOL    HW174816   3.327   0.716   3.326 -0.6878  0.5261  0.2512
24746SOL    HW274817   3.299   0.637   3.451  0.1963 -0.3002 -0.0593
24747SOL     OW74818   9.611   3.489   7.503  0.5737  0.0727 -0.4281
24747SOL    HW174819   9.643   3.553   7.440  0.0450  1.0581  0.2726
24747SOL    HW274820   9.686   3.432   7.520  1.2429  0.8930 -0.5825
24748SOL     OW74821   5.706   0.120   9.032 -0.0285 -0.1291  0.0144
24748SOL    HW174822   5.675   0.197   8.984 -1.2045  0.1161  1.1233
24748SOL    HW274823   5.738   0.154   9.115  3.0244 -0.4245 -0.9420
24749SOL     OW74824   9.445   6.730   0.243  0.5812  1.0535 -0.3497
24749SOL    HW174825   9.457   6.676   0.322 -0.4108 -0.3418 -1.0955
24749SOL    HW274826   9.390   6.803   0.272  0.6885  0.8513  0.3812
24750SOL     OW74827   6.253   5.265   7.829 -0.0616  0.1349  0.1188
24750SOL    HW174828   6.247   5.341   7.770  1.5625  1.9280  2.1119
24750SOL    HW274829   6.346   5.246   7.835 -0.4123 -1.8719 -0.0473
24751SOL     OW74830   3.392   4.679   9.711  0.0884 -0.2165  0.5504
24751SOL    HW174831   3.409   4.686   9.617  0.2669 -0.1294  0.5870
24751SOL    HW274832   3.433   4.758   9.748 -0.0503 -0.2105  0.6910
24752SOL     OW74833   2.824   1.916   7.427 -0.1039 -0.1234 -0.6246
24752SOL    HW174834   2.869   1.833   7.412  1.4389  0.2780  1.3452
24752SOL    HW274835   2.772   1.902   7.506 -0.7322  0.4453 -0.9325
24753SOL     OW74836   7.651   9.324   3.400  0.0429 -0.2157 -0.1331
24753SOL    HW174837   7.721   9.291   3.456  0.2249 -1.7957 -1.2231
24753SOL    HW274838   7.571   9.311   3.451  0.2899 -0.8675  0.1011
24754SOL     OW74839   3.722   0.129   1.269  0.7207  0.2167  0.4255
24754SOL    HW174840   3.653   0.154   1.331  2.0380 -1.6874  2.8773
24754SOL    HW274841   3.716   0.033   1.266  2.9354  0.0404  0.3898
24755SOL     OW74842   0.131   8.786   7.063  0.1142 -0.3752 -0.5103
24755SOL    HW174843   0.148   8.862   7.007  1.6691  0.6034  1.1497
24755SOL    HW274844   0.165   8.712   7.014  1.5457  0.4705 -0.8533
24756SOL     OW74845   7.162   7.046   5.329 -0.2925  0.2994  0.8728
24756SOL    HW174846   7.173   6.956   5.360  0.0178 -0.0883 -0.2929
24756SOL    HW274847   7.098   7.039   5.258  0.5505  0.8275  0.0447
24757SOL     OW74848   4.738   7.142   5.410  0.0568 -0.0298  0.4614
24757SOL    HW174849   4.715   7.231   5.435  0.7235 -0.1080  1.4106
24757SOL    HW274850   4.654   7.098   5.396 -0.2912  0.4745  0.9629
24758SOL     OW74851   0.473   9.411   4.727  0.2226 -0.2621 -0.2186
24758SOL    HW174852   0.400   9.472   4.736  1.5955  1.1221  4.1415
24758SOL    HW274853   0.549   9.467   4.715  1.0279 -1.4453 -0.8097
24759SOL     OW74854   9.202   4.707   9.751 -0.2881  0.5920  0.0887
24759SOL    HW174855   9.203   4.631   9.810 -2.6429  2.4770  2.7938
24759SOL    HW274856   9.139   4.683   9.683  0.5251 -0.6021 -0.2917
24760SOL     OW74857   4.261   2.401   7.748  0.6015 -0.0468 -0.4913
24760SOL    HW174858   4.343   2.431   7.709  0.9113  2.7448  1.9688
24760SOL    HW274859   4.273   2.415   7.842 -3.2353  2.0815 -0.1225
24761SOL     OW74860   3.915   9.331   6.940  0.1329 -0.2290 -0.9918
24761SOL    HW174861   3.905   9.242   6.975  0.5620  0.3727  0.7170
24761SOL    HW274862   3.861   9.331   6.861 -3.7090 -0.6820  1.4008
24762SOL     OW74863   1.319   4.183   3.644 -0.6860 -0.1306 -0.1038
24762SOL    HW174864   1.393   4.175   3.585 -1.3338  1.0215 -1.1264
24762SOL    HW274865   1.261   4.247   3.601 -1.6321  0.0023  1.3103
24763SOL     OW74866   4.099   6.991   0.494 -0.1459  0.1243  0.6763
24763SOL    HW174867   4.147   6.992   0.577 -1.2101  2.1214  1.3330
24763SOL    HW274868   4.142   7.059   0.441  1.1225 -1.7491 -0.8350
24764SOL     OW74869   6.799   2.316   7.523 -0.2859 -0.2646 -0.1615
24764SOL    HW174870   6.770   2.397   7.482 -0.2191  0.0573  0.4129
24764SOL    HW274871   6.747   2.248   7.480  0.0858  0.0061 -1.0737
24765SOL     OW74872   2.936   7.571   4.654 -0.9611  0.2341  0.5589
24765SOL    HW174873   2.849   7.546   4.623 -0.9318  0.6915  0.1060
24765SOL    HW274874   2.919   7.626   4.731 -1.0240 -1.3246  1.7129
24766SOL     OW74875   2.933   6.569   5.750  0.2752  0.7893 -0.1674
24766SOL    HW174876   2.865   6.630   5.778  1.8107  2.5942 -0.2067
24766SOL    HW274877   2.980   6.547   5.830 -0.6672 -0.9485 -0.0372
24767SOL     OW74878   0.747   0.204   2.266  0.0081 -0.1300  0.5892
24767SOL    HW174879   0.824   0.256   2.292  1.4180 -1.6745 -0.3063
24767SOL    HW274880   0.690   0.208   2.343  0.3329  2.1533  0.8016
24768SOL     OW74881   7.277   9.579   7.036  0.0220  0.5262  0.0112
24768SOL    HW174882   7.302   9.492   7.067  2.4500  0.8475 -0.8225
24768SOL    HW274883   7.186   9.590   7.065 -0.3874 -2.2928  0.0609
24769SOL     OW74884   8.048   3.931   0.947 -0.0279  0.6191  0.9604
24769SOL    HW174885   7.997   4.012   0.948  0.4749  0.9513  0.6389
24769SOL    HW274886   8.126   3.954   0.896  0.7206  0.2954  1.9300
24770SOL     OW74887   6.774   4.801   1.234  0.1470 -0.1747  0.0650
24770SOL    HW174888   6.850   4.824   1.287  0.2209 -0.3463  0.0335
24770SOL    HW274889   6.709   4.771   1.298  0.3309 -0.6435  0.0373
24771SOL     OW74890   7.493   0.496   5.511 -0.0272  0.0450 -0.0661
24771SOL    HW174891   7.412   0.444   5.505 -0.0493 -0.0292  0.7870
24771SOL    HW274892   7.545   0.467   5.436 -0.7322 -0.0032 -0.5527
24772SOL     OW74893   4.590   4.392   8.412  0.4796  0.1724  0.5116
24772SOL    HW174894   4.521   4.403   8.348  0.5235  0.2540  0.4783
24772SOL    HW274895   4.608   4.298   8.413  2.5722  0.4336 -1.8054
24773SOL     OW74896   7.236   2.994   9.886  0.1021 -0.0531 -0.2055
24773SOL    HW174897   7.173   2.930   9.920 -1.5130  2.3424  1.6554
24773SOL    HW274898   7.319   2.969   9.926 -0.7721 -0.2065  1.6127
24774SOL     OW74899   5.534   1.196   4.439  0.4745 -0.3731  0.2905
24774SOL    HW174900   5.504   1.171   4.527 -0.9701  1.9254  0.5391
24774SOL    HW274901   5.482   1.143   4.380 -0.4644 -0.0645  0.8189
24775SOL     OW74902   8.885   5.455   8.332  0.3100  0.4557 -0.3387
24775SOL    HW174903   8.878   5.546   8.304  1.6693  0.5203 -0.5349
24775SOL    HW274904   8.796   5.432   8.361 -0.7810  0.9189 -3.0279
24776SOL     OW74905   7.980   7.902   2.966  0.0133  0.0624 -0.2128
24776SOL    HW174906   8.069   7.880   2.940 -0.1577  0.4900 -1.1839
24776SOL    HW274907   7.945   7.821   3.003  0.6437 -0.2326 -0.2484
24777SOL     OW74908   9.125   1.323   2.718  0.4030  0.4328 -0.4764
24777SOL    HW174909   9.114   1.380   2.793 -0.6977 -0.2416 -0.0986
24777SOL    HW274910   9.065   1.250   2.734  0.3555  0.1354 -1.8668
24778SOL     OW74911   0.854   4.842   9.830 -0.2602  0.2760  0.3278
24778SOL    HW174912   0.808   4.834   9.913 -2.3062 -0.0711 -0.7654
24778SOL    HW274913   0.889   4.931   9.829 -3.6804  1.7713 -0.0528
24779SOL     OW74914   5.640   9.195   9.920 -0.6923  0.2997  0.6014
24779SOL    HW174915   5.693   9.121   9.949  0.5084 -0.7872 -3.6585
24779SOL    HW274916   5.668   9.268   9.976  3.4771 -0.8528  0.3619
24780SOL     OW74917   9.209   3.067   6.416 -0.5057 -0.6719  0.7527
24780SOL    HW174918   9.118   3.039   6.406 -0.7066  0.6457 -2.0378
24780SOL    HW274919   9.257   2.986   6.431 -1.9590 -1.5805  0.6806
24781SOL     OW74920   9.711   8.052   1.317 -0.4471  0.0651 -0.0076
24781SOL    HW174921   9.698   8.005   1.235 -0.6177  2.1509 -1.2254
24781SOL    HW274922   9.718   7.982   1.383 -0.9469 -1.6404 -1.6634
24782SOL     OW74923   8.734   2.573   7.007 -0.7088  0.2455 -0.1268
24782SOL    HW174924   8.740   2.662   7.041  0.5461  0.1308 -0.0270
24782SOL    HW274925   8.658   2.535   7.052  1.0412 -0.0020  2.8454
24783SOL     OW74926   5.360   1.160   3.047  0.0097 -0.0852  0.3174
24783SOL    HW174927   5.401   1.140   2.963  2.1267  0.7192  1.0923
24783SOL    HW274928   5.287   1.098   3.054  0.9460 -1.4402 -1.2604
24784SOL     OW74929   4.416   0.934   3.486  0.1672 -0.1375 -0.1802
24784SOL    HW174930   4.393   1.027   3.486 -1.8778 -0.5735  0.9825
24784SOL    HW274931   4.463   0.921   3.404 -2.2889  1.2893 -1.9337
24785SOL     OW74932   9.958   6.002   2.909  0.0158  0.2984  0.6146
24785SOL    HW174933  10.042   6.038   2.881  0.9842 -2.2120  0.0884
24785SOL    HW274934   9.920   5.964   2.830  0.0139 -1.6303  1.4914
24786SOL     OW74935   4.210   8.445   6.213  0.3689 -0.6341  0.5861
24786SOL    HW174936   4.197   8.481   6.125  2.0626  0.5258  0.7615
24786SOL    HW274937   4.128   8.400   6.233 -0.2395 -0.4891 -1.3764
24787SOL     OW74938   4.146   5.127   3.465 -0.3985  0.1028  0.0373
24787SOL    HW174939   4.169   5.034   3.454 -1.5096 -0.3037  0.9157
24787SOL    HW274940   4.128   5.158   3.377 -1.2526 -0.8698 -0.1519
24788SOL     OW74941   5.947   6.158   1.521 -0.4518 -0.3334  0.1474
24788SOL    HW174942   5.933   6.075   1.476 -0.4143 -0.7684  0.9236
24788SOL    HW274943   6.042   6.166   1.527 -0.4484 -0.0390 -0.2792
24789SOL     OW74944   1.654   5.565   0.491  0.5392  0.3002 -0.3420
24789SOL    HW174945   1.664   5.631   0.422  0.7099 -1.3023 -1.9121
24789SOL    HW274946   1.696   5.605   0.567  1.0511  1.8131 -1.3582
24790SOL     OW74947   3.400   9.749   0.408 -0.0937  0.0302  0.2656
24790SOL    HW174948   3.460   9.781   0.476 -1.5326  1.3852  0.9726
24790SOL    HW274949   3.401   9.817   0.341 -0.5030 -0.1487  0.0753
24791SOL     OW74950   8.550   9.727   8.431  0.2779 -0.2397  0.0546
24791SOL    HW174951   8.492   9.769   8.367 -0.0325  0.2258  0.6372
24791SOL    HW274952   8.492   9.669   8.481  0.3765 -0.0375  0.4065
24792SOL     OW74953   2.566   3.299   5.815  0.1327  0.3671 -0.1760
24792SOL    HW174954   2.531   3.377   5.771  0.7431  0.7196 -0.0519
24792SOL    HW274955   2.565   3.231   5.748  0.4857  0.7412 -0.5714
24793SOL     OW74956   7.166   5.007   9.313 -0.9307  0.3584 -0.0062
24793SOL    HW174957   7.257   5.007   9.284 -0.3527 -0.6476  1.6347
24793SOL    HW274958   7.128   5.086   9.274  0.4247  0.4062 -1.3235
24794SOL     OW74959   0.310   1.564   4.294  0.7936 -0.7084  0.0015
24794SOL    HW174960   0.380   1.518   4.339  1.7101  1.0791  0.4827
24794SOL    HW274961   0.354   1.632   4.243 -0.6101  1.9025  1.9955
24795SOL     OW74962   5.759   9.279   0.931  0.5697  0.5309  0.0323
24795SOL    HW174963   5.759   9.316   1.019  0.8761  0.0732  0.2326
24795SOL    HW274964   5.841   9.309   0.892  0.5642  0.5066  0.0019
24796SOL     OW74965   2.792   1.394   4.431 -0.2035 -0.3539 -0.2636
24796SOL    HW174966   2.871   1.358   4.470 -0.5692 -0.5421  0.3385
24796SOL    HW274967   2.743   1.430   4.506 -0.3399  0.4302 -0.7141
24797SOL     OW74968   6.511   2.117   4.751 -0.1701  0.6361  0.2679
24797SOL    HW174969   6.567   2.195   4.752  0.8975 -0.0980 -0.4048
24797SOL    HW274970   6.528   2.077   4.666 -1.3813  0.1332  0.2409
24798SOL     OW74971   0.788   5.456   6.822 -0.5612 -0.1685  0.8084
24798SOL    HW174972   0.823   5.408   6.747 -3.0300 -0.3489 -0.3234
24798SOL    HW274973   0.753   5.389   6.880 -1.3749  0.0976  0.6379
24799SOL     OW74974   6.179   0.586   0.874  0.1018  0.1538 -0.3215
24799SOL    HW174975   6.194   0.645   0.800 -0.1976 -0.1626 -0.6359
24799SOL    HW274976   6.101   0.621   0.917  0.8439  0.9220  0.4373
24800SOL     OW74977   6.023   3.207   7.796 -0.1840  0.1494 -0.2649
24800SOL    HW174978   5.935   3.243   7.793 -0.9007 -1.5860 -2.5471
24800SOL    HW274979   6.019   3.139   7.863 -0.0892  1.1132  0.7557
24801SOL     OW74980   7.267   9.370   8.622  0.1623  0.1265 -0.0631
24801SOL    HW174981   7.239   9.284   8.592  1.6569 -0.8654  1.2510
24801SOL    HW274982   7.345   9.390   8.569  0.2976  0.3015  0.1971
24802SOL     OW74983   9.374   5.534   6.349  0.3068 -0.0343 -0.2046
24802SOL    HW174984   9.435   5.493   6.410 -0.9754  0.8361  1.7983
24802SOL    HW274985   9.305   5.469   6.336 -0.6750  0.6179  1.3369
24803SOL     OW74986   6.651   0.448   4.277 -0.7737 -0.1123  0.1600
24803SOL    HW174987   6.616   0.519   4.331 -0.8126 -1.0880  1.4663
24803SOL    HW274988   6.744   0.469   4.267 -0.4941 -0.5148  1.6456
24804SOL     OW74989   8.577   9.684   2.054  0.9220  0.4587  0.0324
24804SOL    HW174990   8.596   9.759   1.997  2.9219 -0.1686 -0.1876
24804SOL    HW274991   8.629   9.701   2.133 -0.2593  0.3122  0.8716
24805SOL     OW74992   9.463   9.889   4.601 -0.2427  0.2073  0.0435
24805SOL    HW174993   9.505   9.884   4.687  0.5674 -0.6900 -0.3870
24805SOL    HW274994   9.374   9.857   4.615  0.0992 -0.5886  0.4223
24806SOL     OW74995   0.125   9.123   7.175  0.7730  0.5808 -0.1999
24806SOL    HW174996   0.178   9.075   7.111  2.7940  2.7674 -0.2653
24806SOL    HW274997   0.161   9.098   7.260 -0.8067 -1.0035  0.0711
24807SOL     OW74998   4.098   9.503   2.972 -0.6806 -0.2577  0.1992
24807SOL    HW174999   4.106   9.575   3.035  1.4722  0.9235 -1.2647
24807SOL    HW275000   4.143   9.430   3.014 -0.2557  0.1749  0.5166
24808SOL     OW75001   8.626   5.226   0.885  0.0116  0.0457 -0.0708
24808SOL    HW175002   8.645   5.317   0.909  0.2373  0.2969 -1.1772
24808SOL    HW275003   8.645   5.221   0.792  0.1769 -1.1902  0.0143
24809SOL     OW75004   6.621   8.935   4.030  0.0821  0.3556 -0.1671
24809SOL    HW175005   6.667   9.004   3.982  1.1352 -1.6603 -2.2224
24809SOL    HW275006   6.559   8.899   3.966  0.3897 -1.3686  0.4574
24810SOL     OW75007   2.193   2.163   0.667 -0.1667 -0.1279 -0.0875
24810SOL    HW175008   2.253   2.089   0.678 -0.6450 -0.6515 -0.8481
24810SOL    HW275009   2.243   2.227   0.617  0.5432  0.4421  1.3154
24811SOL     OW75010   3.433   4.170   7.943 -0.0077  0.3107 -0.4256
24811SOL    HW175011   3.410   4.221   7.865 -3.3712 -0.3947 -0.0485
24811SOL    HW275012   3.429   4.078   7.913  1.0208  0.1035  0.0523
24812SOL     OW75013   8.751   4.564   9.443  0.3089  0.2843 -0.1061
24812SOL    HW175014   8.707   4.488   9.480  1.3958  1.0576  3.0867
24812SOL    HW275015   8.691   4.637   9.460  1.0068  0.7159  0.5881
24813SOL     OW75016   0.176   4.544   4.169 -0.7240  0.1248  0.2971
24813SOL    HW175017   0.221   4.561   4.252  2.0063 -0.0754 -1.0174
24813SOL    HW275018   0.118   4.471   4.187 -0.1772  0.0873  2.0450
24814SOL     OW75019   9.111   9.811   7.044 -0.3845 -0.1037 -0.0308
24814SOL    HW175020   9.159   9.846   6.969 -0.7041 -0.1058 -0.2377
24814SOL    HW275021   9.049   9.880   7.067  1.1841  0.8415  1.6314
24815SOL     OW75022   9.014   4.582   7.033 -0.2199 -0.6084 -0.6254
24815SOL    HW175023   8.975   4.527   6.965  0.3341 -2.0199  0.1569
24815SOL    HW275024   8.948   4.650   7.049 -0.1047  0.1456 -2.9780
24816SOL     OW75025   7.311   4.456   4.250 -0.3423 -0.4180  0.3054
24816SOL    HW175026   7.241   4.392   4.262 -1.2454  0.5933  0.6023
24816SOL    HW275027   7.283   4.507   4.174  0.6247 -0.6812 -0.2478
24817SOL     OW75028   0.191   6.281   9.689 -0.4571 -0.2937 -0.1835
24817SOL    HW175029   0.253   6.208   9.693 -1.1295 -0.8532  0.4853
24817SOL    HW275030   0.107   6.242   9.715 -0.8885  0.6651 -0.0923
24818SOL     OW75031   6.595   4.861   6.940 -0.5397  0.2153 -0.4175
24818SOL    HW175032   6.521   4.919   6.922  1.2770  2.8687  0.0789
24818SOL    HW275033   6.663   4.891   6.880  1.5641  0.9211  2.1640
24819SOL     OW75034   4.561   0.819   8.393  0.1274 -0.2547 -0.0271
24819SOL    HW175035   4.574   0.860   8.308 -0.1884 -0.0542  0.0201
24819SOL    HW275036   4.639   0.763   8.405 -0.2646 -1.0041 -0.8506
24820SOL     OW75037   2.354   3.178   4.254  0.4823 -0.4481  0.2094
24820SOL    HW175038   2.443   3.145   4.241  0.8899  0.7012  0.0412
24820SOL    HW275039   2.358   3.225   4.337 -0.2843 -1.4019  0.8220
24821SOL     OW75040   0.060   3.328   1.141 -0.3733 -0.4147  0.4433
24821SOL    HW175041  -0.011   3.343   1.079  0.6801 -1.3622 -1.0744
24821SOL    HW275042   0.091   3.415   1.164 -1.4891 -0.0224  0.4992
24822SOL     OW75043   1.375   8.634   9.026 -0.0292  0.3607 -0.0146
24822SOL    HW175044   1.342   8.561   9.080 -0.8661  0.5406 -0.2591
24822SOL    HW275045   1.311   8.704   9.040 -0.6829  0.1727 -1.7816
24823SOL     OW75046   1.921   7.162   2.739 -0.5417  0.2853  0.3592
24823SOL    HW175047   1.864   7.186   2.813  0.4146 -0.3664  1.3284
24823SOL    HW275048   1.979   7.238   2.728 -0.7544  0.4266  0.1902
24824SOL     OW75049   7.965   5.778   0.680  0.2383  0.4872 -0.2063
24824SOL    HW175050   8.036   5.841   0.665  0.0824  1.1256  1.4801
24824SOL    HW275051   7.893   5.832   0.714 -0.6116 -0.3329 -0.6658
24825SOL     OW75052   1.245   8.534   0.861  0.1767  0.1664 -0.0953
24825SOL    HW175053   1.203   8.450   0.840 -1.5792  0.9794  0.0488
24825SOL    HW275054   1.200   8.565   0.939  0.5494  1.4201 -0.3615
24826SOL     OW75055   6.572   1.137   6.702  0.5413  0.2882 -0.1562
24826SOL    HW175056   6.577   1.061   6.644  0.2705  1.8817 -2.3923
24826SOL    HW275057   6.661   1.172   6.702  0.3810  0.6959 -0.1775
24827SOL     OW75058   0.849   1.013   9.762  0.2208 -0.4722  0.1714
24827SOL    HW175059   0.827   0.943   9.700 -0.7235 -0.7561  0.7986
24827SOL    HW275060   0.897   1.077   9.710 -0.1402 -0.9203 -0.7443
24828SOL     OW75061   1.449   9.443   7.136 -0.1517 -0.1592 -0.7665
24828SOL    HW175062   1.534   9.445   7.179 -1.0214  0.7289  1.0067
24828SOL    HW275063   1.440   9.530   7.097 -0.5192 -0.0253 -0.3865
24829SOL     OW75064   5.634   2.391   9.017  0.4210 -0.2375  0.2794
24829SOL    HW175065   5.727   2.406   9.004  0.0611  1.7252 -0.3913
24829SOL    HW275066   5.616   2.307   8.975  1.5653  0.1996 -1.1426
24830SOL     OW75067   4.062   8.236   6.696 -0.2235  0.8588  0.2025
24830SOL    HW175068   4.076   8.244   6.790 -0.3476  0.0509  0.2927
24830SOL    HW275069   4.149   8.225   6.659 -0.2844 -0.2189  0.3668
24831SOL     OW75070   7.814   1.735   6.206  0.2015 -0.1871  0.0953
24831SOL    HW175071   7.876   1.808   6.200 -1.8950  1.8672  1.4623
24831SOL    HW275072   7.841   1.688   6.285 -0.0068  0.7905  0.7764
24832SOL     OW75073   1.728   5.423   1.431 -0.3775 -0.2511  0.0786
24832SOL    HW175074   1.715   5.500   1.376  0.9750 -0.2793 -0.3250
24832SOL    HW275075   1.658   5.427   1.496 -1.2313  0.4930 -0.8505
24833SOL     OW75076   0.547   7.959   2.389 -0.0412 -0.2554 -0.0935
24833SOL    HW175077   0.542   7.932   2.297  0.6521  0.1083 -0.2470
24833SOL    HW275078   0.615   7.903   2.427  0.4190  0.3123 -0.0692
24834SOL     OW75079   7.819   7.185   7.837  0.1020 -0.2117 -0.1936
24834SOL    HW175080   7.741   7.227   7.874 -0.8659 -1.5791 -0.6305
24834SOL    HW275081   7.788   7.102   7.803  1.6686 -0.5550 -0.8627
24835SOL     OW75082   5.342   7.581   7.220 -0.0774  0.2279  0.9053
24835SOL    HW175083   5.408   7.626   7.273 -0.0186  0.6117  0.5077
24835SOL    HW275084   5.310   7.648   7.159  0.5546 -0.4558 -0.2092
24836SOL     OW75085   1.093   7.756   5.661 -0.1075 -0.5243  0.1897
24836SOL    HW175086   1.028   7.822   5.687 -0.2522 -0.6499  0.1527
24836SOL    HW275087   1.138   7.733   5.742  0.8480  0.5719 -0.0021
24837SOL     OW75088   5.831   3.830   0.857  0.7338  0.0992 -0.2938
24837SOL    HW175089   5.895   3.809   0.789  2.2770 -1.1858  1.4434
24837SOL    HW275090   5.878   3.886   0.918  1.3970 -3.3209  2.6437
24838SOL     OW75091   1.126   8.858   1.054 -0.4056  0.1212 -0.0470
24838SOL    HW175092   1.035   8.851   1.081 -0.3116  2.4145  1.1686
24838SOL    HW275093   1.125   8.921   0.982  0.0733 -1.1303 -1.1905
24839SOL     OW75094   9.531   3.641   9.469 -0.0646 -0.2181  0.2342
24839SOL    HW175095   9.569   3.715   9.516 -1.3494 -0.2505  1.4070
24839SOL    HW275096   9.441   3.669   9.450 -0.6118 -1.4941  0.8053
24840SOL     OW75097   4.941   7.300   5.261  0.4551 -0.1167  0.0586
24840SOL    HW175098   4.935   7.347   5.344 -0.9412  1.5157 -0.8936
24840SOL    HW275099   4.869   7.238   5.264 -0.9368  1.3685 -0.6962
24841SOL     OW75100   2.259   2.029   1.666  0.0732  0.2595 -0.1242
24841SOL    HW175101   2.177   1.979   1.665 -0.0008  0.3835 -0.8996
24841SOL    HW275102   2.275   2.047   1.759 -0.6878  0.0873  0.0474
24842SOL     OW75103   0.183   6.119   3.837  0.4802  0.0354  0.3161
24842SOL    HW175104   0.156   6.174   3.911  1.4111 -0.8222  1.3198
24842SOL    HW275105   0.252   6.169   3.794 -0.5116  0.8336 -0.4019
24843SOL     OW75106   2.708   1.698   2.480 -0.0666 -0.1051 -0.3505
24843SOL    HW175107   2.624   1.730   2.447 -1.0903 -2.5026 -0.2623
24843SOL    HW275108   2.747   1.652   2.406  0.3369 -0.4993  0.0940
24844SOL     OW75109   7.053   3.212   6.576 -0.0587  0.4013  0.3396
24844SOL    HW175110   7.014   3.131   6.543  1.1508 -0.7643  1.6216
24844SOL    HW275111   6.985   3.251   6.631 -0.7717  0.4490 -0.5555
24845SOL     OW75112   1.296   9.094   7.365  0.1431 -0.3693 -0.1479
24845SOL    HW175113   1.205   9.086   7.392 -0.0278 -0.3374 -0.6917
24845SOL    HW275114   1.301   9.043   7.284  0.8050 -1.0711  0.3185
24846SOL     OW75115   6.724   7.992   5.086  0.3390  0.3567  0.6115
24846SOL    HW175116   6.763   7.932   5.023  1.1540 -0.5497  1.9289
24846SOL    HW275117   6.748   8.079   5.055 -0.2240 -0.0197 -0.9216
24847SOL     OW75118   5.902   9.634   6.706  0.1461  0.1695  0.2485
24847SOL    HW175119   5.807   9.647   6.705  0.4800  3.2358 -0.1135
24847SOL    HW275120   5.922   9.615   6.797 -0.6394  1.6660  0.7804
24848SOL     OW75121   9.139   6.760   6.255 -0.1837 -0.0886  0.3420
24848SOL    HW175122   9.190   6.791   6.180 -0.0874 -1.3182 -0.1323
24848SOL    HW275123   9.175   6.805   6.330 -0.7854  1.7713 -0.4297
24849SOL     OW75124   4.565   8.590   3.118  0.3476 -0.5340  0.1768
24849SOL    HW175125   4.549   8.497   3.137  0.2852 -0.7370 -0.8103
24849SOL    HW275126   4.477   8.627   3.112  0.3311 -0.7314 -0.9146
24850SOL     OW75127   5.741   9.154   7.535  0.9311  0.0190  0.2862
24850SOL    HW175128   5.827   9.156   7.576  1.0630 -0.0492  0.0153
24850SOL    HW275129   5.759   9.159   7.441  0.8878 -3.5031 -0.0752
24851SOL     OW75130   0.170   1.829   8.105 -0.5406  0.0667  0.3175
24851SOL    HW175131   0.203   1.833   8.195 -1.0866  1.6053  0.4677
24851SOL    HW275132   0.080   1.860   8.112 -0.5226  0.3888 -0.8050
24852SOL     OW75133   1.996   0.756   8.007  0.1274 -0.2576  0.1195
24852SOL    HW175134   2.001   0.708   8.089  1.9025  0.8100  0.7015
24852SOL    HW275135   2.047   0.704   7.945  1.3326  0.3914  0.5270
24853SOL     OW75136   6.368   3.028   1.991  0.3314  0.2724  0.0964
24853SOL    HW175137   6.375   2.970   2.066  1.1764 -1.6364 -1.3557
24853SOL    HW275138   6.451   3.016   1.944 -0.2920  1.1293 -1.2991
24854SOL     OW75139   7.234   2.523   9.433 -0.2474 -0.3507  0.4615
24854SOL    HW175140   7.182   2.503   9.355 -0.7353  0.7228  0.4988
24854SOL    HW275141   7.324   2.520   9.403 -0.4215 -0.1808 -0.0881
24855SOL     OW75142   5.365   4.121   0.041 -0.1862  0.2732  0.3009
24855SOL    HW175143   5.317   4.055   0.090  0.5442 -0.5483 -0.0464
24855SOL    HW275144   5.374   4.195   0.101 -1.9653  0.4993  0.3211
24856SOL     OW75145   2.054   1.689   0.141 -0.3053 -0.8667 -0.6041
24856SOL    HW175146   2.039   1.767   0.087 -0.3022 -1.0144 -0.8192
24856SOL    HW275147   1.969   1.645   0.143 -0.4431 -0.5878 -0.0499
24857SOL     OW75148   2.178   8.752   4.746 -0.3036  0.5577  0.0674
24857SOL    HW175149   2.193   8.810   4.820 -0.9339 -0.2727  0.8610
24857SOL    HW275150   2.113   8.798   4.692  1.4840  2.0304 -1.0001
24858SOL     OW75151   7.344   5.632   9.620  0.1130  0.0739 -0.4384
24858SOL    HW175152   7.343   5.573   9.696  0.9506  0.5496 -0.0437
24858SOL    HW275153   7.432   5.671   9.621 -0.3332  1.1303 -0.8420
24859SOL     OW75154   1.973   2.022   1.865 -0.2133  0.2259 -0.0118
24859SOL    HW175155   1.895   1.985   1.907 -0.0958 -0.1681 -0.1417
24859SOL    HW275156   2.027   2.053   1.938  0.1315 -0.7339  0.1583
24860SOL     OW75157   3.727   7.202   5.449  0.0236 -0.0334  0.3897
24860SOL    HW175158   3.779   7.145   5.392  1.1389  1.6494 -0.3680
24860SOL    HW275159   3.736   7.289   5.410 -1.8172  0.6540  1.3587
24861SOL     OW75160   9.401   9.794   9.333  0.5062  0.3380 -0.0688
24861SOL    HW175161   9.431   9.842   9.411 -0.9726 -0.9692  1.3682
24861SOL    HW275162   9.309   9.775   9.350  0.4042 -0.8620 -1.7188
24862SOL     OW75163   7.145   9.175   2.524 -0.1621  0.3936  0.0920
24862SOL    HW175164   7.208   9.105   2.539 -0.7284 -0.5439 -1.6280
24862SOL    HW275165   7.189   9.234   2.462 -0.5627  0.2807 -0.3089
24863SOL     OW75166   7.849   9.099   8.838  0.1893 -0.9734 -0.6087
24863SOL    HW175167   7.768   9.144   8.863  0.4362 -0.2949 -0.9896
24863SOL    HW275168   7.822   9.037   8.771 -0.0177 -0.7556 -0.7296
24864SOL     OW75169   8.894   7.209   8.634  0.5394  0.3132  0.3129
24864SOL    HW175170   8.879   7.269   8.562 -0.2674  1.3785  1.3261
24864SOL    HW275171   8.986   7.220   8.657  0.9603 -0.4538 -0.8754
24865SOL     OW75172   7.390   1.741   8.339  0.1404  0.3547  0.5721
24865SOL    HW175173   7.357   1.784   8.260  2.1026  0.1809 -0.4177
24865SOL    HW275174   7.316   1.691   8.373 -0.8395  0.6831 -0.9984
24866SOL     OW75175   5.462   8.895   0.814  0.0352  0.5808 -0.1011
24866SOL    HW175176   5.514   8.936   0.883 -1.2575 -0.4353  1.5244
24866SOL    HW275177   5.375   8.886   0.851 -0.2097 -1.8583 -1.1199
24867SOL     OW75178   1.934   0.179   6.662  0.4183  0.3578 -0.1025
24867SOL    HW175179   1.886   0.252   6.702  1.3959  1.0918 -0.2208
24867SOL    HW275180   2.003   0.158   6.725  0.4220 -0.1727 -0.2753
24868SOL     OW75181   9.992   1.073   6.334  0.3103  0.1425  0.0937
24868SOL    HW175182   9.930   1.003   6.314 -0.2673  0.3509  1.1078
24868SOL    HW275183   9.938   1.151   6.343  0.5452  0.0996  2.2328
24869SOL     OW75184   2.498   9.000   6.925 -0.1239  0.6004  0.2093
24869SOL    HW175185   2.504   9.086   6.883 -0.7930  0.4122 -0.2949
24869SOL    HW275186   2.575   8.953   6.892 -0.1383  0.7685 -0.0739
24870SOL     OW75187   3.181   8.703   9.093 -0.3518  0.0250 -0.1159
24870SOL    HW175188   3.093   8.729   9.066  0.0036 -1.7068 -3.3103
24870SOL    HW275189   3.183   8.608   9.082  1.8124 -0.0308  0.3251
24871SOL     OW75190   5.526   4.178   8.463 -0.1467  0.2134  0.1137
24871SOL    HW175191   5.588   4.107   8.448 -1.0145 -0.4531 -0.4670
24871SOL    HW275192   5.555   4.219   8.544  1.6955  0.6314 -0.6865
24872SOL     OW75193   2.217   5.217   3.025  0.1414  0.4599 -0.4755
24872SOL    HW175194   2.255   5.186   3.107 -0.6810 -0.4967 -0.4422
24872SOL    HW275195   2.234   5.146   2.963 -0.4384  0.5971 -0.7944
24873SOL     OW75196   8.002   8.091   2.136 -0.3244  0.7233 -0.4303
24873SOL    HW175197   7.943   8.166   2.144 -0.5194  0.4334  1.0763
24873SOL    HW275198   8.088   8.125   2.158 -0.0432  0.9435 -1.7655
24874SOL     OW75199   8.714   9.440   4.024 -0.7726 -0.0473 -0.1100
24874SOL    HW175200   8.648   9.386   4.067 -0.9377  0.5648  0.4165
24874SOL    HW275201   8.798   9.404   4.053 -0.8725 -0.5265 -0.4058
24875SOL     OW75202   4.459   6.132   1.489  0.2268 -0.7894  0.1510
24875SOL    HW175203   4.516   6.063   1.458 -0.2644 -1.4073  0.5965
24875SOL    HW275204   4.388   6.086   1.534 -0.3447 -0.0198  0.0582
24876SOL     OW75205   7.282   5.572   2.818 -0.2535  0.4350  0.7621
24876SOL    HW175206   7.341   5.569   2.893  0.2778  0.4238  0.3477
24876SOL    HW275207   7.339   5.591   2.743 -0.5827 -0.9274  0.1498
24877SOL     OW75208   6.439   9.753   4.101  0.4510 -0.2861  0.3671
24877SOL    HW175209   6.404   9.678   4.052  1.6464  0.1577 -1.2628
24877SOL    HW275210   6.426   9.729   4.193 -0.9280 -1.6317 -0.1201
24878SOL     OW75211   9.527   0.755   5.374 -0.2127  0.0742  0.1054
24878SOL    HW175212   9.524   0.848   5.355  0.3091  0.6599  2.5232
24878SOL    HW275213   9.503   0.712   5.292  1.1526  2.2627 -1.5283
24879SOL     OW75214   4.287   9.534   3.433  0.0706  0.0352 -0.0479
24879SOL    HW175215   4.377   9.504   3.421 -0.1100 -0.0283 -1.4159
24879SOL    HW275216   4.273   9.598   3.363 -0.4876  1.1676  1.0481
24880SOL     OW75217   7.205   6.203   7.380 -0.4511  0.3741  0.8599
24880SOL    HW175218   7.177   6.292   7.402 -0.4282  0.3038  1.1799
24880SOL    HW275219   7.264   6.214   7.306 -0.5646  0.6119  0.8036
24881SOL     OW75220   0.116   9.439   5.558 -0.1687 -0.4591  0.1801
24881SOL    HW175221   0.127   9.391   5.476  0.0668  0.5274 -0.3745
24881SOL    HW275222   0.038   9.493   5.544  1.0177  1.2166 -0.1449
24882SOL     OW75223   5.496   9.577   2.982  0.5979  0.3385  0.8042
24882SOL    HW175224   5.584   9.553   2.952 -0.2466  1.3377 -3.0177
24882SOL    HW275225   5.506   9.666   3.017  0.7020  2.0170 -3.0317
24883SOL     OW75226   3.346   2.664   3.779  0.1899  0.1365 -0.0625
24883SOL    HW175227   3.378   2.736   3.723 -0.1659  1.3745  1.2598
24883SOL    HW275228   3.422   2.607   3.790  0.5548  0.4273 -0.9564
24884SOL     OW75229   6.411   0.654   7.126  0.0623  0.0494 -0.6635
24884SOL    HW175230   6.409   0.623   7.217  0.0075 -1.0746 -1.0392
24884SOL    HW275231   6.478   0.602   7.084 -1.0873 -0.6537 -1.6964
24885SOL     OW75232   2.044   5.600   7.268 -0.0961 -0.4114 -0.4184
24885SOL    HW175233   2.091   5.667   7.318 -0.3601  0.2174 -0.9882
24885SOL    HW275234   2.111   5.538   7.242  0.0722 -0.6577  0.5644
24886SOL     OW75235   4.629   5.273   5.577  0.2609 -0.0069  0.0247
24886SOL    HW175236   4.639   5.360   5.616 -0.0539 -0.4522  1.1320
24886SOL    HW275237   4.620   5.290   5.483  1.0259  1.0940  0.1356
24887SOL     OW75238   3.486   3.212   5.509 -0.0060 -0.6673  0.4518
24887SOL    HW175239   3.478   3.307   5.501  1.5904 -0.2969  2.3780
24887SOL    HW275240   3.438   3.191   5.590 -0.8065 -1.6039 -0.2365
24888SOL     OW75241   4.669   1.603   6.280  0.9080 -0.8374 -0.1154
24888SOL    HW175242   4.760   1.624   6.256  0.8730 -2.2294 -1.6890
24888SOL    HW275243   4.655   1.516   6.242 -0.8769 -0.9277  0.7019
24889SOL     OW75244   9.147   0.403   7.896  0.1426 -0.1952 -0.6063
24889SOL    HW175245   9.182   0.460   7.965 -2.6521 -0.2011  0.9629
24889SOL    HW275246   9.130   0.462   7.823  0.1003  0.4241 -0.1084
24890SOL     OW75247   6.587   0.722   2.046 -0.2242 -0.9420  0.0278
24890SOL    HW175248   6.639   0.681   1.976  0.4318  1.1358 -0.7721
24890SOL    HW275249   6.624   0.810   2.054 -1.0981 -0.7349  2.1837
24891SOL     OW75250   3.801   3.768   5.931  0.2181  0.3286 -0.6941
24891SOL    HW175251   3.796   3.767   6.026 -0.7001  0.2490 -0.7301
24891SOL    HW275252   3.852   3.691   5.908 -0.1991 -0.0779 -0.2861
24892SOL     OW75253   4.681   9.264   0.520  0.3813  0.5827  0.3834
24892SOL    HW175254   4.712   9.292   0.433 -0.8455  1.6228  0.2463
24892SOL    HW275255   4.586   9.269   0.514  0.2033 -1.0975  1.2477
24893SOL     OW75256   7.716   2.939   7.872  0.1297 -0.3938 -0.4440
24893SOL    HW175257   7.765   3.019   7.851 -0.3142  0.3951  1.4139
24893SOL    HW275258   7.770   2.895   7.938 -0.0534 -1.2117 -0.8276
24894SOL     OW75259   5.407   2.932   7.630 -0.8357 -0.2182 -0.0737
24894SOL    HW175260   5.473   2.980   7.681 -0.7614  0.1540 -0.5199
24894SOL    HW275261   5.379   2.994   7.563 -2.4590  0.0398  0.7816
24895SOL     OW75262   7.253   4.383   5.890  0.0387 -0.0098  0.3448
24895SOL    HW175263   7.213   4.405   5.974 -1.1607  0.3337 -0.2985
24895SOL    HW275264   7.180   4.373   5.830  0.8688 -0.4543 -0.6262
24896SOL     OW75265   1.183   8.903   9.437  0.5271 -0.3199  0.0696
24896SOL    HW175266   1.277   8.896   9.422  0.3779 -1.6598 -0.3133
24896SOL    HW275267   1.151   8.813   9.436 -0.6879  0.0796  0.7203
24897SOL     OW75268   7.654   9.583   9.348  0.1645  0.0087 -0.2358
24897SOL    HW175269   7.596   9.524   9.299  0.4585 -0.1849 -0.3537
24897SOL    HW275270   7.695   9.527   9.413  0.7637 -0.0104 -0.6216
24898SOL     OW75271   1.853   8.502   1.761 -0.2048  0.2235  0.3276
24898SOL    HW175272   1.941   8.466   1.760 -1.5037 -3.2998 -1.0963
24898SOL    HW275273   1.833   8.521   1.669 -1.0113  0.8797  0.6224
24899SOL     OW75274   1.316   5.650   0.420  0.3891 -0.5015  0.0592
24899SOL    HW175275   1.247   5.639   0.486 -1.1435  0.8041 -1.2455
24899SOL    HW275276   1.345   5.741   0.430 -1.6617  0.5718 -2.6136
24900SOL     OW75277   0.952   2.261   1.507  0.3626 -0.0946  0.7223
24900SOL    HW175278   0.940   2.274   1.413 -1.7291  0.6313  1.0436
24900SOL    HW275279   1.007   2.334   1.534  1.3567 -0.5585  0.0095
24901SOL     OW75280   4.474   7.878   1.224  0.0449 -0.2823 -0.9733
24901SOL    HW175281   4.408   7.844   1.285  0.6903 -0.8553 -0.5754
24901SOL    HW275282   4.450   7.969   1.211  0.0854 -0.0483  0.4320
24902SOL     OW75283   4.940   6.746   7.147 -0.1027  0.0191  0.2920
24902SOL    HW175284   4.929   6.731   7.241 -0.6626 -0.0388  0.2246
24902SOL    HW275285   4.998   6.676   7.118  0.4696  0.3309  0.6841
24903SOL     OW75286   2.793   9.204   2.611  0.0194  0.2638 -0.4186
24903SOL    HW175287   2.772   9.126   2.560  1.2218 -0.1357 -0.3281
24903SOL    HW275288   2.863   9.247   2.562  1.2124 -0.1394  0.8487
24904SOL     OW75289   4.159   7.001   4.771 -0.4845 -0.4497 -0.2111
24904SOL    HW175290   4.175   6.911   4.799 -2.3762 -0.6678  0.2808
24904SOL    HW275291   4.220   7.014   4.699  1.1186 -1.4894  0.8874
24905SOL     OW75292   6.655   4.564   3.654 -0.0426  0.1619  0.4820
24905SOL    HW175293   6.649   4.468   3.662  0.4517  0.0987  0.0960
24905SOL    HW275294   6.564   4.592   3.645 -0.3742 -0.0911  2.5837
24906SOL     OW75295   8.639   9.813   7.848  0.0762 -0.1490 -0.2550
24906SOL    HW175296   8.588   9.800   7.928 -0.7129  0.3404 -0.6654
24906SOL    HW275297   8.597   9.887   7.805 -0.2876 -1.1627 -1.7299
24907SOL     OW75298   9.381   2.099   7.447 -1.0637 -0.0569 -0.1529
24907SOL    HW175299   9.469   2.136   7.440 -1.6944  1.3593 -1.0896
24907SOL    HW275300   9.385   2.017   7.396 -0.0022 -0.6281  0.8114
24908SOL     OW75301   4.477   5.168   0.809  0.0433  0.2010  0.9348
24908SOL    HW175302   4.434   5.206   0.732  2.1511  0.9007  0.0275
24908SOL    HW275303   4.565   5.205   0.808  1.3790 -2.6603  1.5352
24909SOL     OW75304   1.719   8.518   1.042 -0.3282  0.2934  0.3041
24909SOL    HW175305   1.650   8.538   1.105 -1.0758  0.1705 -0.4516
24909SOL    HW275306   1.793   8.488   1.095 -0.1040  2.4184  1.2844
24910SOL     OW75307   0.862   3.601   7.990 -0.4137 -0.0627 -0.2818
24910SOL    HW175308   0.939   3.657   7.989  1.0170 -1.8782 -2.9307
24910SOL    HW275309   0.856   3.570   8.081  2.2720 -0.1982 -0.0777
24911SOL     OW75310   8.320   0.959   7.775 -0.0695 -0.5137  0.6312
24911SOL    HW175311   8.371   1.007   7.711  0.4175 -3.3241 -1.2895
24911SOL    HW275312   8.229   0.970   7.746  0.1138 -1.4021 -0.3735
24912SOL     OW75313   3.640   5.987   9.175 -0.8215  0.1009  0.0224
24912SOL    HW175314   3.725   6.012   9.212 -0.5146  1.3476 -1.4073
24912SOL    HW275315   3.578   5.996   9.247  0.4435 -2.3416  1.5366
24913SOL     OW75316   5.114   9.390   7.207  0.0918  0.1739 -0.3031
24913SOL    HW175317   5.170   9.424   7.138  0.6433 -1.2238 -0.5586
24913SOL    HW275318   5.054   9.330   7.163  0.5430 -0.8462  0.4184
24914SOL     OW75319   2.444   6.251   2.623 -0.5798 -0.4064 -0.0764
24914SOL    HW175320   2.491   6.246   2.540 -1.4435  0.2952 -0.6257
24914SOL    HW275321   2.512   6.237   2.690  0.1851 -0.6234 -0.8826
24915SOL     OW75322   4.730   6.490   6.771 -0.3935 -0.6938  0.2789
24915SOL    HW175323   4.761   6.454   6.854  0.0131 -0.9634  0.0158
24915SOL    HW275324   4.733   6.416   6.710  0.4132 -0.2337 -0.2567
24916SOL     OW75325   3.594   3.869   2.209  0.1391 -0.3314  0.1917
24916SOL    HW175326   3.547   3.952   2.198  1.7852  0.4887 -1.1721
24916SOL    HW275327   3.595   3.855   2.304 -1.4175  0.4378  0.3657
24917SOL     OW75328   7.753   5.244   4.036 -0.2070 -0.2125 -0.3805
24917SOL    HW175329   7.817   5.211   4.098 -2.0794 -1.5673  0.9744
24917SOL    HW275330   7.672   5.250   4.086 -1.8666 -1.5525 -2.6620
24918SOL     OW75331   1.641   9.722   3.678 -0.1209  0.5458  0.1718
24918SOL    HW175332   1.664   9.785   3.745  2.5714 -0.3221  0.1786
24918SOL    HW275333   1.719   9.715   3.623 -1.1497 -1.0581 -1.2031
24919SOL     OW75334   7.237   1.639   2.649 -0.4313 -0.6475  0.3186
24919SOL    HW175335   7.165   1.583   2.676 -1.2318  1.1880  2.2682
24919SOL    HW275336   7.196   1.722   2.625  0.9015 -0.0960 -0.1565
24920SOL     OW75337   9.903   5.666   5.977 -0.6310 -0.2522  0.1983
24920SOL    HW175338   9.841   5.595   5.994  1.0844 -1.9413 -0.1972
24920SOL    HW275339   9.902   5.677   5.882 -0.1379 -0.4939  0.1604
24921SOL     OW75340   0.428   2.394   9.630 -0.5255  0.4168 -0.1441
24921SOL    HW175341   0.349   2.345   9.606  0.1762 -0.5700 -0.4693
24921SOL    HW275342   0.463   2.425   9.547 -1.0387  1.6296  0.0671
24922SOL     OW75343   4.296   3.440   5.980  0.1850  0.3010  0.4029
24922SOL    HW175344   4.281   3.533   5.961  0.3122  0.1202 -0.6221
24922SOL    HW275345   4.232   3.420   6.048  1.1221  1.4855  1.7066
24923SOL     OW75346   4.228   6.663   0.634 -0.6605 -0.4193 -0.6348
24923SOL    HW175347   4.260   6.595   0.694  0.4188 -1.3636 -2.1985
24923SOL    HW275348   4.134   6.664   0.647 -0.5365 -1.2298  0.4438
24924SOL     OW75349   1.976   7.284   6.231 -0.4091 -0.5662 -0.3845
24924SOL    HW175350   1.886   7.293   6.201 -0.6570  1.9236  0.8444
24924SOL    HW275351   1.977   7.204   6.283 -2.1235 -0.2358  0.2116
24925SOL     OW75352   4.459   0.596   3.483 -0.1432 -0.1467  0.0437
24925SOL    HW175353   4.503   0.680   3.471 -1.4125  0.8112  1.7828
24925SOL    HW275354   4.369   0.618   3.506 -0.3475 -1.9597  1.2399
24926SOL     OW75355   5.904   2.313   6.000 -1.0195  0.1377 -0.0055
24926SOL    HW175356   5.998   2.326   6.013 -0.1951 -1.4632 -3.4175
24926SOL    HW275357   5.869   2.402   5.991 -0.0926  0.8050  2.1707
24927SOL     OW75358   2.523   5.100   5.467  0.7595 -0.3010  0.0311
24927SOL    HW175359   2.555   5.092   5.377  1.6275 -0.1419  0.3170
24927SOL    HW275360   2.468   5.023   5.480 -1.8713  1.1040 -1.6108
24928SOL     OW75361   1.451   2.517   8.884  0.2342 -0.0087  0.1565
24928SOL    HW175362   1.359   2.538   8.870  0.7123  1.6586 -0.7829
24928SOL    HW275363   1.476   2.570   8.959  0.4922 -0.3198  0.2934
24929SOL     OW75364   9.038   2.433   3.606  0.5925 -0.5997  0.0565
24929SOL    HW175365   8.966   2.370   3.598  0.8498 -0.9795  0.6149
24929SOL    HW275366   9.117   2.380   3.599  0.8252 -0.1770 -0.5914
24930SOL     OW75367   7.874   0.318   7.172 -0.2411  0.1282  0.3434
24930SOL    HW175368   7.788   0.360   7.166 -0.2423 -0.0433 -2.3481
24930SOL    HW275369   7.936   0.391   7.170 -0.3110  0.1969  0.7321
24931SOL     OW75370   6.301   1.681   5.665 -0.3909  0.1968 -0.5734
24931SOL    HW175371   6.347   1.644   5.741  0.1385  2.6765  0.4460
24931SOL    HW275372   6.300   1.611   5.601  0.1494 -1.6576  1.3220
24932SOL     OW75373   9.101   6.316   1.661  0.5729 -0.1250  0.1775
24932SOL    HW175374   9.149   6.234   1.668 -1.0213 -1.0737  0.4419
24932SOL    HW275375   9.130   6.367   1.736  2.2223 -0.0402 -0.4533
24933SOL     OW75376   1.038   9.198   5.683  0.3594 -0.2910  0.5955
24933SOL    HW175377   1.058   9.266   5.748 -0.3370  1.5737 -1.0515
24933SOL    HW275378   1.109   9.203   5.620 -1.1145  0.9169 -1.0527
24934SOL     OW75379   2.361   6.384   8.173  0.6053  0.0492  0.5009
24934SOL    HW175380   2.433   6.378   8.110 -0.1057 -1.1694 -0.2255
24934SOL    HW275381   2.394   6.338   8.250  0.8298  0.0143  0.3868
24935SOL     OW75382   4.404   6.795   0.859  0.3423 -0.5353 -0.1136
24935SOL    HW175383   4.334   6.798   0.925  1.1162  0.8451  0.6896
24935SOL    HW275384   4.358   6.777   0.777 -0.7847 -1.0960  0.6086
24936SOL     OW75385   0.291   3.538   4.169 -0.5530  0.2782  0.3600
24936SOL    HW175386   0.278   3.444   4.183  3.0096 -0.4552 -0.3319
24936SOL    HW275387   0.350   3.564   4.239  0.3865  1.4180 -0.8049
24937SOL     OW75388   2.949   5.646   1.693 -0.6220 -1.0724 -0.1001
24937SOL    HW175389   2.940   5.619   1.784 -2.0858  0.1297  0.1544
24937SOL    HW275390   2.864   5.684   1.671  0.4592  0.8486 -1.2260
24938SOL     OW75391   6.434   4.983   9.923  0.5657 -0.1586  0.3296
24938SOL    HW175392   6.431   5.072   9.887  0.1789 -0.6821 -0.9721
24938SOL    HW275393   6.369   4.984   9.994  1.5784  0.9766  1.2949
24939SOL     OW75394   0.319   4.142   0.344 -0.0626  0.0143  0.1920
24939SOL    HW175395   0.354   4.060   0.308 -1.7788 -0.2005 -1.1418
24939SOL    HW275396   0.358   4.148   0.431 -1.3509 -3.2691  1.1571
24940SOL     OW75397   7.455   6.893   7.617  0.1429  0.2326 -0.0897
24940SOL    HW175398   7.422   6.810   7.651  1.2905  0.1313  0.8310
24940SOL    HW275399   7.472   6.876   7.525 -0.7367 -0.2048 -0.1826
24941SOL     OW75400   7.849   5.487   8.537 -0.4300  0.0100 -0.6634
24941SOL    HW175401   7.862   5.393   8.520 -1.4044 -0.1583 -0.5416
24941SOL    HW275402   7.757   5.494   8.565 -0.9232  1.2257 -2.4033
24942SOL     OW75403   9.526   2.780   2.154 -0.1106  0.6407  0.3375
24942SOL    HW175404   9.526   2.734   2.070  0.6647  1.3876 -0.0839
24942SOL    HW275405   9.456   2.738   2.204  2.4679 -3.1699  1.1922
24943SOL     OW75406   0.311   8.664   0.449  0.3912  0.4226 -0.2332
24943SOL    HW175407   0.292   8.752   0.414  1.2409  0.4930 -0.5357
24943SOL    HW275408   0.358   8.681   0.531  1.7427  0.2542 -0.9623
24944SOL     OW75409   6.202   0.194   9.699 -0.3453 -0.4017  0.0080
24944SOL    HW175410   6.278   0.145   9.730  0.4671  0.1074 -1.0941
24944SOL    HW275411   6.239   0.262   9.642 -1.6854 -1.0129 -1.6969
24945SOL     OW75412   3.317   9.379   1.697 -0.6083  0.5799  0.1132
24945SOL    HW175413   3.405   9.353   1.668 -0.6251 -0.3182  0.8183
24945SOL    HW275414   3.272   9.404   1.617 -0.1417 -0.2845 -0.4326
24946SOL     OW75415   7.369   3.468   4.970  0.6236  0.8265  0.1087
24946SOL    HW175416   7.405   3.444   4.884 -0.8973 -0.2739 -0.2646
24946SOL    HW275417   7.365   3.563   4.968  1.1017  0.8375 -0.8482
24947SOL     OW75418   6.153   8.975   2.238  0.1199  0.2721  0.2217
24947SOL    HW175419   6.111   8.905   2.288 -0.9510  0.9664  0.3183
24947SOL    HW275420   6.214   8.929   2.179 -0.9716 -0.7858 -0.1252
24948SOL     OW75421   5.206   1.341   4.854 -0.4357  0.2179  0.1742
24948SOL    HW175422   5.179   1.412   4.913 -0.6695 -0.2528  0.6368
24948SOL    HW275423   5.130   1.284   4.848 -1.0513  1.1412 -1.9714
24949SOL     OW75424   5.007   9.199   7.661  0.3994 -0.4056  0.6111
24949SOL    HW175425   4.971   9.173   7.576  0.1018  1.5610  0.0991
24949SOL    HW275426   5.101   9.210   7.645  0.6452 -1.7101  0.9981
24950SOL     OW75427   3.970   2.286   6.963 -0.5237  0.0890  0.0121
24950SOL    HW175428   4.051   2.314   6.920  0.2118  0.1823  1.3887
24950SOL    HW275429   3.901   2.332   6.916  0.1780 -0.2797 -1.4343
24951SOL     OW75430   6.459   1.612   8.026  0.1664  0.3270  0.2027
24951SOL    HW175431   6.404   1.661   7.965  1.1827 -0.6036 -1.5436
24951SOL    HW275432   6.539   1.592   7.976  1.0225 -0.5375  1.8199
24952SOL     OW75433   6.122   3.386   9.582 -0.2571 -0.0759  0.0765
24952SOL    HW175434   6.111   3.439   9.661 -0.3914 -0.2660  0.1871
24952SOL    HW275435   6.057   3.316   9.591 -0.1993 -0.1590 -0.1508
24953SOL     OW75436   5.078   1.020   6.957 -0.7158  0.2021 -0.0894
24953SOL    HW175437   5.105   1.012   7.048 -0.5764  0.5236 -0.1023
24953SOL    HW275438   5.111   0.940   6.915  0.3857  0.6799 -0.1471
24954SOL     OW75439   2.058   9.806   8.733 -0.5892 -0.1381  0.0524
24954SOL    HW175440   2.145   9.832   8.764 -0.2810 -1.1143  0.0553
24954SOL    HW275441   2.040   9.724   8.780 -2.1730  0.8033  1.2147
24955SOL     OW75442   4.688   9.152   6.920  0.0358  0.6090  0.0586
24955SOL    HW175443   4.606   9.139   6.968  1.0773 -0.9229  1.5543
24955SOL    HW275444   4.666   9.133   6.829 -1.2624  0.1126  0.4512
24956SOL     OW75445   0.796   1.759   7.270  0.0399  0.2004 -0.0690
24956SOL    HW175446   0.778   1.713   7.352  1.3279  0.7711  0.5637
24956SOL    HW275447   0.866   1.708   7.229 -1.3550 -0.7184 -1.3857
24957SOL     OW75448   3.549   0.462   3.056  0.2827  0.6727  0.6467
24957SOL    HW175449   3.476   0.416   3.096 -0.0430  2.3830  2.1488
24957SOL    HW275450   3.592   0.396   3.001 -1.5487 -0.7258  0.8039
24958SOL     OW75451   3.006   8.212   4.175  0.2612 -0.3484  0.7300
24958SOL    HW175452   2.979   8.229   4.265 -0.1020  0.2534  0.5153
24958SOL    HW275453   3.097   8.242   4.171  1.2485 -2.9065  1.6102
24959SOL     OW75454   5.675   7.644   2.653 -0.5500  0.1427  0.0137
24959SOL    HW175455   5.697   7.594   2.575  0.6367 -1.2611  1.2000
24959SOL    HW275456   5.746   7.708   2.662  0.2910 -0.8733  0.8872
24960SOL     OW75457   3.942   2.832   3.521  0.6099 -0.1759 -0.1110
24960SOL    HW175458   4.007   2.875   3.576  1.3127 -0.8782 -0.3719
24960SOL    HW275459   3.990   2.760   3.479 -0.1647 -0.2865 -0.8344
24961SOL     OW75460   2.787   4.814   1.615 -0.0490 -0.8984  0.1692
24961SOL    HW175461   2.707   4.819   1.564  0.2674 -0.0925 -0.2613
24961SOL    HW275462   2.759   4.826   1.706 -0.1972  1.6148 -0.1541
24962SOL     OW75463   2.364   3.613   5.482 -0.0214  0.3196  0.1730
24962SOL    HW175464   2.370   3.698   5.526 -0.6623 -0.0182  0.9414
24962SOL    HW275465   2.365   3.633   5.389  0.6864  1.1063  0.3370
24963SOL     OW75466   8.530   2.845   5.997  0.3724 -0.0349  0.0539
24963SOL    HW175467   8.482   2.785   5.940 -0.8444  1.5095 -0.6226
24963SOL    HW275468   8.583   2.898   5.937  2.1798 -0.9986  0.7127
24964SOL     OW75469   8.655   0.439   2.106  0.3107  0.0500 -0.3787
24964SOL    HW175470   8.713   0.516   2.110  0.8842 -0.3770 -0.2771
24964SOL    HW275471   8.657   0.403   2.195 -0.8905  0.5779 -0.1149
24965SOL     OW75472   8.910   6.847   8.555 -0.0822  0.2626  0.4384
24965SOL    HW175473   8.910   6.938   8.526 -1.8977  0.3259  0.5166
24965SOL    HW275474   8.864   6.848   8.639  2.1707 -0.3971  1.7641
24966SOL     OW75475   8.160   9.463   9.244  0.2133  0.7712 -0.1896
24966SOL    HW175476   8.156   9.398   9.314  1.0974 -0.4784 -1.2407
24966SOL    HW275477   8.132   9.545   9.285 -0.3394 -0.1402  1.3326
24967SOL     OW75478   5.807   1.589   3.251  0.5666 -0.4642  0.4874
24967SOL    HW175479   5.769   1.506   3.278  0.3181 -0.4165  0.2970
24967SOL    HW275480   5.739   1.629   3.195  0.8941 -0.3673  0.1596
24968SOL     OW75481   3.809   1.710   5.563  0.2889  0.0157 -0.1200
24968SOL    HW175482   3.846   1.719   5.650  0.7305  0.1676 -0.3244
24968SOL    HW275483   3.800   1.615   5.551 -0.1726  0.0081  0.2543
24969SOL     OW75484   5.368   8.748   1.803 -0.1258 -0.0010  0.5208
24969SOL    HW175485   5.360   8.779   1.713 -1.6921 -0.0285  0.6102
24969SOL    HW275486   5.457   8.771   1.830  0.3863 -0.0569 -1.0457
24970SOL     OW75487   2.273   4.340   3.395  0.4596  0.5216 -0.8750
24970SOL    HW175488   2.362   4.310   3.378  0.3348 -0.8273  0.5790
24970SOL    HW275489   2.282   4.407   3.462  0.3254 -0.4263  0.1155
24971SOL     OW75490   7.540   7.508   7.678 -0.0704 -0.6321 -0.3572
24971SOL    HW175491   7.635   7.516   7.684 -0.1093 -0.4729  0.0748
24971SOL    HW275492   7.523   7.414   7.680  0.1073 -0.6768 -0.9215
24972SOL     OW75493   8.452   1.224   2.562  0.6642  0.3241  0.4572
24972SOL    HW175494   8.538   1.184   2.572  0.2151 -0.4047  1.4460
24972SOL    HW275495   8.428   1.252   2.650 -1.4304 -2.2448  0.8205
24973SOL     OW75496   2.468   5.237   2.920 -0.3702  1.3079  0.0455
24973SOL    HW175497   2.426   5.314   2.879  0.0145  0.5215 -1.9587
24973SOL    HW275498   2.417   5.163   2.886  1.3179  0.4802 -0.7700
24974SOL     OW75499   3.460   0.788   4.401 -0.1415  0.5286  0.0820
24974SOL    HW175500   3.391   0.777   4.467 -2.2133 -0.4288 -2.0988
24974SOL    HW275501   3.489   0.879   4.411 -2.4492  1.2818  0.4730
24975SOL     OW75502   1.994   0.497   6.089 -0.1631 -0.1497  0.1375
24975SOL    HW175503   1.944   0.578   6.083 -0.1782 -0.1304  0.5242
24975SOL    HW275504   2.062   0.515   6.153  1.9196  0.6587 -2.1579
24976SOL     OW75505   5.942   4.124   7.980  0.0323 -0.4544  0.3970
24976SOL    HW175506   5.963   4.037   8.012  0.1264 -0.7221 -0.3816
24976SOL    HW275507   6.012   4.180   8.016  0.0013 -0.7028  0.8495
24977SOL     OW75508   4.724   8.131   6.455  0.1713  0.5226  0.1106
24977SOL    HW175509   4.801   8.076   6.437 -0.5936  0.0351 -2.0650
24977SOL    HW275510   4.736   8.207   6.398  0.2908  1.7605  1.7138
24978SOL     OW75511   5.449   6.588   2.068  0.3142  0.1555 -0.2346
24978SOL    HW175512   5.486   6.626   2.148  0.9905 -1.0632  0.0581
24978SOL    HW275513   5.377   6.533   2.099  0.6170 -0.3687 -0.4498
24979SOL     OW75514   1.462   9.882   9.887  0.5774  0.2690  0.0753
24979SOL    HW175515   1.396   9.902   9.953  0.1159  0.8715 -0.5581
24979SOL    HW275516   1.425   9.808   9.839 -0.3489  1.5148 -1.2191
24980SOL     OW75517   5.393   5.968   6.585 -0.5931  0.1188  0.0290
24980SOL    HW175518   5.451   5.931   6.519 -0.3614  0.3705  0.0921
24980SOL    HW275519   5.358   6.047   6.545 -0.6770  0.1179  0.0987
24981SOL     OW75520   0.654   5.604   7.324  0.1215 -0.3717  0.8632
24981SOL    HW175521   0.741   5.624   7.358  0.1868  2.4656 -0.6135
24981SOL    HW275522   0.625   5.686   7.285 -3.2073 -1.2422  1.2036
24982SOL     OW75523   0.377   6.926   2.823 -0.1183 -0.5241  0.0724
24982SOL    HW175524   0.465   6.935   2.784 -0.9676 -0.2374 -1.9202
24982SOL    HW275525   0.335   6.858   2.770 -1.6182  0.4450 -0.0172
24983SOL     OW75526   8.220   1.508   2.070 -0.2504 -0.0136  0.6260
24983SOL    HW175527   8.143   1.549   2.031 -0.3012 -1.0707 -0.4121
24983SOL    HW275528   8.293   1.564   2.043 -0.4538  0.0385  0.1712
24984SOL     OW75529   3.275   0.793   3.819  0.1810 -0.0969  0.6731
24984SOL    HW175530   3.334   0.773   3.893  2.9566  0.1439 -1.3201
24984SOL    HW275531   3.333   0.821   3.749 -2.5123  1.8672 -0.9662
24985SOL     OW75532   7.445   4.947   2.668 -0.6170  0.5470 -0.3304
24985SOL    HW175533   7.442   5.006   2.593 -1.8489  1.0036  0.0516
24985SOL    HW275534   7.412   4.864   2.635 -0.6671  0.6008 -0.4158
24986SOL     OW75535   4.925   2.504   8.497 -0.4064 -0.4269  0.2188
24986SOL    HW175536   4.897   2.440   8.432  1.4272  0.4202 -1.5086
24986SOL    HW275537   4.851   2.564   8.506 -0.3410  0.0442 -1.9412
24987SOL     OW75538   5.517   9.178   6.353 -0.1864  0.6450 -0.2843
24987SOL    HW175539   5.596   9.226   6.379  0.6955 -1.0577  0.3565
24987SOL    HW275540   5.550   9.092   6.328 -2.0614 -1.3154  3.1994
24988SOL     OW75541   2.331   4.812   9.160 -0.0932  0.1584  0.2618
24988SOL    HW175542   2.370   4.748   9.100  0.1266 -0.7562  1.3537
24988SOL    HW275543   2.338   4.896   9.113 -0.8118 -0.6557 -1.3902
24989SOL     OW75544   7.036   8.246   3.129 -0.2085 -0.9199 -0.1642
24989SOL    HW175545   6.958   8.242   3.185 -0.9633  0.1444 -1.0872
24989SOL    HW275546   7.047   8.157   3.097 -0.7511 -1.1871  0.3807
24990SOL     OW75547   8.366   8.556   8.880 -0.1691 -1.0635  0.9416
24990SOL    HW175548   8.307   8.498   8.832 -2.5016 -0.6427  3.0821
24990SOL    HW275549   8.362   8.525   8.971  1.4497  0.1783  1.4892
24991SOL     OW75550   6.463   3.772   3.747  0.4305  0.5232  0.2081
24991SOL    HW175551   6.459   3.739   3.837 -0.2691 -0.5864 -0.2071
24991SOL    HW275552   6.508   3.704   3.698  0.3746  0.9018 -0.3777
24992SOL     OW75553   5.522   7.378   7.232 -0.1267 -0.0914 -0.2641
24992SOL    HW175554   5.492   7.287   7.239  1.2862 -0.6675 -1.1299
24992SOL    HW275555   5.445   7.430   7.252 -1.1880 -1.4772 -0.5523
24993SOL     OW75556   6.181   9.916   7.112  0.5106  0.4876  0.3807
24993SOL    HW175557   6.214   9.876   7.031 -0.0425 -0.8838  0.8083
24993SOL    HW275558   6.154  10.004   7.085  1.0086  0.3135 -0.7665
24994SOL     OW75559   5.037   8.230   7.728 -0.3156 -0.3311 -0.5543
24994SOL    HW175560   5.125   8.195   7.735 -0.2461 -0.6950 -2.5333
24994SOL    HW275561   5.015   8.259   7.816  2.2186  0.8660 -0.2490
24995SOL     OW75562   0.467   4.300   6.223 -0.2801 -0.0500 -0.2386
24995SOL    HW175563   0.466   4.260   6.310 -2.0635 -0.7049 -0.5170
24995SOL    HW275564   0.379   4.336   6.212  0.6120  2.1486 -0.8619
24996SOL     OW75565   7.523   6.778   2.045  0.8045  0.5103  0.4636
24996SOL    HW175566   7.428   6.786   2.031  0.9899  1.1103 -0.6794
24996SOL    HW275567   7.540   6.825   2.127  0.0787  0.1470  0.8250
24997SOL     OW75568   2.770   1.015   4.239 -0.3414  0.0357 -0.4629
24997SOL    HW175569   2.696   1.076   4.245 -0.6006 -0.1288 -1.7335
24997SOL    HW275570   2.737   0.933   4.275 -0.2733  0.3714  0.4068
24998SOL     OW75571   8.750   5.547   0.451 -0.5867  0.0909  0.0992
24998SOL    HW175572   8.785   5.577   0.535  1.1646  0.0837 -0.5926
24998SOL    HW275573   8.662   5.516   0.472 -1.0686  2.1768  1.5321
24999SOL     OW75574   8.528   7.993   1.797  0.0461 -0.6385 -0.6927
24999SOL    HW175575   8.546   7.936   1.872  2.8833 -0.7116 -1.3017
24999SOL    HW275576   8.546   8.081   1.829 -0.8412 -0.4353 -0.7289
25000SOL     OW75577   4.328   3.485   2.946 -0.4500  0.1547 -0.4246
25000SOL    HW175578   4.282   3.568   2.957  0.2131  0.6871 -1.5251
25000SOL    HW275579   4.365   3.466   3.032  3.3402  3.4207 -1.0395
25001SOL     OW75580   0.338   7.637   2.962 -0.2474  0.6188  0.5529
25001SOL    HW175581   0.279   7.579   3.010  2.7142 -1.3136  2.2233
25001SOL    HW275582   0.375   7.581   2.893  0.5580  1.3522  0.3727
25002SOL     OW75583   9.704   2.546   2.551 -0.3647 -0.5984 -0.3094
25002SOL    HW175584   9.725   2.571   2.461  0.0343 -0.7895 -0.2688
25002SOL    HW275585   9.608   2.543   2.553 -0.3797 -2.8567 -1.3571
25003SOL     OW75586   5.676   7.559   0.962  0.4345 -0.3990 -0.0978
25003SOL    HW175587   5.724   7.507   0.897  0.5330 -3.7414  2.3894
25003SOL    HW275588   5.589   7.571   0.924  0.7265 -1.5511 -1.2097
25004SOL     OW75589   9.904   2.620   0.664 -0.1875  0.4063 -0.5772
25004SOL    HW175590   9.932   2.541   0.618 -1.0624  0.4294 -1.1862
25004SOL    HW275591   9.831   2.592   0.719  0.2843  0.5593  0.1446
25005SOL     OW75592   6.936   5.032   0.094  0.6717 -0.4441 -0.2741
25005SOL    HW175593   6.969   5.114   0.057 -0.3940  0.2142  0.1910
25005SOL    HW275594   6.867   5.059   0.154 -0.6121 -1.7720 -1.0881
25006SOL     OW75595   2.545   5.761   9.355  0.2877  0.0317 -0.2525
25006SOL    HW175596   2.530   5.712   9.436  1.1343 -1.5602 -0.9959
25006SOL    HW275597   2.524   5.851   9.376 -0.8218 -0.5667  1.3587
25007SOL     OW75598   0.614   4.468   4.536  0.5363 -0.5456  0.0851
25007SOL    HW175599   0.535   4.481   4.588  0.5829  0.1654 -0.0192
25007SOL    HW275600   0.684   4.461   4.601  0.6764  0.9125  0.1210
25008SOL     OW75601   0.966   1.295   0.665  0.3383 -0.3126 -0.4090
25008SOL    HW175602   0.966   1.285   0.570 -0.4476 -1.4417 -0.3089
25008SOL    HW275603   0.895   1.238   0.695  2.1236 -1.8937  1.0346
25009SOL     OW75604   2.612   1.881   6.068 -0.1915  0.3419 -0.3040
25009SOL    HW175605   2.573   1.811   6.016  0.9930 -2.8975  2.7459
25009SOL    HW275606   2.704   1.881   6.043  0.0299 -0.0251  0.4775
25010SOL     OW75607   5.992   8.215   8.106  0.1681 -0.0595  0.2674
25010SOL    HW175608   5.906   8.225   8.064  0.3477  1.3077  0.1760
25010SOL    HW275609   6.032   8.141   8.062 -0.5169 -0.0022 -0.4711
25011SOL     OW75610   2.565   5.130   5.881 -0.0959 -0.1394 -0.4128
25011SOL    HW175611   2.486   5.083   5.853  1.3398 -2.5557 -0.7057
25011SOL    HW275612   2.555   5.140   5.975 -1.0350  0.1494 -0.5345
25012SOL     OW75613   5.240   2.413   8.161 -1.1680 -0.0525 -0.0882
25012SOL    HW175614   5.326   2.445   8.134 -1.0534 -0.7215 -0.5356
25012SOL    HW275615   5.236   2.431   8.255 -0.7921  0.5317 -0.1773
25013SOL     OW75616   3.606   7.019   5.164 -0.5807  0.4640 -0.1261
25013SOL    HW175617   3.611   7.000   5.258  0.0292 -0.3077 -0.3110
25013SOL    HW275618   3.534   6.965   5.132 -0.3835  0.2586 -0.2202
25014SOL     OW75619   1.481   1.148   5.846 -0.3302 -0.3625  0.0178
25014SOL    HW175620   1.435   1.224   5.809 -0.9674  0.0735  1.6392
25014SOL    HW275621   1.553   1.132   5.785 -0.4781  1.2379 -0.6300
25015SOL     OW75622   5.392   4.913   4.953 -0.0195  0.0031 -0.1436
25015SOL    HW175623   5.320   4.890   5.012 -0.1983  1.2406  0.1575
25015SOL    HW275624   5.413   5.004   4.975  1.2738 -0.1561 -0.6077
25016SOL     OW75625   9.835   9.264   6.975 -0.6674 -0.3702 -0.3117
25016SOL    HW175626   9.915   9.284   6.927 -0.7307  0.9446  0.0980
25016SOL    HW275627   9.771   9.242   6.908 -0.7397  1.3840 -0.8457
25017SOL     OW75628   2.346   1.711   4.487 -0.0370 -0.4130 -0.2492
25017SOL    HW175629   2.342   1.620   4.514  0.0648 -1.0830 -2.2725
25017SOL    HW275630   2.414   1.713   4.419 -0.8784  0.9000 -1.1087
25018SOL     OW75631   4.584   7.303   6.295 -0.0614  0.0572 -0.1276
25018SOL    HW175632   4.548   7.292   6.382 -0.9169  0.6619 -0.3899
25018SOL    HW275633   4.558   7.392   6.269 -0.3606 -0.3420 -1.2452
25019SOL     OW75634   2.679   8.929   6.110 -0.3142 -0.7002 -0.2101
25019SOL    HW175635   2.701   9.007   6.060  0.7745 -0.5810  0.4167
25019SOL    HW275636   2.604   8.955   6.163 -1.0934 -0.6465 -1.3095
25020SOL     OW75637   8.098   7.108   7.783 -0.1367 -0.3365  0.2203
25020SOL    HW175638   8.117   7.014   7.777  1.7278 -0.1339  1.9371
25020SOL    HW275639   8.005   7.112   7.807 -0.7051 -1.6487 -1.5682
25021SOL     OW75640   1.321   9.070   4.123 -0.5630 -0.1607  0.0045
25021SOL    HW175641   1.345   9.152   4.079  1.9713 -0.7504  0.1392
25021SOL    HW275642   1.320   9.005   4.053  2.3863 -0.8832  0.4677
25022SOL     OW75643   1.483   9.033   6.914 -0.1776 -0.3091 -0.3803
25022SOL    HW175644   1.553   9.095   6.933 -1.9032  1.1791  1.5829
25022SOL    HW275645   1.485   9.022   6.819  1.8511  0.6679 -0.4998
25023SOL     OW75646   2.985   7.986   0.074 -0.5246  0.2896  0.8788
25023SOL    HW175647   3.057   7.966   0.134  0.2067  0.8011  0.1898
25023SOL    HW275648   2.951   8.070   0.105 -0.4247  0.3470  0.8335
25024SOL     OW75649   4.456   2.550   2.721  0.0810 -0.1467  0.2968
25024SOL    HW175650   4.503   2.470   2.699  0.7002  0.4458 -0.5913
25024SOL    HW275651   4.518   2.621   2.701  0.2704  0.5106  2.8195
25025SOL     OW75652   9.050   8.638   9.099  0.0488  0.3233  0.4722
25025SOL    HW175653   9.123   8.592   9.058 -0.3045  0.4621 -0.3345
25025SOL    HW275654   9.092   8.707   9.151  0.5036  0.2837  0.1696
25026SOL     OW75655   1.725   3.109   4.789  0.2349  0.0266  0.2819
25026SOL    HW175656   1.696   3.110   4.698  0.8692 -1.5149  0.0272
25026SOL    HW275657   1.730   3.201   4.813 -0.0609  0.4652 -1.2037
25027SOL     OW75658   9.096   2.978   1.353  0.0473 -1.0102  0.4850
25027SOL    HW175659   9.139   3.062   1.370 -1.9955 -0.0853  1.5805
25027SOL    HW275660   9.119   2.957   1.263 -0.4666  1.4778 -0.3190
25028SOL     OW75661   0.111   5.314   0.736  0.0697  0.0292 -0.5545
25028SOL    HW175662   0.116   5.397   0.688  0.1790  0.0200 -0.5605
25028SOL    HW275663   0.028   5.276   0.710 -0.0670  0.2231 -0.4117
25029SOL     OW75664   7.684   0.866   7.573  0.1214  0.4528  0.5432
25029SOL    HW175665   7.666   0.813   7.496  0.3850 -0.0935  0.8535
25029SOL    HW275666   7.715   0.950   7.538 -0.6172  0.5234  0.0530
25030SOL     OW75667   3.982   3.130   5.521  0.1605 -0.1457  0.8639
25030SOL    HW175668   3.889   3.124   5.499  0.5538  0.2157 -1.1645
25030SOL    HW275669   4.019   3.045   5.496  0.2807 -0.5333  2.2994
25031SOL     OW75670   5.892   9.607   7.624 -0.1773  0.1512  0.3411
25031SOL    HW175671   5.850   9.591   7.708  0.4509 -0.3403  0.5594
25031SOL    HW275672   5.928   9.696   7.631 -1.1597  0.5788  0.1526
25032SOL     OW75673   4.297   2.459   6.740  0.3484 -0.8144  0.3325
25032SOL    HW175674   4.277   2.476   6.832  2.2587  0.3517  0.6070
25032SOL    HW275675   4.281   2.542   6.696  1.3522 -0.7797  0.0018
25033SOL     OW75676   1.499   6.187   0.688  0.1073 -0.0806 -0.1818
25033SOL    HW175677   1.432   6.255   0.687  0.0928 -0.0013  1.7987
25033SOL    HW275678   1.521   6.176   0.781  2.0250 -0.9049 -0.6777
25034SOL     OW75679   6.617   1.464   1.810 -0.3762 -0.2489 -0.2493
25034SOL    HW175680   6.568   1.442   1.732 -0.5176 -2.3324  0.3612
25034SOL    HW275681   6.662   1.382   1.835  2.9728  1.3495 -0.4401
25035SOL     OW75682   4.461   7.271   6.788 -0.4315  0.3522 -0.2586
25035SOL    HW175683   4.393   7.338   6.798 -1.6111 -0.4987 -2.0528
25035SOL    HW275684   4.519   7.284   6.863 -2.1609  1.5913  0.9432
25036SOL     OW75685   1.765   3.080   8.366  0.2176 -0.1508 -0.5724
25036SOL    HW175686   1.857   3.061   8.346  0.9133  1.0890  1.1887
25036SOL    HW275687   1.735   3.133   8.292  1.8088  1.8158  0.0827
25037SOL     OW75688   6.063   2.285   7.191  0.4452 -0.4594 -0.4322
25037SOL    HW175689   6.051   2.192   7.213  0.9134 -0.1076  1.4860
25037SOL    HW275690   6.088   2.284   7.099  1.5223 -2.3382 -0.1769
25038SOL     OW75691   5.152   4.608   6.283 -0.2071  0.2255  0.2123
25038SOL    HW175692   5.181   4.694   6.253  0.1736 -0.8094 -2.6872
25038SOL    HW275693   5.057   4.613   6.285 -0.3281  0.0918 -2.3169
25039SOL     OW75694   5.869   5.633   1.141 -0.3034 -0.1962  0.4500
25039SOL    HW175695   5.858   5.683   1.060 -0.1559  0.5591  0.8800
25039SOL    HW275696   5.915   5.553   1.114 -0.1256  0.1126 -0.1876
25040SOL     OW75697   2.760   6.404   6.115  0.2442 -0.4973 -0.4236
25040SOL    HW175698   2.832   6.349   6.086  1.6328  1.6134 -1.1832
25040SOL    HW275699   2.800   6.466   6.176 -0.6340  1.4460 -1.7190
25041SOL     OW75700   7.591   4.412   3.189 -0.5688  0.5003  0.0254
25041SOL    HW175701   7.592   4.377   3.100 -1.0036  0.2880  0.1027
25041SOL    HW275702   7.502   4.395   3.220  0.0532 -1.0013  1.1183
25042SOL     OW75703   8.249   2.444   4.860 -0.3239 -0.4126 -0.0790
25042SOL    HW175704   8.282   2.421   4.773 -2.0819 -1.9643 -0.4052
25042SOL    HW275705   8.252   2.362   4.909 -0.1189  0.2685  1.0887
25043SOL     OW75706   6.710   4.618   7.408 -0.0798  0.2227 -0.0669
25043SOL    HW175707   6.645   4.577   7.352 -0.2142 -0.4498  0.5576
25043SOL    HW275708   6.680   4.599   7.497  0.0554  1.3824  0.2418
25044SOL     OW75709   4.228   9.758   6.835  0.5240  0.2566 -0.2416
25044SOL    HW175710   4.188   9.836   6.875  0.8001 -0.0374  0.6330
25044SOL    HW275711   4.318   9.759   6.867  0.7312 -0.0377 -0.8045
25045SOL     OW75712   6.291   9.315   1.216 -0.4634 -0.4461 -0.4362
25045SOL    HW175713   6.365   9.310   1.156  1.3435  0.1996  1.5985
25045SOL    HW275714   6.330   9.312   1.303 -2.7234  1.3219  0.7603
25046SOL     OW75715   9.644   3.032   2.985  0.2699  0.1930 -0.2808
25046SOL    HW175716   9.735   3.002   2.977  0.4322  0.6261 -0.0678
25046SOL    HW275717   9.624   3.019   3.078 -1.1462 -3.5158 -0.9055
25047SOL     OW75718   5.685   8.789   3.120 -0.1688 -0.2325  0.1610
25047SOL    HW175719   5.591   8.804   3.116 -0.2645  0.6601  3.1919
25047SOL    HW275720   5.694   8.696   3.140 -0.4573 -0.1393  0.7394
25048SOL     OW75721   5.991   6.440   4.489  0.1156 -0.2367 -0.5795
25048SOL    HW175722   5.966   6.386   4.414  0.9522 -2.0072  0.3518
25048SOL    HW275723   5.966   6.388   4.565 -0.2846  1.3183  0.3939
25049SOL     OW75724   4.505   9.909   7.818  0.2673  0.2534 -0.7120
25049SOL    HW175725   4.583   9.957   7.848 -1.0272  1.7545  0.4313
25049SOL    HW275726   4.494   9.839   7.882  0.2629  0.4903 -0.4499
25050SOL     OW75727   3.722   7.479   2.659  0.7180 -0.2437 -0.5998
25050SOL    HW175728   3.796   7.478   2.598  2.2127 -0.4362  1.1149
25050SOL    HW275729   3.662   7.544   2.623  0.8278 -1.3599 -3.0105
25051SOL     OW75730   1.251   0.659   2.912  0.3467  0.0770 -0.4400
25051SOL    HW175731   1.172   0.709   2.935  0.1298 -0.8325  0.8690
25051SOL    HW275732   1.256   0.590   2.978  1.2779 -0.9503 -1.5409
25052SOL     OW75733   1.393   2.529   6.228  0.0274  0.0013  0.1825
25052SOL    HW175734   1.365   2.583   6.154  0.6002  0.9833  0.6784
25052SOL    HW275735   1.313   2.483   6.255 -0.1661 -0.4698 -1.1036
25053SOL     OW75736   4.070   2.032   4.251 -0.2773 -0.4269  0.3420
25053SOL    HW175737   4.080   2.050   4.158  0.1893  0.8296  0.6159
25053SOL    HW275738   4.134   1.964   4.270  0.0601 -0.2435 -0.1385
25054SOL     OW75739   8.707   4.823   9.828  0.5677  0.0572 -0.5506
25054SOL    HW175740   8.631   4.777   9.864 -0.8440  1.7068 -1.2644
25054SOL    HW275741   8.772   4.754   9.814 -0.0122 -1.1148  1.9603
25055SOL     OW75742   2.398   4.629   6.161 -0.4369  0.2130  0.1347
25055SOL    HW175743   2.316   4.644   6.207 -0.9409 -0.8172 -0.3863
25055SOL    HW275744   2.404   4.702   6.099 -1.2575  0.0016 -0.2143
25056SOL     OW75745   7.191   1.646   7.188  0.6416  0.8544  0.7038
25056SOL    HW175746   7.183   1.591   7.110 -2.0744  1.2027  0.6329
25056SOL    HW275747   7.233   1.726   7.156 -0.7558  1.1350 -0.5393
25057SOL     OW75748   3.621   0.719   0.559 -0.1265  0.1603  0.0419
25057SOL    HW175749   3.673   0.795   0.584  0.1840  0.1559 -0.5801
25057SOL    HW275750   3.616   0.723   0.464 -1.3611  0.2168  0.0916
25058SOL     OW75751   5.912   8.978   4.912 -0.3458  0.3445 -0.0620
25058SOL    HW175752   6.001   9.007   4.929 -0.3776  0.0819  0.5929
25058SOL    HW275753   5.867   9.055   4.879  0.3365  0.2703 -1.2211
25059SOL     OW75754   6.741   0.516   8.860 -0.4343 -0.3722 -0.3787
25059SOL    HW175755   6.733   0.606   8.831 -2.6576 -0.7116 -0.9703
25059SOL    HW275756   6.743   0.522   8.956 -0.3462  0.2967 -0.4186
25060SOL     OW75757   8.602   5.579   6.638  0.2282 -0.1320 -0.5084
25060SOL    HW175758   8.681   5.578   6.584 -0.3510 -0.1813 -1.3702
25060SOL    HW275759   8.632   5.554   6.725  1.2275  0.2401 -0.7359
25061SOL     OW75760   4.223   7.842   1.035  0.7882 -0.6176  0.4421
25061SOL    HW175761   4.261   7.760   1.066  0.9661 -0.7147 -0.0319
25061SOL    HW275762   4.198   7.825   0.945 -0.7052 -0.6521  0.8396
25062SOL     OW75763   2.440   5.517   1.256  0.1732 -0.3398  0.6192
25062SOL    HW175764   2.464   5.512   1.349  1.2497 -0.5637  0.3401
25062SOL    HW275765   2.353   5.557   1.256  0.2227 -0.2036  1.7167
25063SOL     OW75766   1.463   7.776   6.370 -0.1926 -0.4545  0.4008
25063SOL    HW175767   1.412   7.851   6.400 -1.2703 -1.1842  0.4484
25063SOL    HW275768   1.401   7.723   6.321  0.4620 -1.5042  0.6755
25064SOL     OW75769   5.011   3.708   7.712  0.5363  0.1336  0.0154
25064SOL    HW175770   5.055   3.786   7.679  1.1131 -0.5200 -0.7965
25064SOL    HW275771   4.923   3.739   7.734  0.0951  0.6303 -2.1902
25065SOL     OW75772   9.410   8.580   2.268  0.0583  0.1437  0.4402
25065SOL    HW175773   9.461   8.659   2.250  0.9194 -0.4325  0.3405
25065SOL    HW275774   9.436   8.554   2.356  0.9171 -0.8755 -0.0970
25066SOL     OW75775   4.800   6.343   7.326 -0.0345 -0.5180 -0.1823
25066SOL    HW175776   4.748   6.269   7.296 -1.2978 -1.4862  3.7843
25066SOL    HW275777   4.875   6.303   7.370  0.8001  0.6995 -0.4458
25067SOL     OW75778   2.650   3.055   9.399  0.8289 -0.3945 -0.4510
25067SOL    HW175779   2.735   3.090   9.371  0.7409  0.3084  0.1237
25067SOL    HW275780   2.586   3.117   9.363  0.6233 -0.3667 -0.0437
25068SOL     OW75781   9.691   8.444   5.791  0.1208 -0.3849  0.0567
25068SOL    HW175782   9.723   8.534   5.776  0.6124  0.3160  4.1829
25068SOL    HW275783   9.597   8.454   5.802  0.1549 -0.3808  0.3536
25069SOL     OW75784   0.891   5.937   0.918  0.2909  0.3736 -0.4414
25069SOL    HW175785   0.818   5.915   0.860  1.1841 -0.6229 -1.2420
25069SOL    HW275786   0.870   5.892   1.000 -0.5817  1.1185 -0.2377
25070SOL     OW75787   1.787   1.928   4.782 -0.0317 -0.4059 -0.1277
25070SOL    HW175788   1.758   1.837   4.775  0.9443 -0.6527 -1.2967
25070SOL    HW275789   1.881   1.925   4.767  0.0526  0.7685  0.0661
25071SOL     OW75790   8.365   5.922   4.623  0.0740 -0.2454  0.0768
25071SOL    HW175791   8.421   5.998   4.641 -0.5760  0.3651 -0.4040
25071SOL    HW275792   8.409   5.849   4.666  2.4437 -0.2620 -2.1393
25072SOL     OW75793   3.483   9.769   2.626  0.0439  0.3229  0.4989
25072SOL    HW175794   3.440   9.791   2.543  1.0395  0.4753  0.0098
25072SOL    HW275795   3.411   9.739   2.682 -0.5267 -0.8478 -0.7713
25073SOL     OW75796   3.866   3.731   4.355 -0.1297 -0.2466  0.2815
25073SOL    HW175797   3.901   3.725   4.444  1.0850  0.1144 -0.1452
25073SOL    HW275798   3.924   3.793   4.311  0.4962 -1.8609 -1.2971
25074SOL     OW75799   9.974   5.913   4.315 -0.1181 -0.0985  0.7550
25074SOL    HW175800  10.028   5.905   4.236 -0.1469 -4.0141  0.9488
25074SOL    HW275801   9.885   5.927   4.283  0.2171  1.0759  0.2661
25075SOL     OW75802   3.253   0.796   8.485 -0.1795  0.8946  0.2568
25075SOL    HW175803   3.264   0.821   8.394 -1.1389 -0.5237 -0.2812
25075SOL    HW275804   3.334   0.751   8.508  0.2699  1.6998  0.2717
25076SOL     OW75805   4.433   3.527   8.229  0.3864  0.8784  0.2678
25076SOL    HW175806   4.387   3.581   8.292 -0.7429  0.5560 -0.2659
25076SOL    HW275807   4.524   3.557   8.233 -0.0505  2.1912  0.6158
25077SOL     OW75808   3.229   8.817   6.352  0.4328  0.5235 -0.0634
25077SOL    HW175809   3.287   8.756   6.397 -0.1235 -0.6403 -0.8695
25077SOL    HW275810   3.154   8.764   6.326 -0.3473  1.6945 -0.2593
25078SOL     OW75811   1.558   8.402   6.105 -0.5321 -0.0038 -0.1579
25078SOL    HW175812   1.622   8.472   6.092 -0.1896 -0.6303 -2.1265
25078SOL    HW275813   1.595   8.347   6.173  0.6351  0.1077 -0.6833
25079SOL     OW75814   9.700   0.565   5.136 -0.0839  0.5618  0.7070
25079SOL    HW175815   9.735   0.486   5.177  0.4322 -0.5600 -1.7270
25079SOL    HW275816   9.608   0.569   5.164 -0.2593 -1.2204  0.4581
25080SOL     OW75817   0.091   2.945   9.813  0.5102 -0.1062  0.1246
25080SOL    HW175818   0.025   3.013   9.799 -0.1434  0.1049  3.3627
25080SOL    HW275819   0.161   2.989   9.861  1.5954 -1.0316 -0.5659
25081SOL     OW75820   3.102   1.517   0.837 -0.5196  0.4049 -0.6138
25081SOL    HW175821   3.183   1.565   0.819  0.5788 -1.0801  0.1312
25081SOL    HW275822   3.067   1.558   0.917  0.1940  0.2389 -0.2077
25082SOL     OW75823   1.911   3.770   1.467 -0.1558  0.0549 -0.5788
25082SOL    HW175824   1.994   3.809   1.439  0.8984 -0.9820  0.9588
25082SOL    HW275825   1.926   3.675   1.463 -1.0383 -0.1418  0.3411
25083SOL     OW75826   5.389   7.394   8.083  0.3395  0.2974  0.2406
25083SOL    HW175827   5.344   7.432   8.008 -0.4635  0.9167  1.0356
25083SOL    HW275828   5.322   7.343   8.128  0.9980 -0.6861  0.1415
25084SOL     OW75829   1.796   3.359   8.178  0.3724 -0.2391  0.2985
25084SOL    HW175830   1.820   3.310   8.098 -0.0988 -2.9181  1.6708
25084SOL    HW275831   1.702   3.372   8.170  0.7039  1.8723 -0.7402
25085SOL     OW75832   0.346   4.882   1.813  0.2221 -0.4562  0.2476
25085SOL    HW175833   0.275   4.818   1.814  0.9110 -1.2482  1.1681
25085SOL    HW275834   0.426   4.829   1.808  0.7745  0.3650  0.2328
25086SOL     OW75835   3.497   6.734   2.271  0.0699  0.1672 -0.2549
25086SOL    HW175836   3.444   6.678   2.213 -0.5699  0.6312 -0.1324
25086SOL    HW275837   3.527   6.675   2.340 -2.4628  0.3730  1.1410
25087SOL     OW75838   9.919   6.334   7.701 -0.1234  0.2936  0.4944
25087SOL    HW175839   9.997   6.379   7.734  0.3776  0.0898 -0.3831
25087SOL    HW275840   9.846   6.373   7.750  0.3591  1.6716  0.1554
25088SOL     OW75841   4.610   2.513   9.030 -0.0536  0.8351 -0.1224
25088SOL    HW175842   4.682   2.456   9.056 -1.3130 -0.6389  0.2403
25088SOL    HW275843   4.653   2.593   8.998  1.6829  0.7551  1.8247
25089SOL     OW75844   3.873   7.846   0.243  0.0054 -0.4749 -0.2609
25089SOL    HW175845   3.873   7.750   0.236 -1.7945 -0.4230 -1.5642
25089SOL    HW275846   3.784   7.868   0.270 -0.3873  0.9221 -2.4263
25090SOL     OW75847   6.918   7.459   5.297  0.0426 -0.4404  0.1596
25090SOL    HW175848   6.824   7.472   5.289 -0.0481 -0.1916  1.4306
25090SOL    HW275849   6.944   7.420   5.213 -0.8928  1.0438 -0.8765
25091SOL     OW75850   1.326   8.631   9.432  0.1385 -0.1467 -0.6461
25091SOL    HW175851   1.358   8.619   9.521 -0.5859  1.2368 -0.1581
25091SOL    HW275852   1.404   8.641   9.378  0.5715  1.3292  0.2223
25092SOL     OW75853   2.984   1.247   4.581  0.4757  0.0846  0.2583
25092SOL    HW175854   2.906   1.197   4.604  0.1030  0.9829  1.0023
25092SOL    HW275855   2.984   1.322   4.641  0.7297  1.2630 -1.1431
25093SOL     OW75856   3.059   0.324   8.323  0.3641  0.4030  0.2218
25093SOL    HW175857   3.014   0.334   8.239  0.4385 -1.9735 -0.1549
25093SOL    HW275858   3.129   0.390   8.321 -0.8573  1.7337 -0.6815
25094SOL     OW75859   1.682   9.916   8.589 -0.4785 -0.7279  0.6756
25094SOL    HW175860   1.608   9.856   8.598 -0.2792 -0.9417  0.8611
25094SOL    HW275861   1.756   9.861   8.564  0.7783 -1.2651  4.8577
25095SOL     OW75862   7.254   5.108   6.521 -0.4866 -0.3489  0.2938
25095SOL    HW175863   7.213   5.159   6.451  1.7735  1.3204  0.0924
25095SOL    HW275864   7.234   5.157   6.601 -0.1092 -0.3150  0.3689
25096SOL     OW75865   8.297   5.144   1.287 -0.6122  0.5498 -0.3943
25096SOL    HW175866   8.261   5.211   1.229 -1.1365 -1.1159 -2.0605
25096SOL    HW275867   8.254   5.063   1.261  0.7063 -0.6348  0.9115
25097SOL     OW75868   9.086   3.482   7.285  0.0709  0.6719  0.8906
25097SOL    HW175869   9.176   3.482   7.253 -1.0563  1.6052 -2.8565
25097SOL    HW275870   9.062   3.390   7.288  1.0216  0.4334  1.5917
25098SOL     OW75871   2.806   0.940   8.583  0.1233 -0.2700  0.0668
25098SOL    HW175872   2.777   0.984   8.502  0.1408  0.1693  0.2943
25098SOL    HW275873   2.733   0.952   8.643 -0.3373 -1.5303 -0.2120
25099SOL     OW75874   3.300   4.235   5.293 -0.0303 -0.0888  0.8482
25099SOL    HW175875   3.379   4.186   5.274  0.4286  0.5981  0.9293
25099SOL    HW275876   3.322   4.288   5.370 -0.3721  0.5312  0.5328
25100SOL     OW75877   2.517   0.042   8.100  0.1433  0.1043 -0.4397
25100SOL    HW175878   2.574  -0.035   8.108 -0.5032 -0.3100  0.3048
25100SOL    HW275879   2.556   0.106   8.159 -0.5329 -0.4250  0.6153
25101SOL     OW75880   1.425   0.954   5.160 -0.3737  0.1311 -0.1943
25101SOL    HW175881   1.416   1.013   5.086  0.6042  1.1475  0.4701
25101SOL    HW275882   1.519   0.938   5.166 -0.6184 -1.5222 -0.3640
25102SOL     OW75883   0.529   2.707   8.178 -0.4699  0.0965 -0.5898
25102SOL    HW175884   0.556   2.783   8.126 -0.1130 -0.1243 -0.7319
25102SOL    HW275885   0.586   2.710   8.255 -1.3652  0.7321  0.0630
25103SOL     OW75886   9.733   7.071   3.098  0.2968 -0.0661 -0.3633
25103SOL    HW175887   9.801   7.042   3.158  0.5762  0.4004 -0.4509
25103SOL    HW275888   9.752   7.025   3.016  0.1089 -0.4486 -0.1934
25104SOL     OW75889   1.464   7.939   7.387  0.4153 -0.6208  0.3151
25104SOL    HW175890   1.517   7.904   7.315  0.3869 -1.8239  0.8472
25104SOL    HW275891   1.381   7.891   7.381 -0.2350  0.4830  0.1411
25105SOL     OW75892   4.579   8.956   3.459  0.6117 -0.4510 -0.2322
25105SOL    HW175893   4.507   8.916   3.507 -1.0366 -0.4107 -2.5110
25105SOL    HW275894   4.646   8.974   3.525 -2.0867  0.9983  2.3103
25106SOL     OW75895   8.581   9.883   0.181  0.5183 -0.3113  0.1611
25106SOL    HW175896   8.611   9.925   0.262 -0.9082 -0.6761  0.9207
25106SOL    HW275897   8.629   9.800   0.177  4.1539  1.6266 -1.8842
25107SOL     OW75898   0.654   8.957   6.321 -0.4888 -0.0919  0.6047
25107SOL    HW175899   0.624   8.906   6.246 -0.9713 -1.0036  1.3916
25107SOL    HW275900   0.583   9.018   6.339  1.0834  2.7657 -1.9071
25108SOL     OW75901   9.872   3.670   1.375 -0.2833 -0.3798 -0.5783
25108SOL    HW175902   9.861   3.764   1.361 -1.0381 -0.4442 -0.4891
25108SOL    HW275903   9.932   3.642   1.306 -0.9714 -0.0250 -1.3474
25109SOL     OW75904   8.968   0.255   9.365  0.1260  0.2904  0.7845
25109SOL    HW175905   9.047   0.274   9.416 -0.6189 -0.3602  2.2583
25109SOL    HW275906   8.896   0.289   9.419 -0.5739  1.9959 -1.0846
25110SOL     OW75907   8.365   3.341   6.798 -0.0669 -0.0444 -0.5390
25110SOL    HW175908   8.334   3.359   6.709 -1.0242 -2.6759 -0.8253
25110SOL    HW275909   8.460   3.331   6.789 -0.0703  0.3463 -1.1176
25111SOL     OW75910   4.034   3.428   0.528  0.2334 -0.2131  0.6489
25111SOL    HW175911   4.094   3.422   0.602  0.6140  2.3102  0.6343
25111SOL    HW275912   4.071   3.497   0.473 -1.3687 -0.3319 -0.6476
25112SOL     OW75913   8.761   7.999   4.978  0.1073  0.0839  0.2450
25112SOL    HW175914   8.707   8.044   5.044 -2.0287  0.0175 -1.3690
25112SOL    HW275915   8.789   7.919   5.021  1.8646  1.6686  2.3009
25113SOL     OW75916   3.036   2.789   2.177  0.6686 -0.1199 -0.2946
25113SOL    HW175917   3.025   2.726   2.248 -0.2942 -1.0325 -1.2211
25113SOL    HW275918   3.017   2.874   2.217  0.9685 -0.5150  0.7269
25114SOL     OW75919   0.905   7.833   1.737 -0.8249  0.2493 -0.2326
25114SOL    HW175920   0.996   7.809   1.717 -1.2976 -0.7689 -1.2870
25114SOL    HW275921   0.877   7.769   1.803 -0.1289  1.9264  1.8012
25115SOL     OW75922   9.967   9.454   7.746 -0.1058 -0.2350  0.9422
25115SOL    HW175923   9.913   9.530   7.725  0.6657  0.1369  0.2727
25115SOL    HW275924   9.957   9.443   7.840 -0.2461  0.6759  1.0379
25116SOL     OW75925   4.443   0.845   5.104 -0.0946 -0.2475  0.2831
25116SOL    HW175926   4.421   0.918   5.045 -0.4368 -0.8949 -0.4113
25116SOL    HW275927   4.443   0.884   5.191 -1.0283  0.4348  0.0021
25117SOL     OW75928   4.119   2.869   0.216 -0.8264  0.3655  0.0417
25117SOL    HW175929   4.054   2.924   0.259  0.2340  1.5527  0.1950
25117SOL    HW275930   4.145   2.919   0.138  0.0641  0.0440  0.1211
25118SOL     OW75931   2.877   0.776   1.984 -0.1980 -0.5727 -0.0426
25118SOL    HW175932   2.862   0.870   1.969  0.9353 -0.2904  0.5211
25118SOL    HW275933   2.895   0.741   1.897  1.2080  0.0961 -0.0551
25119SOL     OW75934   0.771   4.423   1.539 -0.2657  0.3868 -0.0106
25119SOL    HW175935   0.807   4.503   1.500  0.1960 -0.0064 -0.4098
25119SOL    HW275936   0.848   4.366   1.551 -0.7931 -0.6708 -1.3524
25120SOL     OW75937   8.049   9.879   0.773  0.1877  0.0732 -0.1390
25120SOL    HW175938   8.113   9.858   0.705 -0.0564 -0.5696 -0.1769
25120SOL    HW275939   7.986   9.806   0.770 -1.9675  1.8684 -1.7799
25121SOL     OW75940   0.118   2.399   7.881 -0.2433  0.3641  0.3720
25121SOL    HW175941   0.111   2.469   7.817  0.1465 -0.1573 -0.2476
25121SOL    HW275942   0.030   2.360   7.884  0.4892 -1.8616 -2.4619
25122SOL     OW75943   9.778   2.875   0.309 -0.2390 -0.0077 -0.1204
25122SOL    HW175944   9.844   2.808   0.330  0.2195  0.5719  0.3230
25122SOL    HW275945   9.792   2.894   0.216  0.3595  0.2565  0.0173
25123SOL     OW75946   5.173   4.859   9.834 -0.4087  0.1929  0.3216
25123SOL    HW175947   5.096   4.824   9.879  0.1068 -0.6909  0.5238
25123SOL    HW275948   5.172   4.953   9.854 -2.1787  0.4604 -0.7655
25124SOL     OW75949   2.746   6.844   2.848 -0.8080 -0.1478  0.1642
25124SOL    HW175950   2.817   6.846   2.785 -0.7836 -3.0076 -0.0343
25124SOL    HW275951   2.783   6.883   2.928  0.3058  0.2012 -0.5070
25125SOL     OW75952   4.449   4.291   8.859 -0.1537 -0.6905  0.5560
25125SOL    HW175953   4.411   4.231   8.795  1.3078  1.0425 -2.1278
25125SOL    HW275954   4.496   4.356   8.806  3.3994 -0.6035  3.4547
25126SOL     OW75955   1.794   9.390   2.387  0.0512  0.1393  0.0945
25126SOL    HW175956   1.788   9.408   2.293 -0.6405 -0.5999 -0.0200
25126SOL    HW275957   1.847   9.310   2.392  0.4521  0.4224  0.3639
25127SOL     OW75958   2.056   4.828   7.134  0.0649 -0.0792 -0.2669
25127SOL    HW175959   2.129   4.863   7.186  0.1620  1.6817 -1.4697
25127SOL    HW275960   1.985   4.815   7.196  1.2338 -1.3646  0.8547
25128SOL     OW75961   5.051   4.135   1.353  0.0517  0.3523 -0.1673
25128SOL    HW175962   5.027   4.225   1.331  1.0825  1.0310  1.2739
25128SOL    HW275963   5.145   4.129   1.334 -0.1619 -0.6745 -0.9875
25129SOL     OW75964   9.545   5.505   6.837 -0.3225 -0.4880 -0.4426
25129SOL    HW175965   9.595   5.424   6.848 -1.4008 -0.9267  2.0648
25129SOL    HW275966   9.598   5.571   6.882 -0.8605 -0.4813  0.2018
25130SOL     OW75967   4.880   2.507   4.301  0.0937  0.2207 -0.0986
25130SOL    HW175968   4.837   2.480   4.382 -1.7419 -1.5779 -1.5821
25130SOL    HW275969   4.862   2.601   4.295 -2.5159 -0.1879  0.0687
25131SOL     OW75970   7.080   1.010   1.300  0.4707 -0.0804  0.4045
25131SOL    HW175971   6.994   0.987   1.334  0.3022 -0.2170 -0.1122
25131SOL    HW275972   7.116   1.071   1.365 -0.7350  1.3825 -0.2252
25132SOL     OW75973   5.112   7.937   1.557  0.3576  0.1966 -0.2693
25132SOL    HW175974   5.058   7.991   1.615 -0.0407 -0.9381  0.4603
25132SOL    HW275975   5.134   7.861   1.610 -1.2315 -1.6169 -2.0393
25133SOL     OW75976   8.709   1.601   8.467  0.0503  0.0463  0.1619
25133SOL    HW175977   8.765   1.666   8.509  0.8037 -1.6136  1.8834
25133SOL    HW275978   8.637   1.589   8.529 -0.0359 -0.7810 -0.0923
25134SOL     OW75979   2.922   4.087   0.276 -0.3224 -0.2807 -0.0959
25134SOL    HW175980   2.867   4.138   0.334  2.7372  0.9478  1.9962
25134SOL    HW275981   2.896   3.996   0.291 -3.0548  0.3131 -0.7904
25135SOL     OW75982   0.987   4.124   9.696  0.7713 -0.3744  0.5549
25135SOL    HW175983   0.945   4.192   9.643  0.1013 -0.4935  0.9232
25135SOL    HW275984   0.933   4.118   9.775  1.0392 -1.0737  0.6918
25136SOL     OW75985   8.975   9.202   1.186  0.0309  0.0028 -0.9062
25136SOL    HW175986   9.023   9.203   1.268 -0.3653 -0.7421 -0.6546
25136SOL    HW275987   8.977   9.111   1.158 -0.8570  0.0346 -1.1080
25137SOL     OW75988   4.772   0.703   9.458  0.4811 -0.2858  0.2812
25137SOL    HW175989   4.694   0.649   9.469 -1.6074  2.7150  1.2650
25137SOL    HW275990   4.813   0.669   9.378 -0.9666 -2.9021  0.5429
25138SOL     OW75991   0.995   9.970   8.887 -0.2762 -0.2494 -0.2622
25138SOL    HW175992   1.047   9.937   8.814 -0.1807  0.1410 -0.3739
25138SOL    HW275993   1.016   9.913   8.960 -0.0704 -0.3985 -0.4393
25139SOL     OW75994   7.769   2.031   1.871 -0.4248  0.5719 -0.0024
25139SOL    HW175995   7.732   1.944   1.855  0.3150  0.3971 -0.9050
25139SOL    HW275996   7.700   2.092   1.844 -1.5291  0.2988  2.0764
25140SOL     OW75997   0.969   2.384   7.694  0.4044 -0.0628  0.7080
25140SOL    HW175998   0.923   2.461   7.660 -0.0724 -0.3284  0.7318
25140SOL    HW275999   0.956   2.317   7.627  2.0397  0.2729  0.0033
25141SOL     OW76000   1.836   3.089   9.365  0.1251  0.3052  0.8128
25141SOL    HW176001   1.835   3.015   9.426  0.2704 -0.4637 -0.0969
25141SOL    HW276002   1.869   3.052   9.283 -0.8774  1.1103  0.0135
25142SOL     OW76003   3.588   3.391   7.913  0.7719 -0.8991  0.3272
25142SOL    HW176004   3.671   3.425   7.878  1.7120 -3.1659  0.2341
25142SOL    HW276005   3.579   3.434   7.998  1.0055  0.8325 -0.4593
25143SOL     OW76006   0.865   6.678   5.231  0.2045  0.3532  0.3803
25143SOL    HW176007   0.917   6.758   5.232 -0.0817  0.5801 -1.0213
25143SOL    HW276008   0.908   6.622   5.166  1.2048 -1.2126  2.2892
25144SOL     OW76009   5.396   3.669   2.989 -0.2212 -0.5197 -0.1788
25144SOL    HW176010   5.403   3.573   2.993 -0.9501 -0.7639 -2.9493
25144SOL    HW276011   5.357   3.687   2.904 -2.1020  2.1938  1.1109
25145SOL     OW76012   2.876   5.726   8.173  0.0358  0.0735  0.5137
25145SOL    HW176013   2.802   5.762   8.123  0.8415 -0.0704 -0.8257
25145SOL    HW276014   2.905   5.651   8.122  0.6436 -0.3197  1.4247
25146SOL     OW76015   7.273   7.611   5.285  0.1121 -0.3078 -0.1242
25146SOL    HW176016   7.269   7.516   5.279 -2.1911 -0.3315  0.8609
25146SOL    HW276017   7.267   7.630   5.379 -1.0459  0.8174 -0.3946
25147SOL     OW76018   9.483   7.896   3.569  0.0132  0.1029  0.0277
25147SOL    HW176019   9.458   7.806   3.590  1.4006 -0.4489 -0.5173
25147SOL    HW276020   9.466   7.905   3.475  3.4117 -0.9477 -0.8363
25148SOL     OW76021   3.198   8.822   9.760 -0.1936  0.2397  0.1496
25148SOL    HW176022   3.219   8.801   9.851  0.8674 -2.2206 -0.5752
25148SOL    HW276023   3.147   8.747   9.729 -1.0958  1.3319 -1.1240
25149SOL     OW76024   1.927   4.215   7.216 -0.2487 -0.3352  0.0855
25149SOL    HW176025   1.999   4.274   7.194 -0.3108  0.0319  0.8229
25149SOL    HW276026   1.963   4.127   7.202  0.2185 -0.1447  0.0850
25150SOL     OW76027   3.665   6.624   4.513 -0.3639  0.0360  0.3106
25150SOL    HW176028   3.696   6.704   4.471 -1.3095 -0.2670 -1.0518
25150SOL    HW276029   3.684   6.555   4.450  0.9594 -0.9348  1.7151
25151SOL     OW76030   0.738   2.979   2.516 -0.1536 -0.1855 -0.2951
25151SOL    HW176031   0.833   2.980   2.505 -0.0001 -0.3732  0.9775
25151SOL    HW276032   0.720   3.046   2.582 -0.7395 -1.3604  0.7642
25152SOL     OW76033   7.549   7.163   6.712 -0.2202  0.0793  0.2066
25152SOL    HW176034   7.618   7.217   6.750  1.8546 -1.8104 -0.6354
25152SOL    HW276035   7.580   7.073   6.724 -1.9058 -0.7794 -1.3840
25153SOL     OW76036   5.564   9.708   4.947 -0.5309 -0.3815  0.2232
25153SOL    HW176037   5.546   9.618   4.920  0.5038 -0.5088 -0.0883
25153SOL    HW276038   5.498   9.727   5.014 -0.3385 -1.6094  0.7854
25154SOL     OW76039   7.504   6.974   6.216  0.6127 -0.4160 -0.2787
25154SOL    HW176040   7.557   6.911   6.168  0.8877  0.0336 -0.5717
25154SOL    HW276041   7.431   6.994   6.158 -0.0190 -1.2069  0.2159
25155SOL     OW76042   9.836   3.223   4.358 -0.2613 -0.3248 -0.0010
25155SOL    HW176043   9.826   3.240   4.452 -3.4275  0.0891 -0.3045
25155SOL    HW276044   9.772   3.155   4.339  1.9089 -2.0787 -1.5288
25156SOL     OW76045   2.913   3.997   1.257  0.2967  0.0360 -0.3930
25156SOL    HW176046   2.998   3.952   1.251  0.4327  0.2878 -0.3937
25156SOL    HW276047   2.936   4.089   1.270  0.0199 -0.0381  0.7082
25157SOL     OW76048   5.748   5.436   9.636  0.1659  0.4052  0.4246
25157SOL    HW176049   5.782   5.507   9.582  1.4474 -0.6032 -0.1455
25157SOL    HW276050   5.795   5.443   9.718  1.3899 -0.6233 -0.1498
25158SOL     OW76051   0.865   0.407   9.350 -0.0101  0.3492  0.0945
25158SOL    HW176052   0.951   0.431   9.385 -0.3506  0.7190  0.6863
25158SOL    HW276053   0.875   0.315   9.325  0.3026  0.1228  1.0011
25159SOL     OW76054   7.553   4.251   3.967 -0.3024  0.1329 -0.0947
25159SOL    HW176055   7.641   4.216   3.953 -0.5170 -0.3457 -0.2863
25159SOL    HW276056   7.495   4.182   3.935 -0.7528  0.3016  0.3441
25160SOL     OW76057   3.979   7.396   5.166 -0.0074 -0.1847 -0.7734
25160SOL    HW176058   3.926   7.333   5.118 -1.0514 -0.1532  0.3228
25160SOL    HW276059   3.936   7.480   5.151 -0.9349 -0.3102  1.0046
25161SOL     OW76060   8.359   3.056   1.120  0.4944  0.2949 -0.2601
25161SOL    HW176061   8.333   3.103   1.200 -0.9706 -2.0956  0.8010
25161SOL    HW276062   8.365   2.965   1.148  0.3056 -0.5772 -2.8325
25162SOL     OW76063   2.595   6.812   1.049  0.0743  0.0212 -0.3189
25162SOL    HW176064   2.559   6.837   0.964  1.6222 -0.2633 -1.1046
25162SOL    HW276065   2.677   6.861   1.055 -1.2117  2.0969  2.2128
25163SOL     OW76066   0.234   9.170   3.888  0.3555  0.1012 -0.1159
25163SOL    HW176067   0.255   9.226   3.963 -1.8599  1.0508 -0.1289
25163SOL    HW276068   0.269   9.218   3.812 -0.5354  0.9424 -0.0142
25164SOL     OW76069   2.006   5.565   7.952  0.4407  0.1859 -0.6504
25164SOL    HW176070   2.054   5.562   7.869  2.5396 -1.2196  0.5251
25164SOL    HW276071   2.074   5.566   8.019 -1.1918 -0.3609  1.0997
25165SOL     OW76072   3.793   8.966   0.027  0.0861 -0.0726  0.6180
25165SOL    HW176073   3.871   9.016   0.052  0.9951 -1.5143  0.7671
25165SOL    HW276074   3.774   8.910   0.103 -1.7588  0.9891  1.0135
25166SOL     OW76075   6.939   6.094   6.581 -0.4866  0.2384  1.0516
25166SOL    HW176076   6.959   6.183   6.552  1.7220 -0.1241  1.3087
25166SOL    HW276077   6.937   6.042   6.501 -0.3864  0.2745  1.0255
25167SOL     OW76078   6.813   9.073   7.198  0.2286  0.1379  0.0041
25167SOL    HW176079   6.821   9.010   7.127  0.0539  0.6517 -0.4862
25167SOL    HW276080   6.738   9.127   7.173  0.5746  0.7396  0.2440
25168SOL     OW76081   5.843   6.059   5.591 -0.1521 -0.0373  0.1802
25168SOL    HW176082   5.775   6.070   5.524 -1.1379 -0.5557  1.0641
25168SOL    HW276083   5.895   6.139   5.585 -1.5659  0.9297  0.2784
25169SOL     OW76084   1.709   2.208   4.569  0.2050 -0.4725 -0.6904
25169SOL    HW176085   1.640   2.148   4.598  0.3932 -0.4133 -0.1174
25169SOL    HW276086   1.786   2.182   4.620 -0.1093  1.2862  0.7515
25170SOL     OW76087   2.425   7.847   3.032  0.0708 -0.4269 -0.0840
25170SOL    HW176088   2.358   7.801   2.983  1.0022  0.0484 -1.8915
25170SOL    HW276089   2.381   7.878   3.111 -1.6531 -0.6878 -0.9095
25171SOL     OW76090   0.639   5.877   3.139 -0.6319 -0.1861 -0.1846
25171SOL    HW176091   0.660   5.799   3.189 -1.3478 -1.2883 -1.5292
25171SOL    HW276092   0.720   5.901   3.095 -0.5865 -0.6407 -0.3552
25172SOL     OW76093   9.584   5.194   9.821 -0.0832  0.3376  0.2032
25172SOL    HW176094   9.584   5.285   9.850  1.1336  0.1926  0.7423
25172SOL    HW276095   9.492   5.172   9.808 -0.5263  1.0338  1.9907
25173SOL     OW76096   5.553   1.126   7.857 -0.4872  0.5272 -0.2654
25173SOL    HW176097   5.620   1.184   7.894 -1.4405  1.8107 -0.4573
25173SOL    HW276098   5.602   1.052   7.822  0.5781 -0.0424  2.2210
25174SOL     OW76099   9.172   8.841   8.515 -0.6257 -0.4078 -0.0299
25174SOL    HW176100   9.142   8.932   8.513 -2.7469 -1.0717 -1.1882
25174SOL    HW276101   9.122   8.801   8.586 -1.4589 -1.2017 -1.0443
25175SOL     OW76102   8.367   6.459   0.460 -0.2149  0.0611 -0.0300
25175SOL    HW176103   8.431   6.483   0.393 -1.4586 -0.9747 -1.6709
25175SOL    HW276104   8.395   6.372   0.489  1.2661  1.1568  2.0776
25176SOL     OW76105   3.120   3.625   1.091 -0.0521 -0.1834 -0.6632
25176SOL    HW176106   3.146   3.595   1.004  1.2419 -2.1263  0.3083
25176SOL    HW276107   3.033   3.587   1.104 -0.4049  0.4163 -1.2318
25177SOL     OW76108   4.518   1.748   3.990  0.4515  0.0001 -0.0295
25177SOL    HW176109   4.452   1.679   3.985 -0.5641  0.8014  1.5172
25177SOL    HW276110   4.601   1.702   4.003  0.1841 -1.0041 -1.6451
25178SOL     OW76111   9.649   6.873   6.379 -0.1191 -0.4468  0.5464
25178SOL    HW176112   9.672   6.810   6.309  0.2333  1.0690 -0.7659
25178SOL    HW276113   9.680   6.831   6.459 -0.5115 -2.2509 -0.1892
25179SOL     OW76114   3.183   6.414   7.202  0.1703  0.4470 -0.2116
25179SOL    HW176115   3.263   6.464   7.221  0.4667 -0.3618  0.7236
25179SOL    HW276116   3.215   6.333   7.162 -0.0236 -0.6994  1.8360
25180SOL     OW76117   3.517   9.097   6.981 -0.1169 -0.3577 -0.1311
25180SOL    HW176118   3.570   9.132   6.909  1.7521  1.3047  1.9273
25180SOL    HW276119   3.440   9.154   6.983  0.0971 -0.0515 -0.4370
25181SOL     OW76120   5.088   6.459   8.170  0.3477  0.4049  0.3758
25181SOL    HW176121   5.081   6.499   8.083 -1.0202 -0.5325  0.0293
25181SOL    HW276122   5.181   6.440   8.180  0.5931  0.9705 -0.6734
25182SOL     OW76123   9.744   0.511   2.744  0.2018  0.7573  0.5181
25182SOL    HW176124   9.783   0.588   2.786  0.4065  1.4973 -0.9249
25182SOL    HW276125   9.803   0.493   2.670 -0.3097 -0.2733  0.3481
25183SOL     OW76126   4.842   9.391   7.723 -0.3289  0.0513 -0.0363
25183SOL    HW176127   4.884   9.308   7.700 -0.5378  0.0911 -0.5821
25183SOL    HW276128   4.850   9.444   7.644 -1.6729 -0.0578 -0.2797
25184SOL     OW76129   6.519   8.861   9.175  0.2148 -0.5681 -0.7631
25184SOL    HW176130   6.604   8.898   9.197 -0.9091  0.2391  2.9043
25184SOL    HW276131   6.520   8.773   9.213 -0.7422 -0.3371 -0.1580
25185SOL     OW76132   5.930   1.017   7.109 -0.0594 -0.0545  0.1749
25185SOL    HW176133   5.886   1.052   7.031 -1.5220 -0.4019  0.8057
25185SOL    HW276134   6.007   1.073   7.121 -0.7945  1.1309 -0.4936
25186SOL     OW76135   3.350   6.280  -0.015 -0.6602 -0.0245 -0.3571
25186SOL    HW176136   3.310   6.205   0.028  1.9433 -1.1498  0.2549
25186SOL    HW276137   3.379   6.336   0.057  0.9502 -0.4036 -0.6838
25187SOL     OW76138   4.186   2.093   5.567  0.4413  0.0412  0.3451
25187SOL    HW176139   4.135   2.076   5.646 -0.8297 -0.2984 -0.5095
25187SOL    HW276140   4.277   2.081   5.594  0.0551  0.2503  1.8208
25188SOL     OW76141   8.984   8.568   1.805  0.3081  0.0762 -0.0649
25188SOL    HW176142   8.902   8.553   1.759  0.0643 -0.3408  0.4816
25188SOL    HW276143   8.961   8.561   1.898  0.4467  2.5281  0.2236
25189SOL     OW76144   1.960   1.112   5.799 -0.2653 -0.3439  0.5233
25189SOL    HW176145   1.927   1.030   5.836 -3.3484  0.7241  0.4290
25189SOL    HW276146   1.988   1.088   5.710  1.9764 -1.8372  1.5395
25190SOL     OW76147   0.947   0.297   8.031 -0.3247 -0.0092 -0.3235
25190SOL    HW176148   0.928   0.203   8.032 -0.6626  0.0552 -0.2925
25190SOL    HW276149   0.872   0.336   7.986  0.8056  0.0530 -2.2605
25191SOL     OW76150   2.258   3.508   4.943 -0.0422  0.5091  0.2776
25191SOL    HW176151   2.252   3.441   5.010  1.0848  0.5734  0.4470
25191SOL    HW276152   2.262   3.591   4.992  0.9325  0.5468  0.1395
25192SOL     OW76153   0.971   6.878   0.561 -0.3065 -0.3442 -0.0025
25192SOL    HW176154   0.987   6.867   0.468 -0.4125  1.0861 -0.2000
25192SOL    HW276155   1.058   6.874   0.601  0.0353  1.6316 -0.4611
25193SOL     OW76156   3.519   6.961   3.710  0.0694 -1.1729 -0.1483
25193SOL    HW176157   3.607   6.930   3.730  0.0143 -1.3124 -0.1180
25193SOL    HW276158   3.462   6.890   3.740 -0.2591  0.1466  2.6968
25194SOL     OW76159   8.703   6.564   4.946  0.0733 -0.4983 -0.3034
25194SOL    HW176160   8.719   6.538   5.036 -1.4907 -0.0229  0.1402
25194SOL    HW276161   8.787   6.550   4.901  0.0857 -3.6457  0.4880
25195SOL     OW76162   6.619   4.575   5.011 -0.2752 -0.0217 -0.1799
25195SOL    HW176163   6.604   4.589   4.918 -0.3332 -0.3391 -0.2173
25195SOL    HW276164   6.641   4.662   5.045 -2.0066  0.4430 -0.1637
25196SOL     OW76165   7.282   1.258   7.758 -0.2860 -0.0823 -0.3289
25196SOL    HW176166   7.237   1.326   7.807  0.2694 -0.4869  0.7663
25196SOL    HW276167   7.372   1.290   7.748 -0.4807  0.1648 -1.4263
25197SOL     OW76168   3.220   2.092   5.546  0.0438 -0.4490  0.1300
25197SOL    HW176169   3.215   1.999   5.565  0.5967 -0.3703  0.7195
25197SOL    HW276170   3.176   2.134   5.621 -2.0225 -0.2928 -1.0951
25198SOL     OW76171   7.800   9.858   4.067  0.0031  0.2123 -0.6887
25198SOL    HW176172   7.846   9.781   4.034  0.5620 -0.1154  0.7907
25198SOL    HW276173   7.819   9.859   4.161 -0.3355  1.9212 -0.6085
25199SOL     OW76174   6.557   2.927   2.756  0.3576 -0.5125 -0.9893
25199SOL    HW176175   6.560   2.889   2.844 -0.7784  1.0503 -0.2252
25199SOL    HW276176   6.476   2.893   2.718  0.0695  0.0087 -0.8447
25200SOL     OW76177   1.441   3.625   3.938 -0.5271  0.2219  0.1020
25200SOL    HW176178   1.488   3.705   3.917  1.3227 -0.7017  0.4422
25200SOL    HW276179   1.415   3.636   4.030  0.4042  0.1610  0.3915
25201SOL     OW76180   2.510   9.576   3.443 -0.2075  0.0051  0.3279
25201SOL    HW176181   2.459   9.561   3.363  0.2504 -1.7223  0.3215
25201SOL    HW276182   2.453   9.629   3.498 -1.0630  0.1055 -0.6198
25202SOL     OW76183   3.109   0.943   7.114  0.3581 -0.5358  0.4204
25202SOL    HW176184   3.161   0.985   7.182 -1.1736  0.7021  0.8924
25202SOL    HW276185   3.173   0.910   7.051  1.7061  0.7634  1.0624
25203SOL     OW76186   1.137   5.026   6.815  0.2658 -0.4325  0.4223
25203SOL    HW176187   1.228   5.004   6.796  0.3399 -0.4763  0.8185
25203SOL    HW276188   1.129   5.015   6.910 -0.4886 -1.6790  0.2408
25204SOL     OW76189   8.995   4.375   3.833  0.2127 -0.5717 -0.3982
25204SOL    HW176190   9.077   4.352   3.875  0.4724  2.1757  0.7814
25204SOL    HW276191   8.983   4.308   3.765  4.0187 -0.4221 -1.4350
25205SOL     OW76192   9.898   9.619   5.522 -0.1452  0.0920  0.1076
25205SOL    HW176193   9.909   9.691   5.584  1.0769  0.2217 -0.2335
25205SOL    HW276194   9.849   9.656   5.449 -1.9813 -0.1710  1.1385
25206SOL     OW76195   5.207   6.062   3.201  0.1804 -0.3243 -0.2293
25206SOL    HW176196   5.128   6.020   3.235  0.8399  0.3424  2.3709
25206SOL    HW276197   5.212   6.145   3.249  1.0385  0.9090 -2.3286
25207SOL     OW76198   3.547   8.019   2.523 -0.0087 -0.3887  0.4830
25207SOL    HW176199   3.624   7.993   2.473  0.2003  0.3511  0.4008
25207SOL    HW276200   3.571   8.005   2.615  0.4789  0.4475  0.4984
25208SOL     OW76201   8.742   4.423   9.218 -0.1818 -0.6389 -0.3143
25208SOL    HW176202   8.672   4.482   9.192  0.2425 -0.3593 -0.8220
25208SOL    HW276203   8.781   4.464   9.295 -0.5607 -0.7879 -0.0397
25209SOL     OW76204   7.865   7.050   2.304 -0.0057  0.7643 -0.1674
25209SOL    HW176205   7.879   7.018   2.394  3.0311 -0.3259 -0.9062
25209SOL    HW276206   7.894   7.141   2.306  0.8932  0.4917 -0.1835
25210SOL     OW76207   9.729   7.349   5.938 -0.3331 -0.0700 -0.0017
25210SOL    HW176208   9.691   7.388   6.017  1.2565  0.4947  0.5318
25210SOL    HW276209   9.790   7.283   5.970  0.2359  0.0686 -0.7487
25211SOL     OW76210   3.351   1.663   3.795 -0.4461 -0.2452 -0.9254
25211SOL    HW176211   3.370   1.754   3.774 -2.3635 -0.1911 -2.8388
25211SOL    HW276212   3.256   1.661   3.810 -0.4369 -1.8944 -0.8806
25212SOL     OW76213   3.007   1.280   0.743 -0.0142  0.2471 -0.0247
25212SOL    HW176214   3.079   1.227   0.778  0.4765  1.5622  1.0607
25212SOL    HW276215   3.030   1.370   0.767 -1.4166  0.8284 -0.7515
25213SOL     OW76216   1.284   1.092   4.409 -0.2217  0.5763  0.4356
25213SOL    HW176217   1.374   1.059   4.406  0.5744  2.6114  0.5149
25213SOL    HW276218   1.258   1.083   4.501 -0.3498 -0.5853  0.2992
25214SOL     OW76219   5.842   5.045   7.735  0.2943 -0.5264  0.3158
25214SOL    HW176220   5.929   5.072   7.764  0.7903 -0.8135 -0.8290
25214SOL    HW276221   5.820   4.971   7.791  0.0041  0.6382  1.7949
25215SOL     OW76222   6.165   2.778   7.543 -0.2789  0.5091 -0.2165
25215SOL    HW176223   6.083   2.746   7.580  0.9595 -4.0554 -0.7605
25215SOL    HW276224   6.147   2.789   7.450 -0.6445  1.0213 -0.0848
25216SOL     OW76225   8.887   0.865   5.470  0.3886  0.0655  0.2730
25216SOL    HW176226   8.862   0.778   5.436  3.6305 -0.3042 -1.6133
25216SOL    HW276227   8.981   0.858   5.486  0.3801  2.6935  2.0592
25217SOL     OW76228   7.398   9.931   8.513  0.2770 -0.1481 -0.5599
25217SOL    HW176229   7.303   9.931   8.503  0.2671 -2.8141 -1.1961
25217SOL    HW276230   7.412   9.905   8.604  0.3502 -1.5332 -0.9421
25218SOL     OW76231   0.195   1.585   8.012  0.0493  0.4513 -0.0053
25218SOL    HW176232   0.119   1.540   8.049 -1.5770  0.9512 -2.5560
25218SOL    HW276233   0.184   1.677   8.038  0.1802  0.4029  0.2255
25219SOL     OW76234   5.058   1.634   0.050 -0.2022  0.0179 -0.0288
25219SOL    HW176235   5.133   1.575   0.059 -0.6573 -0.8733 -1.7403
25219SOL    HW276236   5.093   1.721   0.070  0.7102 -0.6637  1.5479
25220SOL     OW76237   8.731   4.204   8.127 -0.0282  0.2988 -0.2923
25220SOL    HW176238   8.705   4.114   8.143 -0.0489  0.3830  0.1550
25220SOL    HW276239   8.685   4.255   8.194  0.0630  0.6294 -0.4758
25221SOL     OW76240   5.686   9.876   4.137 -0.3277  0.3763  0.2940
25221SOL    HW176241   5.687   9.858   4.231 -0.8438 -0.0576  0.2274
25221SOL    HW276242   5.593   9.874   4.113 -0.2061  0.5271 -0.2174
25222SOL     OW76243   0.490   8.668   4.001  0.0151 -0.0411  0.1881
25222SOL    HW176244   0.425   8.706   4.060  1.1281  0.1094  1.3639
25222SOL    HW276245   0.487   8.724   3.923 -0.3834  0.7172  0.7360
25223SOL     OW76246   3.281   7.923   8.488  0.1449  0.8628 -0.0971
25223SOL    HW176247   3.282   7.966   8.403 -0.1745 -1.6377 -1.4664
25223SOL    HW276248   3.368   7.883   8.495 -0.6563 -1.0657 -0.4893
25224SOL     OW76249   1.007   6.206   0.053  0.1802 -0.1988 -0.1858
25224SOL    HW176250   0.986   6.192  -0.040  0.7226  0.2145 -0.3775
25224SOL    HW276251   1.097   6.177   0.062  0.2362  0.0701  0.1403
25225SOL     OW76252   1.934   8.662   2.680 -0.0401 -0.1734  0.3731
25225SOL    HW176253   2.000   8.624   2.738 -1.5286  0.4481  2.6356
25225SOL    HW276254   1.916   8.749   2.718 -0.1655  0.8207 -1.8309
25226SOL     OW76255   5.998   2.701   7.933 -0.3495  0.2113 -0.0461
25226SOL    HW176256   6.065   2.635   7.950 -1.3785 -0.7427  0.4459
25226SOL    HW276257   5.924   2.675   7.989 -0.6813  1.9486  0.3884
25227SOL     OW76258   2.454   8.019   3.788  0.4145 -0.3328 -0.7182
25227SOL    HW176259   2.407   7.958   3.845 -1.0202 -0.9059 -2.4082
25227SOL    HW276260   2.486   7.965   3.716 -0.0363  0.7330 -1.7542
25228SOL     OW76261   7.034   3.478   9.252 -0.4709  0.0297  0.3415
25228SOL    HW176262   7.083   3.465   9.333 -0.8160 -1.2200  0.3587
25228SOL    HW276263   7.071   3.414   9.191 -0.2828  0.8867 -0.4776
25229SOL     OW76264   9.204   2.079   0.560 -0.7283  0.4342 -0.4476
25229SOL    HW176265   9.253   1.997   0.557  1.5611  1.7107 -1.1011
25229SOL    HW276266   9.116   2.056   0.530 -0.9829 -2.2157  1.8716
25230SOL     OW76267   3.472   4.494   3.045 -1.0182 -0.0528  0.7832
25230SOL    HW176268   3.532   4.562   3.075 -1.2322  0.3726  0.2693
25230SOL    HW276269   3.427   4.465   3.124 -1.5231  0.9981  0.9111
25231SOL     OW76270   7.819   4.969   3.245 -0.3587 -0.1420 -0.1150
25231SOL    HW176271   7.834   5.063   3.252 -0.1635 -0.2802  1.5927
25231SOL    HW276272   7.903   4.934   3.214  0.5866 -0.0589  2.1795
25232SOL     OW76273   3.869   6.340   6.780 -0.2710  0.5763  0.0966
25232SOL    HW176274   3.909   6.328   6.693 -0.0487  0.0369  0.2649
25232SOL    HW276275   3.806   6.268   6.786  0.7599 -0.2851  0.9617
25233SOL     OW76276   9.636   1.993   6.825 -0.2139  1.0956 -0.1254
25233SOL    HW176277   9.606   1.935   6.756  1.1256  1.4186 -1.0220
25233SOL    HW276278   9.658   1.934   6.897 -1.1005  0.7081 -0.1566
25234SOL     OW76279   6.899   3.090   8.284 -0.2391  0.6215 -0.1909
25234SOL    HW176280   6.921   3.117   8.373  3.0475  1.2791 -1.0554
25234SOL    HW276281   6.875   3.172   8.240 -1.6513  0.3285 -0.0017
25235SOL     OW76282   4.066   0.356   3.398 -0.1805  1.1258 -0.1407
25235SOL    HW176283   3.974   0.334   3.415  0.2987 -0.7985  0.2702
25235SOL    HW276284   4.089   0.305   3.321  0.7302  0.9768  0.2153
25236SOL     OW76285   1.363   4.141   4.236  0.2896 -0.3084  0.0364
25236SOL    HW176286   1.338   4.049   4.225 -0.3593 -0.0870 -0.3598
25236SOL    HW276287   1.438   4.152   4.177 -1.3843  0.1216 -2.1653
25237SOL     OW76288   7.420   7.886   5.410  0.1994 -0.3241 -0.0606
25237SOL    HW176289   7.485   7.820   5.435 -0.4152 -0.8687  0.1333
25237SOL    HW276290   7.336   7.850   5.440 -0.0763  0.8440  0.6548
25238SOL     OW76291   4.748   3.948   5.700 -0.2021 -0.5495 -0.5411
25238SOL    HW176292   4.775   4.034   5.732 -1.1919  0.6053 -2.6312
25238SOL    HW276293   4.826   3.913   5.658  0.3859 -0.9995  0.8580
25239SOL     OW76294   0.440   5.383   5.062 -0.5417  0.0330 -0.7394
25239SOL    HW176295   0.352   5.349   5.043  0.0352 -1.3100 -1.1028
25239SOL    HW276296   0.497   5.307   5.056  1.0081  1.2725 -2.7841
25240SOL     OW76297   0.019   0.020   0.723 -0.0674 -0.9568  0.1150
25240SOL    HW176298   0.021  -0.029   0.806  0.7169  2.1800  2.1284
25240SOL    HW276299   0.094   0.079   0.729 -1.5762  1.2695 -1.5806
25241SOL     OW76300   3.940   0.449   0.166 -0.2344 -0.1282  0.3645
25241SOL    HW176301   3.856   0.465   0.124 -0.2399 -0.3815  0.2781
25241SOL    HW276302   3.981   0.535   0.173 -1.3469  0.3131  2.2149
25242SOL     OW76303   8.388   2.961   4.524 -0.4256 -0.1957  0.3323
25242SOL    HW176304   8.468   2.956   4.471 -0.1414 -0.8763  0.8022
25242SOL    HW276305   8.343   2.878   4.507 -0.4962 -0.2794  0.8809
25243SOL     OW76306   1.732   3.510   3.734 -0.5213 -0.4294 -0.3408
25243SOL    HW176307   1.731   3.578   3.666 -0.9274 -0.4045 -0.3115
25243SOL    HW276308   1.644   3.472   3.731 -1.2810  1.0512  1.6770
25244SOL     OW76309   7.351   1.052   0.144 -0.1280 -0.0422  0.6912
25244SOL    HW176310   7.296   1.060   0.066 -1.0966 -0.2053  1.3426
25244SOL    HW276311   7.412   0.981   0.123 -1.1326 -0.8683  0.5093
25245SOL     OW76312   8.149   7.633   8.622  0.1068 -0.2185 -0.2133
25245SOL    HW176313   8.128   7.714   8.576  0.6093 -0.8279 -1.5769
25245SOL    HW276314   8.182   7.574   8.554 -0.0132 -1.4904  0.7771
25246SOL     OW76315   0.109   1.259   4.032 -0.0801 -0.5184 -0.2221
25246SOL    HW176316   0.114   1.355   4.026  0.2465 -0.4984  0.3237
25246SOL    HW276317   0.078   1.232   3.946 -1.4159  0.1573  0.0183
25247SOL     OW76318   3.062   6.102   8.594  0.6369 -0.1212  0.2480
25247SOL    HW176319   3.110   6.052   8.529  1.9154  2.2626 -0.7806
25247SOL    HW276320   3.000   6.154   8.543  1.7052  1.8394  0.8448
25248SOL     OW76321   1.388   3.909   9.770 -0.0933 -0.0798 -0.1421
25248SOL    HW176322   1.326   3.968   9.729  1.1286  0.9006 -0.6495
25248SOL    HW276323   1.471   3.924   9.724  0.6742 -0.9068  0.8888
25249SOL     OW76324   2.877   0.415   3.530  0.1739 -0.3006  0.0233
25249SOL    HW176325   2.946   0.409   3.597  0.7054 -3.0148 -0.6617
25249SOL    HW276326   2.809   0.356   3.561 -0.1045 -0.6548 -1.2190
25250SOL     OW76327   8.895   5.014   4.370 -0.1674  0.0635 -0.8448
25250SOL    HW176328   8.839   5.033   4.294 -0.2563 -0.3819 -0.8958
25250SOL    HW276329   8.845   4.950   4.421 -0.0016  0.1812 -0.5346
25251SOL     OW76330   3.002   2.957   8.062  0.0355 -0.7907  0.2619
25251SOL    HW176331   3.011   2.908   7.980 -0.9464  0.0492 -0.3726
25251SOL    HW276332   2.932   3.021   8.045  2.1648  1.8044  0.5633
25252SOL     OW76333   1.422   5.412   6.454  0.6555  0.1985 -0.0666
25252SOL    HW176334   1.343   5.392   6.404  0.3423 -0.2869  0.6052
25252SOL    HW276335   1.481   5.339   6.436  1.2578  0.9207 -1.1529
25253SOL     OW76336   2.615   0.525   2.123  0.3481 -0.2713 -0.3802
25253SOL    HW176337   2.596   0.599   2.181 -1.7991 -1.5679  0.6914
25253SOL    HW276338   2.708   0.507   2.137  0.4093  0.8835  0.9459
25254SOL     OW76339   9.604   5.882   1.189  0.3044 -0.0085  0.5734
25254SOL    HW176340   9.536   5.836   1.139  1.8155 -1.4860 -0.1979
25254SOL    HW276341   9.605   5.970   1.152  0.4312 -0.6686 -1.0542
25255SOL     OW76342   5.802   3.296   7.314  0.6978  0.2295 -0.0186
25255SOL    HW176343   5.765   3.245   7.242  0.0440 -0.5707  0.8737
25255SOL    HW276344   5.897   3.283   7.306  0.7036  0.7920 -1.1893
25256SOL     OW76345   7.306   6.986   3.735 -0.2480  0.1154  0.9502
25256SOL    HW176346   7.316   6.994   3.640  0.5298  1.8759  1.1436
25256SOL    HW276347   7.257   6.904   3.747 -0.7247  0.0628 -0.9766
25257SOL     OW76348   1.814   2.653   3.549 -0.4477  0.2493 -0.5026
25257SOL    HW176349   1.849   2.677   3.464 -0.9516 -2.6109 -1.6584
25257SOL    HW276350   1.876   2.588   3.583 -1.7798 -0.9075 -0.1533
25258SOL     OW76351   7.731   7.545   2.728 -0.1133 -0.5967  0.3024
25258SOL    HW176352   7.744   7.626   2.777  0.2827  0.3779 -1.3275
25258SOL    HW276353   7.709   7.480   2.794  1.8621  0.2830  1.9403
25259SOL     OW76354   0.597   4.366   2.833  0.7045  0.3933 -0.3573
25259SOL    HW176355   0.518   4.320   2.859  0.5138  0.0915 -1.4227
25259SOL    HW276356   0.628   4.409   2.913 -1.8995  2.5697 -0.3862
25260SOL     OW76357   8.691   4.348   3.393 -0.3395 -0.1571 -0.3736
25260SOL    HW176358   8.664   4.395   3.314  0.4809 -2.0464 -1.8521
25260SOL    HW276359   8.609   4.336   3.442 -0.7744  1.5158 -0.6417
25261SOL     OW76360   9.820   1.387   2.308  0.0672 -0.1058 -0.3832
25261SOL    HW176361   9.757   1.446   2.266  0.5548  0.1131 -0.8288
25261SOL    HW276362   9.791   1.381   2.399  1.0997  2.3923  0.1947
25262SOL     OW76363   8.363   5.796   8.110  0.1947  0.3132 -0.5387
25262SOL    HW176364   8.389   5.705   8.095 -0.4855  0.3486 -2.0943
25262SOL    HW276365   8.286   5.790   8.166  0.5703 -0.0275 -0.0477
25263SOL     OW76366   8.958   6.672   1.951  0.5087 -0.2041  0.0263
25263SOL    HW176367   8.957   6.711   1.864 -1.4852 -1.7589 -0.7396
25263SOL    HW276368   8.919   6.738   2.008  1.4645  0.6714 -0.2983
25264SOL     OW76369   4.239   7.324   5.103 -0.9380  0.2027  0.4270
25264SOL    HW176370   4.155   7.360   5.130 -0.9126 -0.4110  1.3592
25264SOL    HW276371   4.303   7.364   5.161 -0.2208  2.4826 -1.7754
25265SOL     OW76372   0.167   3.439   5.147  0.0046  0.3484  0.0416
25265SOL    HW176373   0.215   3.514   5.111 -0.0762 -0.4072 -1.6940
25265SOL    HW276374   0.181   3.369   5.084  0.1562 -1.1559  1.6843
25266SOL     OW76375   8.867   1.285   0.065  0.0881 -0.3261 -0.1895
25266SOL    HW176376   8.960   1.263   0.067  0.7783  2.2212 -0.7237
25266SOL    HW276377   8.855   1.336  -0.015 -1.7768 -0.5985 -0.1456
25267SOL     OW76378   1.758   4.712   9.868 -0.2911 -0.4981  0.0471
25267SOL    HW176379   1.825   4.714   9.799 -0.4407  2.0255 -0.1190
25267SOL    HW276380   1.771   4.627   9.910  4.0744  0.3652  0.9995
25268SOL     OW76381   4.292   6.233   8.402 -0.3259  0.1467 -0.8612
25268SOL    HW176382   4.306   6.141   8.425  0.6413  0.2054 -1.2091
25268SOL    HW276383   4.310   6.280   8.483  0.4189  0.1305 -1.0144
25269SOL     OW76384   1.081   0.397   4.944  0.5630  0.0688 -0.3200
25269SOL    HW176385   1.139   0.436   4.878  1.0796  0.5057  0.3834
25269SOL    HW276386   1.029   0.333   4.895  0.1303  1.1916 -1.3709
25270SOL     OW76387   7.502   8.847   8.975 -0.1181 -0.3828  0.2783
25270SOL    HW176388   7.464   8.794   9.045  2.0863 -1.1739  0.9711
25270SOL    HW276389   7.556   8.786   8.925  0.1251  0.6271 -0.7359
25271SOL     OW76390   6.009   3.209   2.297  0.1783  0.3560  0.0903
25271SOL    HW176391   6.104   3.197   2.295  0.1226 -0.5392  1.7554
25271SOL    HW276392   5.980   3.184   2.209  1.4203  0.1399 -0.2745
25272SOL     OW76393   1.224   8.215   1.436 -0.4902 -0.1559  0.2300
25272SOL    HW176394   1.172   8.144   1.398  0.9999 -1.4738  0.5596
25272SOL    HW276395   1.189   8.224   1.525  0.3737 -1.6549  0.7635
25273SOL     OW76396   5.858   4.962   0.165  0.0230  0.3413 -0.2538
25273SOL    HW176397   5.819   4.933   0.247  1.0490  0.0757  0.1552
25273SOL    HW276398   5.789   4.950   0.100 -0.8612  0.7173  0.5857
25274SOL     OW76399   1.305   8.263   7.958 -0.5197 -0.0640 -0.0864
25274SOL    HW176400   1.301   8.355   7.984 -0.7873  0.1521 -0.8649
25274SOL    HW276401   1.277   8.263   7.867  0.7693 -0.7498 -0.4986
25275SOL     OW76402   6.395   9.856   8.010  0.3863  0.1930 -0.6394
25275SOL    HW176403   6.347   9.933   8.042  1.6041  0.9670 -0.6165
25275SOL    HW276404   6.473   9.851   8.065  0.2161 -1.2216 -0.4823
25276SOL     OW76405   4.792   8.954   3.153 -0.6640  0.4930  0.0990
25276SOL    HW176406   4.872   8.977   3.201  0.2804 -1.4664 -0.4217
25276SOL    HW276407   4.807   8.864   3.124 -2.7223  0.3840 -0.7686
25277SOL     OW76408   9.048   2.739   2.158 -0.2817 -0.6715 -0.3416
25277SOL    HW176409   9.016   2.689   2.234 -0.3529  1.3525  1.0346
25277SOL    HW276410   9.140   2.712   2.150  0.2285  0.2765  1.5783
25278SOL     OW76411   8.367   0.997   1.358  0.5760  0.2359 -0.0080
25278SOL    HW176412   8.296   1.033   1.305  0.6296 -0.9325 -0.9236
25278SOL    HW276413   8.429   0.962   1.294  0.8662 -0.8116  0.8052
25279SOL     OW76414   1.281   8.702   8.224  0.2200  0.1266  0.1155
25279SOL    HW176415   1.205   8.757   8.241 -0.5882 -1.3518  1.5692
25279SOL    HW276416   1.279   8.636   8.293  3.6560  0.8433  1.1421
25280SOL     OW76417   6.723   6.905   6.816  0.6429  0.6655  0.2717
25280SOL    HW176418   6.788   6.964   6.776  1.0963  0.1546  0.2418
25280SOL    HW276419   6.766   6.872   6.894  0.1277  0.8969  0.6591
25281SOL     OW76420   6.945   1.692   5.460  0.5448  0.2952  0.0017
25281SOL    HW176421   6.938   1.757   5.390 -0.4923  0.2757  0.0698
25281SOL    HW276422   6.856   1.682   5.492  0.6856 -1.1112  0.0384
25282SOL     OW76423   7.027   0.150   9.425 -0.5360  1.0341 -0.3002
25282SOL    HW176424   7.115   0.113   9.431 -0.3651  1.4508 -0.1810
25282SOL    HW276425   7.038   0.241   9.454 -0.8157  1.3843 -1.2445
25283SOL     OW76426   2.891   1.442   7.132 -0.2384 -0.7999  0.7843
25283SOL    HW176427   2.883   1.424   7.226 -0.8280 -0.2997  0.8356
25283SOL    HW276428   2.809   1.485   7.109  0.9166  1.4756  0.6011
25284SOL     OW76429   3.788   4.115   5.690 -1.0144 -0.3002 -0.0163
25284SOL    HW176430   3.827   4.094   5.775 -1.9206  0.8311  0.7053
25284SOL    HW276431   3.861   4.108   5.629 -0.0006  0.2828  1.0756
25285SOL     OW76432   2.655   2.276   6.308 -0.0597  0.1952 -0.2890
25285SOL    HW176433   2.572   2.283   6.260  0.5058  0.8712 -1.2056
25285SOL    HW276434   2.710   2.222   6.252 -0.0692 -0.7862  0.6171
25286SOL     OW76435   5.243   8.871   2.284  0.0547  0.3569 -0.1248
25286SOL    HW176436   5.295   8.850   2.361  0.5384 -1.3594 -0.8673
25286SOL    HW276437   5.307   8.901   2.219 -0.2524  1.0087 -0.1416
25287SOL     OW76438   7.304   9.243   7.312  0.1339 -0.1381  0.2438
25287SOL    HW176439   7.377   9.287   7.269 -0.1590 -0.8907 -1.1021
25287SOL    HW276440   7.229   9.301   7.296 -0.0094 -0.5023 -0.4453
25288SOL     OW76441   2.432   3.323   1.118  0.5664  0.0727 -1.3329
25288SOL    HW176442   2.354   3.328   1.174  2.4406 -0.5954  1.5659
25288SOL    HW276443   2.425   3.237   1.077 -0.3958  0.1657 -1.3903
25289SOL     OW76444   3.974   2.306   1.063  0.1077 -0.2233 -0.4527
25289SOL    HW176445   3.900   2.257   1.098 -0.8671  1.5466  0.1164
25289SOL    HW276446   4.018   2.342   1.140  1.5248 -1.1314 -0.7901
25290SOL     OW76447   5.189   9.318   8.100  0.0547 -0.2388  0.0658
25290SOL    HW176448   5.146   9.392   8.144  0.7665 -0.4276  1.1015
25290SOL    HW276449   5.278   9.317   8.135  1.3942  0.9338 -2.9651
25291SOL     OW76450   8.858   5.935   2.268 -0.4199 -0.1380 -0.2438
25291SOL    HW176451   8.834   5.843   2.259 -1.5416 -0.1398  1.9597
25291SOL    HW276452   8.942   5.934   2.314  0.6102 -0.0408 -2.0423
25292SOL     OW76453   2.166   4.364   9.531 -0.7722  0.4628 -0.6758
25292SOL    HW176454   2.090   4.314   9.562 -0.6516  0.9248  0.4249
25292SOL    HW276455   2.238   4.302   9.532 -0.5686  0.6927  0.9265
25293SOL     OW76456   3.345   9.411   1.960 -0.7549 -0.7121 -0.3795
25293SOL    HW176457   3.344   9.418   1.865  1.6786  1.0344 -0.3660
25293SOL    HW276458   3.419   9.354   1.979 -0.5544 -0.1750  0.4941
25294SOL     OW76459   2.043   3.590   6.118  0.1309  0.3210  0.1762
25294SOL    HW176460   2.094   3.529   6.064  0.7350  0.0073  1.0701
25294SOL    HW276461   2.095   3.670   6.120 -1.2051  1.3227 -1.9393
25295SOL     OW76462   6.555   1.884   9.227 -0.2786  0.1749  0.3672
25295SOL    HW176463   6.479   1.827   9.220  1.4256 -2.0211 -1.8721
25295SOL    HW276464   6.611   1.842   9.292  0.1550  0.3137  0.0899
25296SOL     OW76465   1.187   7.410   3.290  0.0313  0.0042 -0.1138
25296SOL    HW176466   1.135   7.390   3.213  0.7821 -0.3440 -0.5408
25296SOL    HW276467   1.229   7.493   3.271 -0.5038  0.3825  0.3107
25297SOL     OW76468   9.239   3.226   1.341 -0.4996 -0.0735 -0.2565
25297SOL    HW176469   9.259   3.298   1.400  0.1756  0.2557 -0.8802
25297SOL    HW276470   9.236   3.265   1.254 -1.7266 -0.5124 -0.4278
25298SOL     OW76471   6.768   5.285   0.921  0.1259 -0.5555 -0.4008
25298SOL    HW176472   6.822   5.273   0.999 -0.8675  0.5785  0.4979
25298SOL    HW276473   6.770   5.380   0.905 -1.7655 -0.4329 -0.1840
25299SOL     OW76474   3.663   5.504   9.126  0.5617  0.3699  0.1377
25299SOL    HW176475   3.666   5.497   9.031 -1.2892  0.5278  0.0327
25299SOL    HW276476   3.652   5.598   9.143 -1.4651  0.1391  0.3630
25300SOL     OW76477   0.685   8.777   7.650 -0.1315  0.0002  0.1804
25300SOL    HW176478   0.634   8.791   7.730  0.6632  1.6974  0.4422
25300SOL    HW276479   0.769   8.821   7.667 -0.0255  0.5947 -1.6480
25301SOL     OW76480   7.440   0.568   1.321 -0.2775  0.0849  0.0617
25301SOL    HW176481   7.385   0.590   1.396  0.0171 -0.0025  0.3080
25301SOL    HW276482   7.491   0.647   1.304  1.6725 -0.7298  1.7235
25302SOL     OW76483   0.487   1.419   2.450 -0.1294 -0.0336 -0.4451
25302SOL    HW176484   0.581   1.400   2.445 -0.1314  0.0009 -0.6157
25302SOL    HW276485   0.456   1.363   2.521  0.2015  0.7014  0.2865
25303SOL     OW76486   1.798   8.304   3.858 -0.2136 -0.6249  0.0187
25303SOL    HW176487   1.788   8.284   3.951 -1.5048  2.1777  0.5896
25303SOL    HW276488   1.874   8.252   3.830 -0.7071 -2.6904  2.2064
25304SOL     OW76489   2.675   4.041   5.062 -0.3071 -0.2183 -0.3228
25304SOL    HW176490   2.697   3.956   5.099 -0.7214 -0.2074 -0.0420
25304SOL    HW276491   2.727   4.104   5.112  1.1403 -0.4132 -1.5081
25305SOL     OW76492   2.969   4.937   1.803 -0.1033 -0.1300 -0.1264
25305SOL    HW176493   2.889   4.897   1.837 -0.1453 -1.6591 -1.8680
25305SOL    HW276494   2.953   5.031   1.809 -1.7970 -0.3980  0.1212
25306SOL     OW76495   8.359   3.887   4.641  0.1905 -0.0637  0.7862
25306SOL    HW176496   8.283   3.930   4.602 -0.0571 -0.9682  0.2415
25306SOL    HW276497   8.322   3.828   4.706  0.2734 -1.6042 -0.4921
25307SOL     OW76498   9.859   8.971   2.476 -0.3130  0.3853 -0.3291
25307SOL    HW176499   9.866   8.928   2.391  1.0171 -0.4623  0.1731
25307SOL    HW276500   9.939   8.947   2.522 -1.7053 -0.5179  1.7884
25308SOL     OW76501   7.748   4.214   2.637  0.4638  0.6042  0.8743
25308SOL    HW176502   7.734   4.162   2.558  2.4414  2.7919 -1.0765
25308SOL    HW276503   7.660   4.239   2.666 -0.2849  0.8893 -1.4949
25309SOL     OW76504   4.960   6.290   9.757  0.1694  0.1544  0.2571
25309SOL    HW176505   4.914   6.334   9.685  0.4423  1.0879  0.6340
25309SOL    HW276506   5.040   6.255   9.717  1.4272  2.5415  0.4620
25310SOL     OW76507   3.638   9.981   7.564  0.3504  0.1876  0.2128
25310SOL    HW176508   3.661   9.891   7.540  0.7285  0.2290  0.4043
25310SOL    HW276509   3.663  10.033   7.487  1.8542  0.3614  0.7823
25311SOL     OW76510   0.174   1.928   2.670 -0.3555  0.0655 -0.0412
25311SOL    HW176511   0.164   1.856   2.732 -2.6527 -0.2972 -0.7172
25311SOL    HW276512   0.222   1.890   2.597 -2.0904 -1.0203 -0.6687
25312SOL     OW76513   4.334   2.537   7.310  0.1860 -0.3202 -0.1862
25312SOL    HW176514   4.322   2.464   7.372 -1.9356  1.1581  1.2740
25312SOL    HW276515   4.405   2.589   7.347 -0.2476 -0.1079  0.3568
25313SOL     OW76516   9.672   1.239   9.665 -0.2488  0.0914 -0.5033
25313SOL    HW176517   9.673   1.158   9.717 -1.4415 -0.6593 -1.6010
25313SOL    HW276518   9.751   1.286   9.694 -0.6641 -0.4459  1.7077
25314SOL     OW76519   7.564   8.424   1.458  0.5486  0.0261  0.5444
25314SOL    HW176520   7.488   8.378   1.493  0.4302 -0.1865  0.0254
25314SOL    HW276521   7.530   8.475   1.385  0.7545  0.6255  0.8585
25315SOL     OW76522   7.058   1.748   6.902  0.0193 -0.0383 -0.2928
25315SOL    HW176523   7.033   1.827   6.855 -2.5990 -1.2236 -1.0456
25315SOL    HW276524   7.007   1.678   6.862  0.3137 -1.7015  1.9957
25316SOL     OW76525   3.057   3.247   4.191 -0.0165 -0.4030 -0.1907
25316SOL    HW176526   3.009   3.285   4.117 -0.5725 -0.1308  0.3050
25316SOL    HW276527   3.142   3.223   4.154  0.3132  1.2061 -0.5610
25317SOL     OW76528   3.964   4.528   3.355  0.1242  0.5039 -0.1474
25317SOL    HW176529   4.009   4.582   3.290  0.4884 -0.9282 -1.1473
25317SOL    HW276530   4.032   4.469   3.388 -0.5286 -0.2199 -0.0600
25318SOL     OW76531   5.767   0.763   9.818  0.3887 -0.3374  0.5439
25318SOL    HW176532   5.837   0.828   9.815 -0.5510  0.7104  1.1825
25318SOL    HW276533   5.813   0.680   9.831  1.6982 -0.0116 -1.4552
25319SOL     OW76534   6.444   0.857   6.319  0.4884 -0.8121  0.6209
25319SOL    HW176535   6.382   0.905   6.265  1.0027  1.1338  1.6581
25319SOL    HW276536   6.526   0.858   6.269  1.1862  1.6854  1.6588
25320SOL     OW76537   7.709   9.096   2.192  0.2072  0.1726  0.0821
25320SOL    HW176538   7.619   9.118   2.216  0.8502  1.4606  1.5178
25320SOL    HW276539   7.733   9.028   2.255  0.7923  1.1065  0.8909
25321SOL     OW76540   5.110   6.918   2.382 -0.1464  0.3513 -0.4812
25321SOL    HW176541   5.180   6.983   2.381 -0.8742  1.2546  1.9760
25321SOL    HW276542   5.142   6.850   2.441 -0.1296 -0.7334 -1.6908
25322SOL     OW76543   6.931   9.106   9.171  0.0609 -0.3668  0.1272
25322SOL    HW176544   6.926   9.115   9.076  1.2511 -0.6727  0.0136
25322SOL    HW276545   7.025   9.097   9.189 -0.0727  0.4508  1.4041
25323SOL     OW76546   9.885   8.276   8.539 -0.2714 -0.3967 -0.1723
25323SOL    HW176547   9.965   8.252   8.493  0.1366 -0.4711  0.5545
25323SOL    HW276548   9.904   8.360   8.579 -1.1999  0.4844 -1.5042
25324SOL     OW76549   2.817   2.046   8.220  0.0138  0.3009 -0.4291
25324SOL    HW176550   2.824   2.140   8.203  0.5128  0.6819  1.6050
25324SOL    HW276551   2.907   2.014   8.213  0.4795  0.7219  2.4420
25325SOL     OW76552   7.333   2.580   0.180  0.3121 -0.8378 -0.2924
25325SOL    HW176553   7.345   2.623   0.096  1.0146 -1.3217 -0.4514
25325SOL    HW276554   7.416   2.536   0.197 -0.3548 -2.0957 -0.1211
25326SOL     OW76555   5.714   3.905   1.573  0.2377 -0.3844 -0.5492
25326SOL    HW176556   5.784   3.877   1.514  1.5367  0.7706  0.3755
25326SOL    HW276557   5.745   3.884   1.661 -0.3513  0.5972 -0.0844
25327SOL     OW76558   2.655   0.829   4.684 -0.1677  0.1276  0.3072
25327SOL    HW176559   2.635   0.828   4.590 -0.2588  0.3579  0.3233
25327SOL    HW276560   2.726   0.766   4.694  0.0772  0.3562  0.0312
25328SOL     OW76561   7.409   4.884   0.930 -0.2293 -0.2416  0.5182
25328SOL    HW176562   7.344   4.953   0.935 -0.0015  0.0750 -0.5823
25328SOL    HW276563   7.359   4.804   0.918 -0.4156  0.0132 -0.4255
25329SOL     OW76564   9.670   0.936   1.959 -0.2321 -0.0420  0.4363
25329SOL    HW176565   9.637   0.883   1.886  1.8054 -0.8178 -0.0108
25329SOL    HW276566   9.670   1.026   1.926  0.4173 -0.3511 -0.4557
25330SOL     OW76567   5.819   5.734   3.012  0.0893  0.1478  0.4388
25330SOL    HW176568   5.792   5.651   3.051 -0.2038  0.0262 -0.0063
25330SOL    HW276569   5.740   5.787   3.012 -0.0906 -0.0989 -0.5972
25331SOL     OW76570   0.699   1.998   5.127  0.1340  0.0125 -0.1189
25331SOL    HW176571   0.688   2.086   5.161  0.5225  0.2416 -0.5819
25331SOL    HW276572   0.727   1.946   5.203  3.1046  0.9432 -0.4356
25332SOL     OW76573   1.544   8.335   9.724  0.2780  0.2530 -0.1204
25332SOL    HW176574   1.496   8.268   9.675 -0.3355  0.7902 -0.2578
25332SOL    HW276575   1.622   8.289   9.757  0.6869 -0.1183 -1.5642
25333SOL     OW76576   3.284   9.325   6.265  0.3630 -0.2371 -0.1610
25333SOL    HW176577   3.226   9.350   6.193  0.8153 -0.0864 -0.4833
25333SOL    HW276578   3.337   9.254   6.228  0.6098 -0.1450  0.0157
25334SOL     OW76579   5.693   8.814   2.842  0.5323  0.6359 -0.2732
25334SOL    HW176580   5.650   8.729   2.840  1.5159  0.1235 -1.5683
25334SOL    HW276581   5.677   8.848   2.930 -1.2125 -0.1725 -0.2500
25335SOL     OW76582   8.142   5.483   7.747  0.1298  0.5633  0.1521
25335SOL    HW176583   8.214   5.545   7.758  0.4335  0.2087  0.1899
25335SOL    HW276584   8.122   5.487   7.653  0.5024  0.3330  0.0600
25336SOL     OW76585   8.103   4.481   1.374 -0.2637 -0.4648 -0.4555
25336SOL    HW176586   8.102   4.473   1.470 -1.3401 -1.9468 -0.5506
25336SOL    HW276587   8.148   4.563   1.358  0.2330 -0.3326  1.3178
25337SOL     OW76588   1.471   8.230   3.483 -0.1577  0.4056  0.2692
25337SOL    HW176589   1.558   8.241   3.445 -0.0374 -0.9171  0.1060
25337SOL    HW276590   1.411   8.237   3.408 -0.1189  0.4600  0.2438
25338SOL     OW76591   7.985   2.596   2.679 -0.3495 -0.4494  0.5305
25338SOL    HW176592   7.902   2.571   2.722 -1.3542 -0.8212 -1.5061
25338SOL    HW276593   7.990   2.538   2.603  0.4054  1.4095 -0.8999
25339SOL     OW76594   8.620   5.723   6.030  0.1003  0.3013 -0.3481
25339SOL    HW176595   8.642   5.708   5.939 -0.1783  0.0293 -0.3709
25339SOL    HW276596   8.524   5.730   6.031  0.0826  0.0424 -0.0418
25340SOL     OW76597   3.922   5.386   7.621  0.1279  0.2689 -0.2001
25340SOL    HW176598   3.866   5.414   7.548 -0.0614 -0.1004 -0.1989
25340SOL    HW276599   4.007   5.368   7.580 -0.0989 -0.3602 -0.4041
25341SOL     OW76600   5.357   3.375   1.839 -0.1066 -0.3616 -0.1686
25341SOL    HW176601   5.304   3.454   1.847 -1.0337 -1.0864  1.3797
25341SOL    HW276602   5.446   3.406   1.828 -0.5119  0.8832 -0.0479
25342SOL     OW76603   8.345   9.131   2.942 -0.1232  0.2151 -0.0451
25342SOL    HW176604   8.405   9.112   3.015  1.1042 -0.9948 -1.3016
25342SOL    HW276605   8.306   9.046   2.922 -1.4422  0.7838  0.0091
25343SOL     OW76606   5.166   8.496   5.009 -0.0359  0.2767 -0.7878
25343SOL    HW176607   5.088   8.547   4.983 -0.2751 -0.5374 -1.7443
25343SOL    HW276608   5.217   8.557   5.062 -0.8279  1.1723 -1.0091
25344SOL     OW76609   0.792   9.455   8.480 -0.1460  0.7725 -0.0956
25344SOL    HW176610   0.832   9.465   8.566  1.0896 -1.1015 -0.3846
25344SOL    HW276611   0.712   9.507   8.484 -0.3317  0.4024  2.3047
25345SOL     OW76612   2.074   3.305   9.390 -0.0029  0.2838 -0.1061
25345SOL    HW176613   1.993   3.255   9.404  0.5201 -0.8440 -0.8968
25345SOL    HW276614   2.056   3.391   9.427 -1.7192  0.1858 -0.6270
25346SOL     OW76615   1.111   8.388   3.612  0.0782 -0.0881 -0.1455
25346SOL    HW176616   1.040   8.448   3.591 -1.7936 -0.7411  3.5960
25346SOL    HW276617   1.188   8.444   3.618 -0.5288  1.0178 -1.9148
25347SOL     OW76618   5.124   6.064   1.158 -0.4345  0.3346 -0.4410
25347SOL    HW176619   5.165   5.986   1.121 -2.3440 -1.5256  1.1179
25347SOL    HW276620   5.053   6.085   1.096 -0.4232  0.3472 -0.4499
25348SOL     OW76621   5.139   0.929   5.542 -0.0073  0.2617 -0.0658
25348SOL    HW176622   5.155   0.979   5.622  0.7923  1.0836 -0.7138
25348SOL    HW276623   5.161   0.839   5.565  0.6014  0.5545  0.5220
25349SOL     OW76624   6.566   8.904   9.499  0.3658  0.2211  0.0369
25349SOL    HW176625   6.491   8.858   9.537 -0.0205 -0.1545 -1.1523
25349SOL    HW276626   6.528   8.979   9.453  0.9172  1.2702  1.1924
25350SOL     OW76627   5.684   5.987   4.369 -0.0803 -0.2438 -0.2766
25350SOL    HW176628   5.733   6.047   4.425  0.0021 -1.0072  0.4862
25350SOL    HW276629   5.592   6.010   4.384 -0.0248  0.0722 -0.4221
25351SOL     OW76630   4.093   6.854   8.685  0.2403 -0.4082 -0.4810
25351SOL    HW176631   4.182   6.823   8.668  0.3516 -0.4753  0.1848
25351SOL    HW276632   4.036   6.794   8.637  0.5808  0.0715 -1.5130
25352SOL     OW76633   6.555   0.914   6.563  0.1042 -0.4573 -0.0760
25352SOL    HW176634   6.512   0.887   6.481  0.2371  0.7913 -0.5759
25352SOL    HW276635   6.629   0.854   6.571  0.4681 -0.2023 -1.2284
25353SOL     OW76636   0.948   7.593   0.596  0.0865 -0.1957 -0.5046
25353SOL    HW176637   0.974   7.681   0.568 -1.2958  0.7868  1.0709
25353SOL    HW276638   0.895   7.560   0.523  0.5097  0.3390 -1.0622
25354SOL     OW76639   8.633   0.136   4.861 -0.0703 -0.4343 -0.7055
25354SOL    HW176640   8.550   0.136   4.813 -0.0085  0.1690 -0.8236
25354SOL    HW276641   8.649   0.044   4.882 -0.5376 -0.6062 -1.0854
25355SOL     OW76642   8.727   9.467   9.089  0.0259  0.0950  0.6236
25355SOL    HW176643   8.734   9.480   9.184 -3.8204  1.9078  0.8403
25355SOL    HW276644   8.649   9.412   9.079  0.9976 -0.9964 -1.5219
25356SOL     OW76645   7.466   8.129   9.588 -0.0524  0.8906  0.1296
25356SOL    HW176646   7.374   8.148   9.607 -1.0371 -1.8710 -1.2883
25356SOL    HW276647   7.500   8.093   9.670 -0.2970  1.6982  0.5914
25357SOL     OW76648   9.115   7.380   7.801  0.2740  0.5814 -0.8995
25357SOL    HW176649   9.035   7.328   7.811  0.2163  0.2975 -2.5749
25357SOL    HW276650   9.103   7.454   7.860 -0.1386 -0.6951  0.6916
25358SOL     OW76651   9.292   3.710   9.359  0.0300 -0.4419  0.8575
25358SOL    HW176652   9.202   3.680   9.349  0.3792 -0.8501 -1.7817
25358SOL    HW276653   9.285   3.803   9.379 -0.9746 -0.5423  1.0089
25359SOL     OW76654   4.081   1.752   7.127 -0.0889 -0.6572  0.0655
25359SOL    HW176655   4.140   1.704   7.185 -0.7312  0.4821  1.7453
25359SOL    HW276656   4.139   1.809   7.076  0.4520 -1.3470 -0.1032
25360SOL     OW76657   0.372   7.123   6.322 -0.3573  0.0613 -0.3067
25360SOL    HW176658   0.415   7.204   6.295  2.2935 -1.3778 -0.6954
25360SOL    HW276659   0.314   7.101   6.249 -2.5686  2.4269  0.5446
25361SOL     OW76660   8.333   8.272   3.081  0.0715  0.5602  0.0281
25361SOL    HW176661   8.285   8.220   3.146  1.0744 -0.1071  0.2623
25361SOL    HW276662   8.399   8.319   3.132 -0.5148  1.7339 -0.2444
25362SOL     OW76663   9.852   5.861   9.745  0.3148 -0.2630 -0.6196
25362SOL    HW176664   9.770   5.864   9.696 -2.3453  0.5617  3.4166
25362SOL    HW276665   9.879   5.769   9.741 -2.6705 -1.2858  0.6083
25363SOL     OW76666   3.516   6.403   9.353 -0.1390 -0.2441  0.5837
25363SOL    HW176667   3.537   6.366   9.267 -0.3250  0.7086  0.1185
25363SOL    HW276668   3.597   6.396   9.402  0.2750  0.1897 -0.0298
25364SOL     OW76669   6.206   1.916   7.900 -0.6760 -0.8845 -0.0696
25364SOL    HW176670   6.287   1.935   7.948  0.2313 -1.4000 -1.3378
25364SOL    HW276671   6.196   1.990   7.840 -1.3067 -0.6943  0.2598
25365SOL     OW76672   3.792   6.933   3.419 -0.0825  0.3283 -0.3272
25365SOL    HW176673   3.711   6.982   3.408 -0.4828 -0.5710 -1.6295
25365SOL    HW276674   3.851   6.994   3.464 -1.5321  0.9061  0.8876
25366SOL     OW76675   1.725   1.236   8.961  0.4014 -0.1094 -0.0791
25366SOL    HW176676   1.645   1.286   8.979 -0.4601 -0.9118 -1.4918
25366SOL    HW276677   1.724   1.166   9.026  0.4734  0.4328  0.5188
25367SOL     OW76678   1.202   1.814   8.627 -0.1925  0.5400  0.0265
25367SOL    HW176679   1.281   1.804   8.573 -0.1815  0.6116  0.0282
25367SOL    HW276680   1.235   1.846   8.711 -0.2195  0.5312  0.0404
25368SOL     OW76681   2.293   1.791   2.524  0.3201  0.1444  0.0980
25368SOL    HW176682   2.226   1.859   2.513  0.1290  0.0422  0.6123
25368SOL    HW276683   2.248   1.721   2.571  0.0900 -0.9715 -1.6685
25369SOL     OW76684   1.339   8.589   3.831 -0.6503 -0.5310 -0.2465
25369SOL    HW176685   1.283   8.611   3.756 -0.8110 -0.9951 -0.2636
25369SOL    HW276686   1.414   8.647   3.822 -0.4914 -0.8416 -0.9772
25370SOL     OW76687   4.082   9.227   2.064 -0.0414 -0.2673  0.4014
25370SOL    HW176688   4.010   9.172   2.036  1.2654 -1.8093 -0.0975
25370SOL    HW276689   4.141   9.231   1.989  1.0981 -0.2709  1.2601
25371SOL     OW76690   3.861   6.936   0.604  0.2626 -0.4624  0.2559
25371SOL    HW176691   3.894   6.883   0.676 -0.1621 -0.5498  0.3857
25371SOL    HW276692   3.940   6.969   0.561  0.5228  1.0599  1.8272
25372SOL     OW76693   1.261   4.387   4.210 -0.1747  0.1226  0.0324
25372SOL    HW176694   1.296   4.301   4.232  1.5564  0.6561 -0.4200
25372SOL    HW276695   1.166   4.375   4.206 -0.1006 -1.3372  1.7132
25373SOL     OW76696   8.881   3.155   9.320 -0.1597  0.3540 -0.2399
25373SOL    HW176697   8.803   3.129   9.369 -0.8479  2.4173 -0.1695
25373SOL    HW276698   8.898   3.080   9.262 -2.5471  0.0871 -0.6826
25374SOL     OW76699   7.201   1.685   9.792 -0.5292 -0.3574  0.9830
25374SOL    HW176700   7.252   1.660   9.869  0.4297  0.5022  0.6597
25374SOL    HW276701   7.148   1.608   9.772 -0.1824 -0.8834  2.0031
25375SOL     OW76702   0.262   7.163   6.672  0.2373 -0.5626 -0.2871
25375SOL    HW176703   0.337   7.141   6.727  0.1009 -1.6276 -0.5169
25375SOL    HW276704   0.234   7.249   6.703  0.4474 -0.9452  0.9882
25376SOL     OW76705   1.161   3.670   2.094  0.0161 -0.7888  0.7365
25376SOL    HW176706   1.079   3.681   2.144  0.1031 -0.7327  0.8678
25376SOL    HW276707   1.135   3.679   2.003  0.0078  0.0404  0.8101
25377SOL     OW76708   3.962   7.484   5.664  0.1992 -0.0098  0.4349
25377SOL    HW176709   4.033   7.446   5.715  0.6324  1.0789  0.6842
25377SOL    HW276710   3.969   7.444   5.578  0.2382 -0.9408  0.8614
25378SOL     OW76711   6.405   5.927   6.628 -0.1791 -0.3261 -1.0549
25378SOL    HW176712   6.489   5.971   6.613  0.7095 -1.8970 -0.9205
25378SOL    HW276713   6.348   5.995   6.664  2.0320  0.0771  2.0770
25379SOL     OW76714   8.494   6.528   7.681  0.0828 -0.1735  0.9282
25379SOL    HW176715   8.584   6.556   7.701 -0.9797  1.9247  3.2753
25379SOL    HW276716   8.479   6.453   7.739 -0.8751  1.9512  3.6379
25380SOL     OW76717   0.743   4.898   8.189 -0.3080 -0.6327 -0.3820
25380SOL    HW176718   0.838   4.895   8.184 -0.3676 -0.8614 -1.8036
25380SOL    HW276719   0.724   4.971   8.249  0.7494 -0.5184 -0.1706
25381SOL     OW76720  -0.009   3.781   8.698 -0.0001  0.2801  0.5730
25381SOL    HW176721  -0.034   3.697   8.736 -0.2526  0.5473  0.9978
25381SOL    HW276722   0.085   3.774   8.685 -0.2786 -0.8285 -1.2586
25382SOL     OW76723   5.178   2.460   5.621  0.3415 -0.6287 -0.2880
25382SOL    HW176724   5.214   2.538   5.662 -1.4616  0.9647 -1.5714
25382SOL    HW276725   5.089   2.453   5.655 -0.1998 -0.9392 -1.6847
25383SOL     OW76726   4.891   5.556   8.638  0.0002  0.1559 -0.4223
25383SOL    HW176727   4.978   5.563   8.677  0.0658  0.2429 -0.5832
25383SOL    HW276728   4.842   5.630   8.676 -1.0156 -1.7213  2.2134
25384SOL     OW76729   8.845   1.194   0.956 -0.5625  1.0026 -0.4186
25384SOL    HW176730   8.907   1.266   0.962 -0.0120  0.4164  1.6900
25384SOL    HW276731   8.760   1.235   0.940 -0.3220  2.1800  1.1444
25385SOL     OW76732   2.498   5.438   3.425 -0.2305 -0.2321  0.9390
25385SOL    HW176733   2.454   5.491   3.359  0.4095 -0.5603  0.2332
25385SOL    HW276734   2.483   5.484   3.508 -1.4013 -0.0450  0.6352
25386SOL     OW76735   4.655   4.861   9.460 -0.5403  0.3781 -0.5845
25386SOL    HW176736   4.613   4.895   9.381  0.0842  0.6340 -0.8072
25386SOL    HW276737   4.664   4.767   9.445  2.0315  0.7774 -1.9885
25387SOL     OW76738   8.242   7.116   5.874  0.1979  0.0012 -0.7771
25387SOL    HW176739   8.218   7.110   5.782  0.9333 -1.0081 -0.9206
25387SOL    HW276740   8.263   7.026   5.900 -3.7157 -0.4934  1.4541
25388SOL     OW76741   6.714   6.260   4.842 -0.0530  0.3811 -0.1243
25388SOL    HW176742   6.770   6.335   4.820 -0.7540  1.0041  0.2007
25388SOL    HW276743   6.675   6.235   4.759  0.2332  0.3314 -0.2459
25389SOL     OW76744   9.460   5.801   7.335  0.0485  0.0327 -0.1286
25389SOL    HW176745   9.434   5.720   7.380  1.1237 -0.5083 -0.4450
25389SOL    HW276746   9.394   5.865   7.362  1.0542 -0.0295  2.9034
25390SOL     OW76747   8.827   3.032   6.732 -0.4772 -0.2613 -0.3164
25390SOL    HW176748   8.909   3.016   6.778 -1.6078  1.2542  2.4822
25390SOL    HW276749   8.807   2.950   6.688  0.8074 -1.8077  1.8273
25391SOL     OW76750   6.059   8.689   9.843 -0.6130 -0.2368  0.0036
25391SOL    HW176751   6.150   8.667   9.822 -0.0378  0.8566  1.2177
25391SOL    HW276752   6.012   8.607   9.832  1.1328 -1.7441  2.6005
25392SOL     OW76753   4.151   8.050   3.019  0.5932 -0.0895  0.0608
25392SOL    HW176754   4.215   8.070   3.088  0.1990 -0.3191  0.4991
25392SOL    HW276755   4.156   7.956   3.008  0.3704 -0.1007  0.0575
25393SOL     OW76756   2.851   8.492   9.487 -0.9393 -0.1083 -0.0928
25393SOL    HW176757   2.934   8.453   9.513 -0.6162 -0.0122 -0.9332
25393SOL    HW276758   2.854   8.581   9.524 -1.2142 -0.5100  0.9178
25394SOL     OW76759   6.504   1.187   6.094 -0.0284 -0.1296 -1.0488
25394SOL    HW176760   6.424   1.164   6.046 -0.0607 -1.0839 -0.5666
25394SOL    HW276761   6.473   1.224   6.176  0.0229 -0.1709 -1.0106
25395SOL     OW76762   8.726   7.639   8.338 -0.0656 -0.2696  0.3590
25395SOL    HW176763   8.653   7.663   8.394  0.7792  1.6792  0.6838
25395SOL    HW276764   8.686   7.615   8.254 -1.0439  1.4309  0.3149
25396SOL     OW76765   3.467   0.686   6.276 -0.1792 -0.1289  0.1457
25396SOL    HW176766   3.549   0.734   6.286  1.6076 -2.3714 -2.0125
25396SOL    HW276767   3.463   0.628   6.352 -0.2621  0.6462  0.7348
25397SOL     OW76768   5.267   0.317   4.617 -0.1896 -0.2143  0.1022
25397SOL    HW176769   5.219   0.399   4.624 -2.1851 -1.1093 -1.9470
25397SOL    HW276770   5.221   0.257   4.675  0.7105 -0.1779  0.8901
25398SOL     OW76771   2.322   3.739   4.238 -0.0865  0.6815  0.5158
25398SOL    HW176772   2.297   3.720   4.328 -0.3254 -1.6799  0.0202
25398SOL    HW276773   2.243   3.721   4.187  0.6432 -0.0755 -0.3705
25399SOL     OW76774   6.436   2.284   8.143 -0.0539 -0.3888  1.0891
25399SOL    HW176775   6.470   2.262   8.229  0.2585 -0.8832  0.8417
25399SOL    HW276776   6.506   2.262   8.082 -0.4719 -0.5631  0.6594
25400SOL     OW76777   8.268   6.470   2.208 -0.3347 -0.0627  0.3259
25400SOL    HW176778   8.289   6.376   2.206  1.5655  0.3032 -1.4164
25400SOL    HW276779   8.347   6.511   2.245 -1.0091  0.8865  0.7483
25401SOL     OW76780   4.423   4.267   3.079 -0.0548 -0.6067 -0.1517
25401SOL    HW176781   4.388   4.240   3.164  3.8604 -0.4976  1.7451
25401SOL    HW276782   4.449   4.358   3.092  2.0581 -1.0403 -0.8273
25402SOL     OW76783   7.838   3.700   6.088  0.2189 -0.3688 -0.7438
25402SOL    HW176784   7.785   3.623   6.064  0.9213 -1.5045  1.1144
25402SOL    HW276785   7.788   3.742   6.158  0.1449  0.5384 -1.3315
25403SOL     OW76786   2.872   4.516   2.831  0.2017 -0.3834 -0.2034
25403SOL    HW176787   2.816   4.543   2.758  1.4350 -0.1618 -1.0872
25403SOL    HW276788   2.913   4.435   2.801 -0.5907 -1.2414  0.9458
25404SOL     OW76789   7.514   7.784   9.541 -0.3460  0.1484  0.3165
25404SOL    HW176790   7.526   7.780   9.636  1.3801 -1.9855  0.0993
25404SOL    HW276791   7.448   7.717   9.523  0.1820 -0.2825 -0.0644
25405SOL     OW76792   1.380   1.652   1.470 -0.1356  0.1746 -0.1911
25405SOL    HW176793   1.364   1.694   1.386 -1.4232  0.6187  0.2564
25405SOL    HW276794   1.434   1.575   1.449 -2.4504 -1.1231 -1.7626
25406SOL     OW76795   2.189   2.417   8.773  0.2745  0.0704  0.0018
25406SOL    HW176796   2.185   2.488   8.837 -1.6400  0.4568 -0.4794
25406SOL    HW276797   2.098   2.406   8.743  0.9934 -0.5252 -2.1777
25407SOL     OW76798   4.968   5.606   2.033  0.4877 -0.4709  0.1045
25407SOL    HW176799   4.934   5.686   2.072  0.2889 -0.3338 -0.3458
25407SOL    HW276800   4.982   5.628   1.941  1.6037 -0.5787  0.2323
25408SOL     OW76801   3.244   4.268   0.066  0.0588  0.0829 -0.2959
25408SOL    HW176802   3.266   4.286  -0.026 -2.0869  0.1438 -0.8490
25408SOL    HW276803   3.319   4.218   0.099  1.6278  1.4739 -1.5737
25409SOL     OW76804   7.097   0.867   3.773  0.4923 -0.1600  0.5954
25409SOL    HW176805   7.172   0.923   3.792 -0.8047  1.1341  2.2554
25409SOL    HW276806   7.021   0.925   3.782 -0.8209 -1.8409  0.9452
25410SOL     OW76807   3.808   4.356   2.671 -0.5854 -0.3001  0.2826
25410SOL    HW176808   3.829   4.331   2.581  0.3989 -1.5842  0.8352
25410SOL    HW276809   3.892   4.357   2.716 -1.1529 -0.6050  1.3986
25411SOL     OW76810   0.288   8.314   7.252  0.1412 -0.2209  0.0588
25411SOL    HW176811   0.218   8.344   7.194  0.1803 -0.9583 -0.3905
25411SOL    HW276812   0.245   8.257   7.315  0.2379 -0.1531  0.1864
25412SOL     OW76813   3.815   8.424   0.305  0.4062  0.4393  0.4029
25412SOL    HW176814   3.809   8.444   0.212  2.0610  0.5912  0.2900
25412SOL    HW276815   3.765   8.344   0.316  0.6046  0.1407 -0.7216
25413SOL     OW76816   4.582   5.969   4.952 -0.0933 -0.0379 -0.0126
25413SOL    HW176817   4.536   5.941   4.872  0.0495 -1.6947  0.4561
25413SOL    HW276818   4.567   5.899   5.014 -0.2552  1.2631  1.4850
25414SOL     OW76819   2.225   5.269   4.373 -0.7964 -0.7058 -0.5836
25414SOL    HW176820   2.158   5.246   4.308 -0.1836 -0.8213 -1.1875
25414SOL    HW276821   2.177   5.277   4.455 -1.0314 -4.9853 -0.0746
25415SOL     OW76822   3.403   6.537   5.350 -0.4966 -0.6124  0.4557
25415SOL    HW176823   3.331   6.474   5.357  0.4920 -1.7161  0.8828
25415SOL    HW276824   3.366   6.609   5.298 -2.3071 -0.5693  1.6945
25416SOL     OW76825   0.005   4.593   8.640 -0.0067 -0.0711 -0.2322
25416SOL    HW176826   0.017   4.598   8.735  1.4842 -1.2512 -0.3195
25416SOL    HW276827   0.093   4.606   8.605 -0.1071 -2.0305 -1.3350
25417SOL     OW76828   8.393   6.239   0.968 -0.1267 -0.0108  0.7182
25417SOL    HW176829   8.410   6.316   1.022 -0.6139 -0.2222  1.1702
25417SOL    HW276830   8.459   6.244   0.899  0.0783  0.6148  0.9527
25418SOL     OW76831   8.693   7.289   1.099  0.0961  0.3039 -0.3062
25418SOL    HW176832   8.648   7.348   1.038  0.2939  1.5549  0.7094
25418SOL    HW276833   8.755   7.345   1.145 -1.9167  0.0839  2.9972
25419SOL     OW76834   1.546   5.471   7.376  0.4660  0.1440 -0.2284
25419SOL    HW176835   1.532   5.389   7.330 -0.0229 -0.8255  1.5648
25419SOL    HW276836   1.634   5.499   7.348  1.1544 -1.6218  0.0318
25420SOL     OW76837   6.597   2.606   0.179  0.2794 -0.4439  0.1878
25420SOL    HW176838   6.598   2.510   0.184  1.5503 -0.4519  0.2510
25420SOL    HW276839   6.581   2.626   0.087  0.3655 -0.7291  0.1102
25421SOL     OW76840   2.978   7.105   4.588 -0.0416 -0.1251  0.9218
25421SOL    HW176841   3.001   7.197   4.582  0.7717 -0.2976  1.2783
25421SOL    HW276842   2.949   7.092   4.678 -0.4925 -0.1443  0.7753
25422SOL     OW76843   5.997   0.745   0.343  0.5623 -0.2659 -0.1477
25422SOL    HW176844   6.091   0.733   0.329  0.5484 -0.7369  0.1524
25422SOL    HW276845   5.968   0.664   0.383 -0.1674 -0.5155 -1.1477
25423SOL     OW76846   0.222   2.223   2.649 -0.1861 -0.1272  0.1656
25423SOL    HW176847   0.214   2.130   2.670 -0.5955 -0.3531 -0.9310
25423SOL    HW276848   0.200   2.229   2.556  0.3694  0.9925  0.0853
25424SOL     OW76849   1.487   5.530   1.631  0.2051 -0.3551  0.3246
25424SOL    HW176850   1.499   5.606   1.689  1.9762  0.0616 -0.5142
25424SOL    HW276851   1.457   5.460   1.689 -0.4737  0.6862  1.2972
25425SOL     OW76852   7.017   0.477   8.518  0.7013 -0.3729 -0.0515
25425SOL    HW176853   7.078   0.507   8.586  1.5017  1.5240 -1.4986
25425SOL    HW276854   7.067   0.413   8.467  0.7174 -0.4642  0.0790
25426SOL     OW76855   1.131   5.889   7.155 -0.5549 -0.0675 -0.0696
25426SOL    HW176856   1.099   5.847   7.075  0.6304  0.1715 -0.6849
25426SOL    HW276857   1.156   5.978   7.128  0.0010 -0.0313  0.5295
25427SOL     OW76858   1.876   5.447   9.689  0.2901 -0.4658  0.3701
25427SOL    HW176859   1.843   5.358   9.678 -0.1881 -0.1793 -0.6099
25427SOL    HW276860   1.838   5.496   9.616  2.1270  0.1021 -0.2583
25428SOL     OW76861   7.475   1.387   4.569 -0.3518  0.2279  0.5514
25428SOL    HW176862   7.552   1.346   4.608 -0.7984 -1.7305 -0.5014
25428SOL    HW276863   7.507   1.422   4.486 -0.5752 -0.6497  0.0802
25429SOL     OW76864   5.822   0.207   0.293 -0.6025  0.4034  0.4431
25429SOL    HW176865   5.754   0.148   0.326 -0.8127  0.5332  0.2492
25429SOL    HW276866   5.774   0.286   0.266 -0.9577 -0.9156 -3.4099
25430SOL     OW76867   2.841   6.223   9.509  0.7407 -0.2504 -0.6110
25430SOL    HW176868   2.850   6.170   9.588 -0.3365  0.7627  0.2302
25430SOL    HW276869   2.836   6.313   9.541  1.3795  0.2798 -1.9180
25431SOL     OW76870   5.900   4.681   1.443 -0.1670 -0.1815 -0.1780
25431SOL    HW176871   5.982   4.711   1.483  0.1935  0.2020 -1.1847
25431SOL    HW276872   5.862   4.759   1.405 -0.7414 -0.4632 -0.1918
25432SOL     OW76873   5.261   9.476   2.155 -0.0983 -0.4833  0.4004
25432SOL    HW176874   5.344   9.515   2.129 -0.2426 -0.4995 -0.1102
25432SOL    HW276875   5.196   9.518   2.098 -0.3104 -1.1560  0.1249
25433SOL     OW76876   1.647   4.750   0.147 -0.1979  0.2065  0.2405
25433SOL    HW176877   1.673   4.741   0.055  0.6648 -1.2733  0.6096
25433SOL    HW276878   1.620   4.842   0.155 -0.4342  0.3277 -1.5152
25434SOL     OW76879   4.798   6.941   2.503 -0.2681  0.3461  0.1178
25434SOL    HW176880   4.732   6.923   2.436  0.1804 -0.6052 -0.0922
25434SOL    HW276881   4.881   6.944   2.454  0.1295 -0.8672  0.6714
25435SOL     OW76882   1.187   4.984   6.328 -0.0051 -0.1997 -0.0554
25435SOL    HW176883   1.230   4.988   6.242 -0.0973 -0.2894 -0.1055
25435SOL    HW276884   1.172   4.890   6.343  0.6778 -0.2426  0.3892
25436SOL     OW76885   7.484   4.901   4.802 -0.0236 -1.4276  0.5259
25436SOL    HW176886   7.568   4.937   4.777 -0.4238 -1.8537 -1.6399
25436SOL    HW276887   7.459   4.949   4.881  1.9010 -0.8101  0.7966
25437SOL     OW76888   8.585   9.557   2.492  0.2080 -0.0929 -1.0340
25437SOL    HW176889   8.659   9.605   2.456  1.4094 -0.7759  0.4085
25437SOL    HW276890   8.596   9.468   2.460 -0.2852 -0.0988 -1.2037
25438SOL     OW76891   3.143   4.166   3.094 -0.3711  0.6217  0.9147
25438SOL    HW176892   3.110   4.085   3.132 -0.5865  0.9906  1.5334
25438SOL    HW276893   3.092   4.235   3.136 -0.9597  1.0317 -0.3948
25439SOL     OW76894   1.296   6.346   2.922  0.5546  0.6608  0.2007
25439SOL    HW176895   1.219   6.358   2.867 -1.3702  0.8262  2.7679
25439SOL    HW276896   1.313   6.433   2.958 -0.1060  0.0352  2.1370
25440SOL     OW76897   5.389   3.662   4.833  0.3205 -0.7736  0.1643
25440SOL    HW176898   5.370   3.754   4.816  0.1092 -1.2733 -3.0957
25440SOL    HW276899   5.357   3.646   4.922 -2.8325  1.4922 -0.3936
25441SOL     OW76900   9.049   9.238   9.234 -0.2060  0.1522 -0.3950
25441SOL    HW176901   9.105   9.305   9.195  1.8215 -1.6204 -0.6585
25441SOL    HW276902   9.038   9.172   9.165 -2.0187  0.0508 -0.0772
25442SOL     OW76903   9.183   1.053   7.823 -0.1433 -0.5677  0.1813
25442SOL    HW176904   9.260   1.003   7.849 -0.2154 -1.4000 -1.1117
25442SOL    HW276905   9.113   0.988   7.819 -0.0264 -0.6312 -2.5171
25443SOL     OW76906   7.966   8.738   5.738  0.9882 -0.5395 -0.6798
25443SOL    HW176907   7.997   8.649   5.755 -0.1423 -0.5381  1.7044
25443SOL    HW276908   8.045   8.787   5.715  2.2746 -1.3479  1.6864
25444SOL     OW76909   3.049   0.597   4.792  0.3699 -0.6101 -0.4271
25444SOL    HW176910   3.085   0.570   4.708 -0.3728 -3.6598  0.1270
25444SOL    HW276911   2.964   0.555   4.797 -0.6955  1.5078  0.8701
25445SOL     OW76912   6.387   7.546   1.650 -0.1028 -0.2994  0.3321
25445SOL    HW176913   6.473   7.566   1.615  1.0204 -2.0163  1.9570
25445SOL    HW276914   6.340   7.507   1.577  1.4162 -1.7614  0.0924
25446SOL     OW76915   3.073   9.859   0.131 -0.1859 -0.2800  0.2077
25446SOL    HW176916   3.054   9.953   0.123  1.5942  0.0380 -0.5878
25446SOL    HW276917   3.051   9.838   0.222 -0.1185  1.0266  0.5469
25447SOL     OW76918   5.185   0.352   7.748  0.6869  0.0071  0.2426
25447SOL    HW176919   5.180   0.445   7.772 -1.5045  0.3513 -1.1923
25447SOL    HW276920   5.259   0.318   7.798  1.4969  2.4917  0.9038
25448SOL     OW76921   8.298   3.471   6.558 -0.1829 -0.3187  0.4622
25448SOL    HW176922   8.219   3.524   6.553  0.3174  0.7561  2.7991
25448SOL    HW276923   8.359   3.513   6.498 -1.0177 -0.5853 -0.6151
25449SOL     OW76924   1.022   6.204   2.023  0.2447  0.0805  0.2264
25449SOL    HW176925   1.100   6.183   2.074  0.7415 -0.4051 -0.7060
25449SOL    HW276926   0.998   6.292   2.051  1.2484  0.3234  0.3734
25450SOL     OW76927   0.342   5.411   1.171 -0.1147  0.0302 -0.1469
25450SOL    HW176928   0.359   5.415   1.077  0.7137 -2.3283 -0.1702
25450SOL    HW276929   0.252   5.380   1.177  0.1135 -0.6595 -0.1931
25451SOL     OW76930   9.772   6.362   8.988 -0.5274  0.7306 -0.4317
25451SOL    HW176931   9.702   6.306   8.955 -2.4420  2.7421 -0.0579
25451SOL    HW276932   9.845   6.347   8.928 -0.7541 -2.4179 -0.0644
25452SOL     OW76933   6.580   3.348   6.901  0.0979  0.3692  0.0882
25452SOL    HW176934   6.507   3.328   6.960  0.9683  1.8737  1.8112
25452SOL    HW276935   6.551   3.426   6.853 -0.1181 -0.1152 -0.5827
25453SOL     OW76936   1.938   7.012   3.389  0.3857  0.2450  0.0213
25453SOL    HW176937   1.895   6.942   3.340 -1.7985  2.1590 -1.0393
25453SOL    HW276938   1.951   7.082   3.325  0.8921  1.4531  1.3756
25454SOL     OW76939   2.332   0.398   4.417 -0.7193  0.0954 -0.3345
25454SOL    HW176940   2.267   0.410   4.348  0.4894  0.0403 -1.5412
25454SOL    HW276941   2.412   0.375   4.370  1.0032  3.1328  0.7780
25455SOL     OW76942   6.560   5.424   2.852  0.2476 -0.5742 -0.5124
25455SOL    HW176943   6.554   5.366   2.927  0.4260 -0.7450 -0.6292
25455SOL    HW276944   6.640   5.475   2.867 -1.6361  2.0804  1.3095
25456SOL     OW76945  10.008   1.034   5.011  0.3226  0.2554  0.1399
25456SOL    HW176946   9.945   1.048   5.081  0.4107 -0.0150  0.2753
25456SOL    HW276947   9.977   1.088   4.938 -0.2984 -0.2028  0.0561
25457SOL     OW76948   2.642   7.005   5.088 -0.2450  0.4740  0.1798
25457SOL    HW176949   2.558   6.966   5.113  0.4591 -1.5324 -0.3530
25457SOL    HW276950   2.658   7.073   5.153 -1.4009 -0.3679  1.3894
25458SOL     OW76951   6.830   5.271   4.744  0.1571 -0.0243 -0.2303
25458SOL    HW176952   6.754   5.224   4.778 -1.0881  1.5136 -0.7605
25458SOL    HW276953   6.848   5.229   4.659 -0.7278  0.2194 -0.5522
25459SOL     OW76954   4.030   8.284   4.197  0.3757 -0.1625  0.2089
25459SOL    HW176955   4.107   8.277   4.254  1.3046 -1.9167 -1.1518
25459SOL    HW276956   3.957   8.258   4.253  0.4969  2.6099  1.8612
25460SOL     OW76957   8.526   9.538   8.704 -0.7268 -0.1483  0.6002
25460SOL    HW176958   8.622   9.542   8.707 -0.6165 -2.0814  1.7020
25460SOL    HW276959   8.497   9.615   8.752  0.1892  1.4007 -1.1950
25461SOL     OW76960   7.872   0.235   4.770 -0.1073  0.1082 -0.2024
25461SOL    HW176961   7.919   0.293   4.711  0.7411 -0.6340 -0.2728
25461SOL    HW276962   7.783   0.270   4.772  0.3700  1.3612 -0.2830
25462SOL     OW76963   5.611   7.860   0.379  1.0864  0.2374  0.1430
25462SOL    HW176964   5.567   7.776   0.391  0.8107  0.3336 -0.2004
25462SOL    HW276965   5.666   7.869   0.457  1.6822 -0.6097 -0.1588
25463SOL     OW76966   0.672   8.299   7.515 -0.1551  0.0197  0.1930
25463SOL    HW176967   0.690   8.347   7.596  1.0323  2.1101 -1.2226
25463SOL    HW276968   0.757   8.290   7.472 -1.0189  1.1706 -1.9352
25464SOL     OW76969   3.696   5.095   9.959 -0.3050  0.3592 -0.2699
25464SOL    HW176970   3.676   5.189   9.965 -1.8661  0.0316  0.0388
25464SOL    HW276971   3.692   5.076   9.866  0.6705  0.7141 -0.3984
25465SOL     OW76972   1.506   2.757   6.329  0.6401  0.2630  0.0498
25465SOL    HW176973   1.480   2.676   6.285  1.4430 -0.6446  1.1841
25465SOL    HW276974   1.441   2.822   6.302  0.1136 -0.7041 -1.0544
25466SOL     OW76975   5.916   3.643   7.522 -0.1825  0.2088  0.4314
25466SOL    HW176976   5.889   3.617   7.434  0.3497 -1.3270  0.6940
25466SOL    HW276977   5.845   3.611   7.579  0.2889 -0.3419  0.7204
25467SOL     OW76978   1.223   0.559   5.481  0.3432 -0.5650  0.8866
25467SOL    HW176979   1.269   0.483   5.446  0.1613 -0.7069  0.9551
25467SOL    HW276980   1.278   0.634   5.456 -0.5697 -0.4919 -1.0747
25468SOL     OW76981   0.621   6.682   2.178  0.0454  0.3480  0.4580
25468SOL    HW176982   0.646   6.770   2.148 -0.5868  1.1603  2.1850
25468SOL    HW276983   0.673   6.669   2.258  0.7674 -1.2317 -0.2219
25469SOL     OW76984   1.469   6.647   7.308 -0.0108  0.1251 -0.4402
25469SOL    HW176985   1.554   6.691   7.305  1.1648 -2.0059 -2.6802
25469SOL    HW276986   1.487   6.564   7.351 -0.8594 -0.4527 -1.1582
25470SOL     OW76987   7.412   8.275   7.382  0.3884 -0.1552 -0.2123
25470SOL    HW176988   7.353   8.241   7.449 -1.7556 -0.8008 -2.2985
25470SOL    HW276989   7.407   8.370   7.391 -0.9868 -0.1969 -0.3038
25471SOL     OW76990   4.067   2.248   3.619 -0.2220  0.3569  0.9707
25471SOL    HW176991   4.127   2.198   3.563 -0.3569 -0.0116  1.1558
25471SOL    HW276992   4.125   2.298   3.676 -0.0444 -1.6655  2.6716
25472SOL     OW76993   0.196   5.347   3.865  0.1709  0.1387 -0.2290
25472SOL    HW176994   0.178   5.365   3.957 -0.9972 -0.6672 -0.2810
25472SOL    HW276995   0.186   5.432   3.822  0.6850  0.5137  0.3619
25473SOL     OW76996   7.666   2.340   5.671  0.1187  0.5389 -0.4337
25473SOL    HW176997   7.607   2.362   5.599 -1.4509 -2.6922 -0.3518
25473SOL    HW276998   7.702   2.254   5.646 -0.7969 -0.9118  2.7058
25474SOL     OW76999   0.065   1.753   1.259 -0.1666  0.8737 -0.5382
25474SOL    HW177000  -0.015   1.703   1.273 -1.6588  2.3037 -3.2039
25474SOL    HW277001   0.133   1.687   1.246 -1.3610 -0.4003 -0.4537
25475SOL     OW77002   5.441   6.916   3.420 -0.8014 -0.2672  0.2707
25475SOL    HW177003   5.494   6.894   3.496 -1.1902 -0.5141  0.4749
25475SOL    HW277004   5.490   6.986   3.376 -1.0185  0.5316  1.2524
25476SOL     OW77005   3.570   0.037   6.325  0.7832  0.1808  0.3941
25476SOL    HW177006   3.492   0.041   6.269  0.8649  0.9016  0.3219
25476SOL    HW277007   3.603  -0.052   6.312  1.5023  0.6829 -1.6876
25477SOL     OW77008   5.469   6.919   4.325 -0.2591  0.2751 -0.3361
25477SOL    HW177009   5.387   6.968   4.329 -1.2423 -1.3087 -0.2374
25477SOL    HW277010   5.509   6.947   4.242 -1.1711  0.6581 -0.6642
25478SOL     OW77011   8.335   1.180   9.361 -0.3644 -0.3612 -0.2049
25478SOL    HW177012   8.391   1.105   9.379 -2.0568 -1.5519  0.2609
25478SOL    HW277013   8.292   1.159   9.278 -1.0944 -0.0635  0.0914
25479SOL     OW77014   1.655   6.066   1.566  0.7755 -0.3939  0.7845
25479SOL    HW177015   1.709   6.025   1.499 -0.1884 -2.0468  0.9591
25479SOL    HW277016   1.566   6.034   1.548 -0.9120  4.4658 -1.3464
25480SOL     OW77017   2.685   8.527   7.325 -0.0206  0.3906  0.9097
25480SOL    HW177018   2.642   8.467   7.385 -2.3079  0.4965 -0.5131
25480SOL    HW277019   2.693   8.478   7.243 -0.0954  1.3538  0.3118
25481SOL     OW77020   2.982   6.703   9.149  0.7669 -0.0976  0.3294
25481SOL    HW177021   2.928   6.655   9.087  0.8008  1.0643 -0.6207
25481SOL    HW277022   3.010   6.636   9.212 -1.3110 -0.8295  0.5595
25482SOL     OW77023   4.856   1.948   0.289  0.2634  0.2249  0.2262
25482SOL    HW177024   4.801   1.922   0.215 -2.3632 -1.0823  2.4365
25482SOL    HW277025   4.903   1.868   0.313 -2.4398 -0.8192  2.6620
25483SOL     OW77026   1.861   0.579   8.240  0.2058  0.2626 -0.6681
25483SOL    HW177027   1.866   0.666   8.280  0.9622  0.7705 -1.8098
25483SOL    HW277028   1.846   0.519   8.314 -0.6103  1.3782  0.1000
25484SOL     OW77029   5.660   4.332   8.650 -0.5547  0.3886  0.0791
25484SOL    HW177030   5.725   4.394   8.617 -1.7381  1.1469 -0.8920
25484SOL    HW277031   5.657   4.348   8.744  2.0335 -0.9984  0.4784
25485SOL     OW77032   1.222   9.837   3.751 -0.7801 -0.0698 -0.7047
25485SOL    HW177033   1.285   9.903   3.720 -1.9891  0.2844 -2.6392
25485SOL    HW277034   1.241   9.759   3.698  0.0748 -1.0338  0.9610
25486SOL     OW77035   7.169   0.588   8.717 -0.4211  0.5342 -0.4417
25486SOL    HW177036   7.236   0.638   8.671 -1.0523  2.5565  0.7236
25486SOL    HW277037   7.189   0.598   8.810 -2.8559  2.1116  0.0193
25487SOL     OW77038   2.730   0.060   0.839 -0.0642  0.7457  0.2423
25487SOL    HW177039   2.757  -0.017   0.789  0.6912  1.5056 -0.5643
25487SOL    HW277040   2.812   0.103   0.862 -0.5068  2.0724 -0.5663
25488SOL     OW77041   6.781   8.575   5.954 -0.4397  0.2578 -0.0600
25488SOL    HW177042   6.721   8.501   5.944 -0.8349  0.5169  0.4132
25488SOL    HW277043   6.866   8.534   5.973 -0.6074 -0.0771 -0.0215
25489SOL     OW77044   9.161   7.987   1.327  0.1984  0.4533 -0.0224
25489SOL    HW177045   9.107   8.065   1.314 -1.5110 -0.0168  3.2230
25489SOL    HW277046   9.228   8.014   1.390  1.3452 -0.0312 -0.9910
25490SOL     OW77047   1.153   4.865   1.479  0.3821  0.2513  0.6372
25490SOL    HW177048   1.140   4.852   1.573 -0.7564 -1.2239  0.3111
25490SOL    HW277049   1.248   4.863   1.467  0.5016 -2.7482  1.3939
25491SOL     OW77050   2.738   3.368   6.506  0.2791 -0.3506 -0.8121
25491SOL    HW177051   2.720   3.445   6.451 -5.0876 -1.8929 -1.8119
25491SOL    HW277052   2.735   3.295   6.445  0.1717 -1.7026  0.7555
25492SOL     OW77053   2.321   4.743   8.071 -0.1419  0.3382  0.2283
25492SOL    HW177054   2.340   4.794   8.150 -1.2799 -2.1354  2.2449
25492SOL    HW277055   2.407   4.717   8.038  0.3499  1.2016  0.7851
25493SOL     OW77056   9.072   1.595   2.419 -0.4950  0.0426 -0.6088
25493SOL    HW177057   9.038   1.636   2.499  3.5884 -0.0987  1.4615
25493SOL    HW277058   9.062   1.501   2.436  1.7365 -0.0458  0.5705
25494SOL     OW77059   0.181   9.030   0.591 -0.2279  0.4087 -0.6115
25494SOL    HW177060   0.088   9.052   0.592 -0.7659 -1.6992 -0.0322
25494SOL    HW277061   0.208   9.035   0.683 -0.1969 -0.5978 -0.5587
25495SOL     OW77062   3.041   7.714   7.155 -0.3419 -0.6973 -0.1564
25495SOL    HW177063   3.121   7.662   7.150 -0.3872 -0.7904  0.0767
25495SOL    HW277064   2.979   7.659   7.203 -0.4512 -0.5088 -0.0797
25496SOL     OW77065   6.939   1.227   8.747 -0.0756  0.2405  0.4066
25496SOL    HW177066   6.988   1.258   8.671 -1.2020 -1.4026 -1.0694
25496SOL    HW277067   6.919   1.307   8.797  1.8490  1.2032 -0.2652
25497SOL     OW77068   9.674   6.741   2.767  0.7948 -0.3641  0.0323
25497SOL    HW177069   9.716   6.670   2.816  0.4904  0.0619  0.9429
25497SOL    HW277070   9.580   6.723   2.773  0.6730  0.4382  0.8259
25498SOL     OW77071   2.732   3.599   8.172 -0.0465 -0.4218  0.0390
25498SOL    HW177072   2.651   3.548   8.176 -0.2413 -0.0544  2.2202
25498SOL    HW277073   2.781   3.572   8.250  0.5680  1.5258  0.3799
25499SOL     OW77074   7.816   9.514   8.020 -0.2951 -0.3393  0.6202
25499SOL    HW177075   7.739   9.460   8.004 -1.8817  1.9384  0.1431
25499SOL    HW277076   7.886   9.471   7.971 -1.8589 -1.0598 -1.0912
25500SOL     OW77077   9.573   3.575   6.864  0.3317 -0.4393  0.2350
25500SOL    HW177078   9.641   3.511   6.840  0.5366 -0.5728  1.1341
25500SOL    HW277079   9.491   3.526   6.861  0.1027 -0.0005 -1.9748
25501SOL     OW77080   8.667   3.739   9.287 -0.1019  0.7771 -0.4551
25501SOL    HW177081   8.614   3.659   9.283  0.1456  0.5512  0.5953
25501SOL    HW277082   8.713   3.734   9.371  0.3486  1.7559 -0.6256
25502SOL     OW77083   6.029   2.811   4.644  0.1491  0.4379  0.0476
25502SOL    HW177084   6.003   2.902   4.631 -0.5291  0.1537 -0.6972
25502SOL    HW277085   5.951   2.768   4.679 -0.3843 -0.3778 -1.9976
25503SOL     OW77086   1.289   0.785   6.185 -0.6595 -0.3394 -0.4339
25503SOL    HW177087   1.292   0.698   6.144 -0.5853  0.2112 -1.6272
25503SOL    HW277088   1.280   0.846   6.112  0.6598  0.7611  0.2873
25504SOL     OW77089   2.901   6.348   1.735  0.0913  0.0109  0.3906
25504SOL    HW177090   2.872   6.398   1.812  1.7993  2.2269 -0.3094
25504SOL    HW277091   2.823   6.299   1.708 -1.9214  2.6900  0.8855
25505SOL     OW77092   8.625   9.752   6.169  0.1740 -0.5100 -0.3405
25505SOL    HW177093   8.652   9.734   6.259  0.6286 -2.6044 -0.8507
25505SOL    HW277094   8.581   9.672   6.140 -2.2402  1.0027 -1.1928
25506SOL     OW77095   4.023   6.329   8.061 -0.3731 -0.0911 -0.3493
25506SOL    HW177096   4.030   6.248   8.011 -1.6890 -0.6434  0.3062
25506SOL    HW277097   3.970   6.387   8.006  0.3660  0.2587 -0.7121
25507SOL     OW77098   6.124   8.299   8.328  0.1437  0.2775  0.5236
25507SOL    HW177099   6.199   8.241   8.314 -0.4169 -0.7492  1.6034
25507SOL    HW277100   6.062   8.275   8.260  0.5163  0.6845  0.0272
25508SOL     OW77101   5.926   7.067   5.787  0.9358 -0.3027  0.2156
25508SOL    HW177102   5.923   6.990   5.731 -1.0155  0.2327 -0.5370
25508SOL    HW277103   5.885   7.136   5.734  2.6189  1.2768  0.8507
25509SOL     OW77104   3.411   3.580   4.039 -0.0213  0.3353  0.0627
25509SOL    HW177105   3.324   3.617   4.032  0.6150  1.7313 -0.8765
25509SOL    HW277106   3.407   3.523   4.116 -1.7041  0.4651  0.1018
25510SOL     OW77107   3.062   7.248   8.545 -0.0635  0.0555  0.1482
25510SOL    HW177108   3.049   7.343   8.546 -1.7012 -0.1366 -0.1097
25510SOL    HW277109   3.000   7.215   8.609 -1.4196 -1.0186 -1.6244
25511SOL     OW77110   4.265   2.865   5.727 -0.2135  0.7457  0.5089
25511SOL    HW177111   4.334   2.929   5.744 -0.4094  0.7777  1.2182
25511SOL    HW277112   4.276   2.841   5.635  1.6337 -0.3123  0.9582
25512SOL     OW77113   2.790   9.792   3.709 -0.3883 -0.2647 -0.4036
25512SOL    HW177114   2.745   9.842   3.641 -0.0726  1.4469  0.5604
25512SOL    HW277115   2.746   9.819   3.790 -0.2431 -1.6497  0.1532
25513SOL     OW77116   6.783   1.083   1.210  0.2556 -0.2857 -0.0363
25513SOL    HW177117   6.796   1.162   1.159 -1.6362 -1.3258 -2.3388
25513SOL    HW277118   6.753   1.114   1.295  1.4078  1.4828 -0.2357
25514SOL     OW77119   8.263   7.942   0.778 -0.5283  0.3230 -0.6211
25514SOL    HW177120   8.189   7.925   0.836  0.2176  0.5521  0.4314
25514SOL    HW277121   8.272   7.862   0.725  0.7740 -1.2742  1.8364
25515SOL     OW77122   0.902   9.830   5.547 -0.4506 -0.3002  0.0598
25515SOL    HW177123   0.858   9.753   5.584 -0.5999 -0.4538 -0.4376
25515SOL    HW277124   0.969   9.853   5.612 -0.1526 -1.0778  0.0330
25516SOL     OW77125   4.119   7.967   0.155 -0.1978  0.1575 -0.5047
25516SOL    HW177126   4.038   7.936   0.196 -0.7440  0.7281 -1.1306
25516SOL    HW277127   4.172   7.999   0.228 -1.2463  1.3746 -0.2377
25517SOL     OW77128   8.371   7.925   8.141  0.0113  0.1383 -0.1056
25517SOL    HW177129   8.411   7.975   8.213 -0.3655 -0.6646  0.6885
25517SOL    HW277130   8.283   7.963   8.133  0.0067  0.1410 -0.0469
25518SOL     OW77131   2.568   4.399   0.027 -0.3255 -0.3732  0.0550
25518SOL    HW177132   2.551   4.321   0.080  1.0418  0.9881  2.6726
25518SOL    HW277133   2.483   4.444   0.024 -0.7010 -1.0694  0.0670
25519SOL     OW77134   9.616   1.635   4.426  0.2073 -0.2622  0.0404
25519SOL    HW177135   9.585   1.709   4.478  1.4264 -0.2196  0.7396
25519SOL    HW277136   9.574   1.646   4.340  0.4585  1.3115  0.0978
25520SOL     OW77137   2.474   6.928   0.123 -0.0334 -0.3712  0.1901
25520SOL    HW177138   2.454   7.013   0.163  1.8092  0.2645 -0.1365
25520SOL    HW277139   2.422   6.927   0.043  0.7491  0.9868 -0.3842
25521SOL     OW77140   0.525   2.761   9.211 -0.4338  0.2031 -0.2139
25521SOL    HW177141   0.556   2.761   9.120 -2.9107  0.8754 -1.1470
25521SOL    HW277142   0.435   2.729   9.205  0.1845 -2.3956  2.4054
25522SOL     OW77143   7.438   0.855   9.152 -0.1379 -0.2487  0.1684
25522SOL    HW177144   7.387   0.902   9.218  0.4143 -0.3234  0.6498
25522SOL    HW277145   7.433   0.763   9.177 -0.8509 -0.4210 -0.5297
25523SOL     OW77146   8.251   8.641   0.148  0.1883 -0.0003 -0.5819
25523SOL    HW177147   8.219   8.668   0.235 -1.0907  1.5751 -1.4780
25523SOL    HW277148   8.242   8.546   0.147 -1.4538  0.1053  0.4070
25524SOL     OW77149   7.689   3.684   2.727  0.0173 -0.0082  0.1961
25524SOL    HW177150   7.718   3.739   2.800  1.1716  0.0617 -0.2868
25524SOL    HW277151   7.600   3.712   2.710 -0.1724  0.1814  1.3825
25525SOL     OW77152   4.724   2.139   4.146 -0.2137 -0.3453 -0.0236
25525SOL    HW177153   4.701   2.079   4.216  0.8696  1.2381  1.7894
25525SOL    HW277154   4.818   2.151   4.155 -0.7096  4.0787  1.9309
25526SOL     OW77155   5.901   6.087   6.832 -0.1408 -0.4016  0.1569
25526SOL    HW177156   5.961   6.090   6.758 -1.0999 -1.0455 -0.6622
25526SOL    HW277157   5.958   6.089   6.909  0.8449  1.2409 -0.5543
25527SOL     OW77158   0.832   2.103   9.130 -0.1345 -0.4496  0.2507
25527SOL    HW177159   0.863   2.192   9.112  0.9360 -1.0449 -1.0269
25527SOL    HW277160   0.748   2.097   9.085 -0.5295  0.1073  0.8937
25528SOL     OW77161   1.187   4.592   2.091 -0.3417  0.0736  0.4484
25528SOL    HW177162   1.139   4.579   2.173 -1.1538  0.8878  0.1223
25528SOL    HW277163   1.164   4.515   2.038 -0.3328 -0.1325  0.7396
25529SOL     OW77164   2.018   4.216   9.257 -0.2892 -0.2329 -0.4242
25529SOL    HW177165   1.956   4.204   9.185  0.0415  0.4000 -0.8274
25529SOL    HW277166   2.065   4.297   9.235  0.0613 -0.2215  0.3251
25530SOL     OW77167   8.188   1.456   8.138  0.2585  0.3360 -0.1209
25530SOL    HW177168   8.227   1.542   8.154  0.5741  0.2547 -0.4334
25530SOL    HW277169   8.167   1.457   8.044 -0.7003  0.4627  0.0809
25531SOL     OW77170   9.519   1.784   7.746 -0.3441 -0.8087 -0.8577
25531SOL    HW177171   9.586   1.800   7.812  0.1750 -1.0192 -1.3287
25531SOL    HW277172   9.453   1.731   7.790 -0.9054  0.5532  0.0235
25532SOL     OW77173   1.521   5.047   8.808 -0.0555  0.4257  0.2550
25532SOL    HW177174   1.448   4.986   8.818 -0.2754  0.6446  0.0115
25532SOL    HW277175   1.496   5.123   8.861 -0.9514  1.3451 -1.3979
25533SOL     OW77176   6.984   9.879   2.037  0.0321  0.9507 -0.0940
25533SOL    HW177177   7.047   9.908   1.971  1.1075 -1.0973 -0.0493
25533SOL    HW277178   6.970   9.956   2.092  0.0612  2.3424 -1.9392
25534SOL     OW77179   3.774   3.093   2.277  0.7527  0.6013  0.1721
25534SOL    HW177180   3.866   3.083   2.300  1.4651  0.6500 -2.3334
25534SOL    HW277181   3.741   3.159   2.338  2.0455 -0.2323  1.8537
25535SOL     OW77182   3.046   5.729   6.631  0.5810 -0.2270 -0.4887
25535SOL    HW177183   3.126   5.684   6.658  2.3843  2.5578 -0.6763
25535SOL    HW277184   3.021   5.781   6.708 -0.3788 -0.1600 -0.8273
25536SOL     OW77185   5.921   9.657   7.206 -0.0929  0.2801 -0.7401
25536SOL    HW177186   5.890   9.741   7.239 -2.5819 -0.2183 -1.5668
25536SOL    HW277187   5.943   9.606   7.284 -0.2070  1.1152 -0.1572
25537SOL     OW77188   1.357   6.661   6.501  0.1516  0.2897  0.4443
25537SOL    HW177189   1.268   6.672   6.467 -0.4276  1.7106  2.2701
25537SOL    HW277190   1.370   6.566   6.504 -1.5402  0.0350  0.7028
25538SOL     OW77191   1.641   2.290   8.535  0.2201 -0.1036  0.1161
25538SOL    HW177192   1.646   2.337   8.452  2.5463 -1.5772 -0.6738
25538SOL    HW277193   1.681   2.349   8.599 -1.4744  0.9879  0.2130
25539SOL     OW77194   8.037   4.603   5.811 -0.1304  0.0085  0.6491
25539SOL    HW177195   7.943   4.592   5.826  0.0038 -0.9347  0.8782
25539SOL    HW277196   8.053   4.697   5.824 -0.8076 -0.0387  1.9593
25540SOL     OW77197   0.207   3.805   6.861  0.2895  0.2329 -0.2428
25540SOL    HW177198   0.128   3.858   6.854  0.1187 -0.1482 -1.5018
25540SOL    HW277199   0.181   3.718   6.830  1.2349  0.1599 -0.8839
25541SOL     OW77200   7.068   7.948   3.053 -0.3256  0.3664  0.3131
25541SOL    HW177201   6.976   7.936   3.029  0.3096  0.6380 -2.7630
25541SOL    HW277202   7.104   7.859   3.057 -0.7320  0.2468  1.7725
25542SOL     OW77203   3.812   9.456   2.658  0.1955  0.6040 -0.2201
25542SOL    HW177204   3.756   9.399   2.711  0.7963  0.0847 -0.1374
25542SOL    HW277205   3.817   9.537   2.708  1.1122 -0.0319  0.7532
25543SOL     OW77206   6.527   7.946   2.665 -0.1552 -0.3996 -0.3005
25543SOL    HW177207   6.445   7.992   2.681  0.4309  0.0321  1.7710
25543SOL    HW277208   6.506   7.883   2.597 -2.1080 -0.0412 -0.0910
25544SOL     OW77209   8.608   2.597   4.860 -0.3116  0.3446 -0.0042
25544SOL    HW177210   8.659   2.613   4.939  0.2363  1.0592 -0.4962
25544SOL    HW277211   8.618   2.676   4.808 -0.1961 -0.3397 -1.0506
25545SOL     OW77212   9.488   3.885   0.889  0.6544 -0.0516  0.4850
25545SOL    HW177213   9.510   3.910   0.978  1.7379 -0.1696  0.2603
25545SOL    HW277214   9.538   3.945   0.833 -0.7673  0.6834 -0.0715
25546SOL     OW77215   8.385   2.168   0.405 -0.7981  0.4319 -0.6009
25546SOL    HW177216   8.329   2.101   0.366  0.3017 -1.1481  0.4096
25546SOL    HW277217   8.352   2.177   0.494  0.1674 -0.0906 -0.1811
25547SOL     OW77218   6.621   0.345   9.789 -0.3003 -0.7084 -0.0921
25547SOL    HW177219   6.588   0.428   9.753 -1.3636 -0.7776  0.6588
25547SOL    HW277220   6.713   0.344   9.765 -0.3041  0.6072 -0.2875
25548SOL     OW77221   9.703   7.314   1.604  0.1087 -0.6639  0.1240
25548SOL    HW177222   9.777   7.371   1.625  0.0725 -0.2960 -0.6902
25548SOL    HW277223   9.736   7.226   1.618  1.1144 -0.5617 -1.4136
25549SOL     OW77224   0.392   6.895   5.640 -0.0259  0.2255  0.2316
25549SOL    HW177225   0.360   6.884   5.550 -0.4510  0.8440  0.2988
25549SOL    HW277226   0.472   6.842   5.644 -1.2359 -1.7164  0.1694
25550SOL     OW77227   2.771   6.086   1.762  0.3244  0.4408 -0.0187
25550SOL    HW177228   2.704   6.134   1.810  1.0598  2.3573 -0.8005
25550SOL    HW277229   2.844   6.078   1.824 -0.3448 -1.0648  0.6132
25551SOL     OW77230   1.908   5.821   1.749 -0.2270  0.0704 -0.0371
25551SOL    HW177231   1.965   5.810   1.825  0.6915  0.6678 -0.6144
25551SOL    HW277232   1.874   5.733   1.732  0.2595 -0.2385  0.5290
25552SOL     OW77233   3.778   8.862   6.537 -0.5129  0.2734  0.7510
25552SOL    HW177234   3.706   8.842   6.477  1.8593 -2.6799 -1.4240
25552SOL    HW277235   3.824   8.935   6.496 -0.9926  0.7203  0.9950
25553SOL     OW77236   5.360   9.455   0.603  0.3604  0.3621 -0.4323
25553SOL    HW177237   5.375   9.497   0.518  0.3266  0.8189 -0.2177
25553SOL    HW277238   5.266   9.464   0.618  0.6632  2.2353  0.6349
25554SOL     OW77239   2.974   5.949   1.080  0.4145 -0.3870  0.4340
25554SOL    HW177240   3.023   6.000   1.015 -0.9205 -0.5809 -0.7417
25554SOL    HW277241   2.889   5.933   1.040 -0.0999 -1.3514  1.8447
25555SOL     OW77242   1.749   1.519   8.419 -0.3122 -0.2511  0.0437
25555SOL    HW177243   1.716   1.586   8.479  0.0322 -1.1270  1.2388
25555SOL    HW277244   1.841   1.543   8.404 -0.6443  0.5045 -0.9283
25556SOL     OW77245   0.170   4.021   3.276 -0.3224  0.4329 -0.5676
25556SOL    HW177246   0.252   4.071   3.278 -0.2716  0.4436 -2.0407
25556SOL    HW277247   0.198   3.930   3.288  0.3242  0.0446 -4.0139
25557SOL     OW77248   4.039   9.406   1.812  0.3929 -0.4534 -0.2472
25557SOL    HW177249   4.065   9.498   1.815  1.5592 -0.7845  1.1680
25557SOL    HW277250   4.106   9.363   1.760  0.5410 -0.6890  0.1292
25558SOL     OW77251   1.359   4.470   5.795  0.4488  0.0888  0.7453
25558SOL    HW177252   1.315   4.526   5.860  1.2167  1.2805  0.2717
25558SOL    HW277253   1.354   4.520   5.713 -0.6519 -1.4588 -0.2025
25559SOL     OW77254   1.113   9.134   0.917 -0.0506 -0.7279 -0.0058
25559SOL    HW177255   1.194   9.182   0.935 -1.1503  1.1047  0.3464
25559SOL    HW277256   1.052   9.201   0.885 -1.6931 -1.8823  0.5599
25560SOL     OW77257   9.269   1.027   3.265 -0.2022  0.1389  0.2287
25560SOL    HW177258   9.177   1.023   3.238 -0.4286 -1.1054  1.0930
25560SOL    HW277259   9.318   1.017   3.183 -0.8383 -0.3829 -0.0970
25561SOL     OW77260   5.497   2.302   0.265 -0.1293  0.0726 -0.1238
25561SOL    HW177261   5.447   2.222   0.251 -2.5748  1.5211 -0.1676
25561SOL    HW277262   5.445   2.352   0.329  1.2370  1.7088 -0.2235
25562SOL     OW77263   5.492   0.970   5.670 -0.4343  0.2421  0.2047
25562SOL    HW177264   5.474   0.876   5.680 -1.0950  0.1219 -1.5890
25562SOL    HW277265   5.534   0.976   5.584 -0.6401  1.6143  0.1897
25563SOL     OW77266   5.624   1.343   8.526 -0.0992 -0.5271 -0.0780
25563SOL    HW177267   5.554   1.292   8.568 -0.6038  1.3876  1.5898
25563SOL    HW277268   5.689   1.278   8.501 -1.5954 -2.1804  0.1069
25564SOL     OW77269   9.755   8.033   2.190  0.0970 -0.2316 -0.4782
25564SOL    HW177270   9.669   8.020   2.149  0.5179 -2.3245 -0.7899
25564SOL    HW277271   9.736   8.087   2.267 -1.3624  0.0653 -1.0030
25565SOL     OW77272   8.371   6.608   3.125 -0.0329 -0.0876 -0.1668
25565SOL    HW177273   8.421   6.584   3.203 -1.0407  1.4926  1.0224
25565SOL    HW277274   8.280   6.597   3.150 -0.3889  0.8076 -0.9940
25566SOL     OW77275   4.781   0.256   2.605  0.4699 -0.0153 -0.0614
25566SOL    HW177276   4.782   0.324   2.673 -0.4550 -0.5353  0.4833
25566SOL    HW277277   4.874   0.242   2.585  0.7347  3.5618 -2.4090
25567SOL     OW77278   5.688   8.068   5.011 -0.7570 -0.4656  0.1027
25567SOL    HW177279   5.748   8.111   4.950 -1.8035  0.9618  0.0061
25567SOL    HW277280   5.642   8.004   4.957  0.2223 -1.1273  0.0382
25568SOL     OW77281   1.663   4.293   6.908 -0.0736 -0.1036 -0.2449
25568SOL    HW177282   1.679   4.220   6.967  0.1247  0.6712  0.6825
25568SOL    HW277283   1.724   4.361   6.936 -1.2094  0.9348 -0.1696
25569SOL     OW77284   8.374   8.817   4.937  0.1213  0.1047  0.9072
25569SOL    HW177285   8.313   8.770   4.880 -0.7407  2.0363  0.1855
25569SOL    HW277286   8.457   8.771   4.924 -0.3608 -0.3503 -0.8747
25570SOL     OW77287   3.796   2.772   1.919 -0.1120 -0.1687  0.1497
25570SOL    HW177288   3.713   2.726   1.924 -0.2285  0.0364  0.1095
25570SOL    HW277289   3.795   2.830   1.995 -0.8744  1.2829 -0.9136
25571SOL     OW77290   7.483   9.259   4.379 -0.9983  0.4100 -0.2969
25571SOL    HW177291   7.489   9.167   4.404 -1.9418  1.2222  3.5761
25571SOL    HW277292   7.558   9.301   4.422 -0.3266  1.5045 -2.3411
25572SOL     OW77293   3.133   1.073   6.774 -0.3828 -0.0573 -0.6411
25572SOL    HW177294   3.215   1.040   6.738 -0.3216 -2.0747  1.1013
25572SOL    HW277295   3.066   1.044   6.712 -0.0417 -1.1300 -0.5332
25573SOL     OW77296   8.449   3.537   2.181  0.1813  0.2858  0.1318
25573SOL    HW177297   8.499   3.461   2.151  0.0074 -0.4918  1.6773
25573SOL    HW277298   8.362   3.502   2.202 -0.5158  1.3057 -0.9408
25574SOL     OW77299   4.658   2.441   4.119 -0.0111  0.2310 -0.7916
25574SOL    HW177300   4.732   2.466   4.175  0.5182 -0.0525 -1.3485
25574SOL    HW277301   4.658   2.506   4.049 -0.2647  0.2045 -0.8164
25575SOL     OW77302   5.729   8.277   8.523  0.3690  0.0387  0.3777
25575SOL    HW177303   5.641   8.242   8.509  0.5263 -1.4134  2.4983
25575SOL    HW277304   5.714   8.366   8.555 -0.3096 -0.0100  0.2178
25576SOL     OW77305   3.771   3.655   6.280  0.3391  0.2394  0.4997
25576SOL    HW177306   3.791   3.625   6.369  0.8360  1.4378  0.8057
25576SOL    HW277307   3.676   3.642   6.272  0.4459 -0.8933  0.7934
25577SOL     OW77308   3.380   6.173   2.314  0.4930  0.4411  0.0751
25577SOL    HW177309   3.456   6.129   2.350  0.2317 -0.7586 -0.7823
25577SOL    HW277310   3.374   6.142   2.223 -0.5504  1.1196 -0.1149
25578SOL     OW77311   7.922   8.138   9.310  0.5253 -0.7522  0.0885
25578SOL    HW177312   7.930   8.191   9.390  1.2500  0.8960 -1.0116
25578SOL    HW277313   7.833   8.103   9.313  0.6441 -0.9866  1.7604
25579SOL     OW77314   5.923   9.113   6.548  0.4091  0.5380  0.1358
25579SOL    HW177315   5.843   9.165   6.543  1.6229  2.4277 -1.4150
25579SOL    HW277316   5.974   9.154   6.617  0.1557 -0.5537  1.0020
25580SOL     OW77317   7.692   9.417   6.989  0.3222 -0.4310  0.1387
25580SOL    HW177318   7.778   9.435   6.950  0.6731 -0.2195  0.9842
25580SOL    HW277319   7.709   9.416   7.083 -0.6989  0.0692  0.3289
25581SOL     OW77320   9.849   7.290   3.857 -0.2716 -0.1214 -0.1693
25581SOL    HW177321   9.850   7.303   3.952 -0.0112  0.5719 -0.2556
25581SOL    HW277322   9.767   7.330   3.828  0.1702  0.6830 -0.3532
25582SOL     OW77323   5.446   6.470   1.097 -0.2011 -0.2172 -0.1782
25582SOL    HW177324   5.428   6.559   1.066  1.1391 -0.5255 -2.0125
25582SOL    HW277325   5.399   6.413   1.036  1.8847 -0.8333 -1.2965
25583SOL     OW77326   9.845   8.084   0.398 -0.2037  0.5963 -0.5373
25583SOL    HW177327   9.921   8.107   0.452  0.9098 -1.5561 -1.0612
25583SOL    HW277328   9.789   8.034   0.457  0.6108 -1.0275 -1.0902
25584SOL     OW77329   2.061   9.937   7.943 -0.0970  0.4476 -0.1728
25584SOL    HW177330   2.020   9.912   8.026  0.4502 -1.3940 -0.4175
25584SOL    HW277331   1.986   9.951   7.884 -0.4654 -1.2147 -0.1559
25585SOL     OW77332   7.219   0.730   4.599 -0.2221 -0.3951 -0.6952
25585SOL    HW177333   7.212   0.663   4.668  2.0993 -1.4735 -1.4086
25585SOL    HW277334   7.184   0.809   4.639  0.1991 -1.2046  1.4116
25586SOL     OW77335   9.367   7.112   5.525 -0.1489  0.2128 -0.1051
25586SOL    HW177336   9.373   7.161   5.608  2.2344 -0.4569  0.2063
25586SOL    HW277337   9.405   7.171   5.460 -0.6405  0.1619 -0.4400
25587SOL     OW77338   8.101   2.075   5.703  0.2846  0.2275 -0.5837
25587SOL    HW177339   8.139   2.080   5.790  0.4988  1.7789 -0.7468
25587SOL    HW277340   8.175   2.056   5.645  0.4928  1.2125 -0.6549
25588SOL     OW77341   7.549   4.398   9.122  0.2278 -0.0237  0.0266
25588SOL    HW177342   7.509   4.318   9.157 -0.4873  1.0294  1.7572
25588SOL    HW277343   7.488   4.428   9.056 -0.1892 -0.1891  0.3289
25589SOL     OW77344   9.637   9.134   4.842  0.0286  0.7058  0.1868
25589SOL    HW177345   9.599   9.080   4.911  1.4837 -0.1676  0.3417
25589SOL    HW277346   9.581   9.119   4.766 -1.3499  1.3662  1.0404
25590SOL     OW77347   2.421   4.145   5.035 -0.3483 -0.3627  0.0696
25590SOL    HW177348   2.506   4.104   5.053 -0.1868  0.0239  0.2074
25590SOL    HW277349   2.403   4.124   4.944  0.6435  0.8503 -0.4367
25591SOL     OW77350   0.101   2.214   2.118  0.2303  0.1177 -0.2139
25591SOL    HW177351   0.196   2.216   2.108  0.0253  1.6276 -2.7231
25591SOL    HW277352   0.071   2.162   2.043 -0.9496  0.6189 -0.1017
25592SOL     OW77353   9.619   1.233   1.499 -0.3090 -0.5752 -0.9453
25592SOL    HW177354   9.650   1.323   1.512 -1.5039  0.1335 -2.6724
25592SOL    HW277355   9.698   1.183   1.478  0.3814  0.0253  0.1506
25593SOL     OW77356   4.176   6.721   0.990  0.4070  0.7375  0.4166
25593SOL    HW177357   4.213   6.758   1.070  0.9363 -0.3579  0.6972
25593SOL    HW277358   4.081   6.721   1.005  0.5641 -0.6585  1.6047
25594SOL     OW77359   6.458  -0.018   4.885 -0.3844  0.3068 -0.1355
25594SOL    HW177360   6.439   0.054   4.945  2.7242 -0.6281  2.2326
25594SOL    HW277361   6.533   0.013   4.835 -1.2328 -0.0034 -1.6468
25595SOL     OW77362   9.782   9.355   0.715  0.1867  0.4039 -0.6881
25595SOL    HW177363   9.775   9.404   0.632 -2.1932  0.8330 -0.3066
25595SOL    HW277364   9.696   9.314   0.725  0.5017  0.1888  1.4735
25596SOL     OW77365   3.857   9.489   8.917 -0.3279 -0.0160 -0.2682
25596SOL    HW177366   3.847   9.546   8.840 -0.7038  0.2502 -0.0282
25596SOL    HW277367   3.945   9.452   8.909  0.5819  1.8878  0.4426
25597SOL     OW77368   0.003   0.587   0.996  0.5358 -0.8726  0.2723
25597SOL    HW177369   0.086   0.540   1.004  1.2818  0.3653  0.1504
25597SOL    HW277370   0.018   0.650   0.925 -0.2972 -0.1959  0.6752
25598SOL     OW77371   3.954   3.585   7.613  0.3354  0.2881  0.2283
25598SOL    HW177372   4.009   3.657   7.642  0.2347  0.0877  0.9217
25598SOL    HW277373   3.869   3.624   7.594  0.4275  0.4306  0.1072
25599SOL     OW77374   9.251   4.408   3.048 -0.1176 -0.5140 -0.4647
25599SOL    HW177375   9.300   4.326   3.047 -0.5280 -0.7671 -0.1556
25599SOL    HW277376   9.248   4.434   3.140 -0.9273 -0.7325 -0.4157
25600SOL     OW77377   2.118   6.100   0.522 -0.5017  0.2294 -0.2286
25600SOL    HW177378   2.156   6.187   0.532 -1.5340  0.5535  1.3985
25600SOL    HW277379   2.099   6.092   0.429  0.0197  1.5652 -0.4700
25601SOL     OW77380   3.862   1.800   9.139 -0.6114  0.1107  0.3058
25601SOL    HW177381   3.772   1.789   9.110 -1.2770  1.4915  1.7264
25601SOL    HW277382   3.883   1.717   9.183 -0.3822 -1.0686 -1.8540
25602SOL     OW77383   7.588   4.099   8.125  0.0645  0.5524  0.2301
25602SOL    HW177384   7.550   4.013   8.109  0.1565  0.7116 -0.9548
25602SOL    HW277385   7.630   4.092   8.211 -0.4150 -0.4003  0.3946
25603SOL     OW77386   7.660   6.824   2.646 -0.2732  0.0326 -0.1154
25603SOL    HW177387   7.708   6.906   2.638  0.3627 -0.3416 -0.2254
25603SOL    HW277388   7.625   6.826   2.735  0.4313  0.0663  0.1727
25604SOL     OW77389   1.049   4.791   8.729  0.3527 -0.1083 -0.6184
25604SOL    HW177390   1.140   4.818   8.736  0.4049 -0.4336  0.1161
25604SOL    HW277391   1.023   4.771   8.819 -0.4817  0.1014 -0.8040
25605SOL     OW77392   0.268   1.712   7.744 -0.3129  0.3681 -0.4095
25605SOL    HW177393   0.258   1.653   7.819  1.0625  0.7988  0.1648
25605SOL    HW277394   0.181   1.717   7.705 -1.6893  1.9138  2.5150
25606SOL     OW77395   5.864   3.440   6.252  0.0534  0.2585 -0.0109
25606SOL    HW177396   5.915   3.419   6.331 -0.0937  0.6916  0.2046
25606SOL    HW277397   5.930   3.451   6.183  0.1520 -0.5951 -0.0644
25607SOL     OW77398   3.262   2.330   9.920 -0.5780 -0.0160  0.4061
25607SOL    HW177399   3.283   2.359   9.831 -0.7925 -0.3863  0.2307
25607SOL    HW277400   3.172   2.360   9.934 -0.7845 -0.5483  0.2406
25608SOL     OW77401   7.995   3.001   1.689 -0.9215  0.0788  0.7884
25608SOL    HW177402   7.987   2.925   1.631  1.8288  0.3331 -0.0872
25608SOL    HW277403   8.014   3.074   1.629  2.5284  0.2601  1.8885
25609SOL     OW77404   2.282   6.188   2.023  0.5937 -0.1771  0.2053
25609SOL    HW177405   2.232   6.172   1.943 -0.3612 -0.0944  0.7612
25609SOL    HW277406   2.272   6.282   2.039  0.4595 -0.2593  0.6187
25610SOL     OW77407   8.901   8.826   5.660 -0.1243  0.2481 -0.2503
25610SOL    HW177408   8.897   8.749   5.716 -1.0990  0.9930  0.7356
25610SOL    HW277409   8.980   8.813   5.606  2.7530  0.9234  3.3973
25611SOL     OW77410   5.305   0.998   0.094 -0.1351  0.2835  0.4700
25611SOL    HW177411   5.247   1.043   0.155 -0.7301  0.8608 -0.4867
25611SOL    HW277412   5.251   0.927   0.058  0.1891 -0.0129  0.5645
25612SOL     OW77413   4.583   9.934   9.956 -0.3472  0.6704 -0.7588
25612SOL    HW177414   4.617  10.009  10.004 -1.1036  1.3184 -1.2145
25612SOL    HW277415   4.503   9.966   9.915 -2.4011 -1.1721  1.5045
25613SOL     OW77416   8.933   0.015   7.410 -0.3539 -0.6064  0.1549
25613SOL    HW177417   9.002   0.052   7.355 -1.1797 -0.2146 -0.6633
25613SOL    HW277418   8.977  -0.013   7.490  0.6702  0.0238 -0.1728
25614SOL     OW77419   3.391   6.301   8.574  0.0319 -0.3041  0.1125
25614SOL    HW177420   3.447   6.226   8.554 -0.5745 -0.4514 -1.0858
25614SOL    HW277421   3.335   6.270   8.645  0.5553 -0.5949  0.4068
25615SOL     OW77422   1.038   0.624   8.889 -0.3591 -0.0156  0.1128
25615SOL    HW177423   1.032   0.684   8.814 -0.9920 -1.6747 -1.2242
25615SOL    HW277424   1.124   0.584   8.881 -0.2354  0.1609  0.5624
25616SOL     OW77425   7.588   4.558   5.275  0.0407  0.9528  0.6303
25616SOL    HW177426   7.664   4.587   5.224 -1.1473  2.2256 -0.5006
25616SOL    HW277427   7.520   4.544   5.209 -1.4239  2.2106  1.8067
25617SOL     OW77428   6.719   4.380   5.168  0.0057 -0.1447  0.0165
25617SOL    HW177429   6.687   4.452   5.114 -1.1435  0.1433  1.0220
25617SOL    HW277430   6.699   4.302   5.118 -1.9471  0.0560  0.3872
25618SOL     OW77431   6.052   5.078   3.032 -0.3878  0.0809  0.5117
25618SOL    HW177432   6.074   5.148   2.970 -3.8438  0.0821 -0.9445
25618SOL    HW277433   6.011   5.123   3.106  0.4992 -0.1818  1.1720
25619SOL     OW77434   2.537   1.492   9.891 -0.0539 -0.7152 -0.2544
25619SOL    HW177435   2.618   1.458   9.854 -0.3874 -0.3890 -1.3264
25619SOL    HW277436   2.559   1.581   9.919 -0.7910  0.7299 -3.6853
25620SOL     OW77437   7.812   7.924   7.118 -0.2556  0.8583  0.3837
25620SOL    HW177438   7.776   7.846   7.076 -0.9741  0.7502  1.1773
25620SOL    HW277439   7.907   7.909   7.119 -0.1219  1.2746 -1.9887
25621SOL     OW77440   2.340   4.327   3.111  0.8075  0.7027 -1.0438
25621SOL    HW177441   2.387   4.259   3.159 -0.2271  0.0931 -0.8664
25621SOL    HW277442   2.251   4.293   3.102  0.4216  1.7832 -1.4659
25622SOL     OW77443   8.982   8.973   8.020  0.3776  0.5592  0.1403
25622SOL    HW177444   8.934   8.907   7.970  1.0689  0.6249 -0.6399
25622SOL    HW277445   9.063   8.985   7.971  1.3389  0.2242  1.5921
25623SOL     OW77446   5.661   2.920   0.918 -0.3262  0.6350  0.0466
25623SOL    HW177447   5.736   2.913   0.977 -1.0226 -0.7916  0.8068
25623SOL    HW277448   5.698   2.954   0.836  0.8221  1.7058  0.9748
25624SOL     OW77449   5.402   9.016   7.758  0.2514  0.2241  0.4304
25624SOL    HW177450   5.337   8.954   7.791  0.4553 -0.3635 -0.2241
25624SOL    HW277451   5.463   8.961   7.707 -0.2878  1.1144 -1.2496
25625SOL     OW77452   2.073   0.362   3.581  0.2359 -0.5342 -0.3097
25625SOL    HW177453   2.095   0.324   3.666 -0.3473 -1.6108 -0.6178
25625SOL    HW277454   2.020   0.295   3.538 -2.1476  1.2017 -0.2892
25626SOL     OW77455   0.013   0.927   3.649  0.1988 -0.4332  0.1851
25626SOL    HW177456   0.077   0.984   3.606  0.2163  0.2562  1.1102
25626SOL    HW277457  -0.062   0.983   3.666 -0.5631 -1.1725 -0.6333
25627SOL     OW77458   4.809   5.297   2.468  0.1856 -0.3007 -0.3395
25627SOL    HW177459   4.820   5.382   2.512 -0.2612 -0.3473 -0.1426
25627SOL    HW277460   4.848   5.311   2.382  0.8617 -0.1423 -0.0179
25628SOL     OW77461   5.570   9.113   7.967 -0.4083 -0.4027  0.1628
25628SOL    HW177462   5.488   9.096   8.013  0.6305 -1.3914  1.7697
25628SOL    HW277463   5.590   9.031   7.922  0.3622 -0.6491  0.9226
25629SOL     OW77464   1.296   0.260   5.395 -0.9642 -0.6370  0.1499
25629SOL    HW177465   1.374   0.270   5.449 -0.7265 -1.4837 -0.0197
25629SOL    HW277466   1.324   0.283   5.307 -0.8168 -1.2916  0.0275
25630SOL     OW77467   2.187   1.759   5.902  0.4281 -0.0076 -0.0109
25630SOL    HW177468   2.171   1.669   5.933 -0.5366  0.2724  0.3361
25630SOL    HW277469   2.100   1.800   5.902  0.5453  0.3330 -2.0831
25631SOL     OW77470   1.927   4.384   8.362  0.9246  0.3669 -0.0128
25631SOL    HW177471   1.910   4.404   8.270 -0.0311  1.7107  0.4181
25631SOL    HW277472   1.969   4.463   8.396  0.5234  0.2100  0.8804
25632SOL     OW77473   2.255   3.783   5.024  0.0830  0.4280 -0.0650
25632SOL    HW177474   2.315   3.803   4.952 -1.5912  0.0669 -1.6490
25632SOL    HW277475   2.177   3.835   5.005 -0.9479 -0.7866  0.6633
25633SOL     OW77476   8.848   8.890   1.918 -0.5227  0.4597 -0.7115
25633SOL    HW177477   8.880   8.980   1.928  0.9358  0.1496 -2.1523
25633SOL    HW277478   8.790   8.877   1.992  0.3107  2.1348  0.2922
25634SOL     OW77479   1.430   8.250   0.690  0.0685 -0.4483  0.0613
25634SOL    HW177480   1.514   8.236   0.647 -0.5382 -0.0572 -1.3203
25634SOL    HW277481   1.446   8.231   0.782  2.2861  1.9950  0.2815
25635SOL     OW77482   4.088   6.030   7.682  0.2390 -0.2474  0.4437
25635SOL    HW177483   4.178   6.031   7.649 -0.1789 -0.1457 -0.7235
25635SOL    HW277484   4.052   5.947   7.650 -0.2199 -0.0840  0.5398
25636SOL     OW77485   1.969   3.272   1.266 -0.3550  0.6420 -0.2871
25636SOL    HW177486   1.873   3.268   1.263 -0.4089  0.7099  1.0456
25636SOL    HW277487   1.993   3.213   1.337  0.5808  0.9240 -0.3671
25637SOL     OW77488   3.685   2.605   9.703 -0.1973 -0.1151  0.4534
25637SOL    HW177489   3.733   2.673   9.750 -1.0287  0.2306  0.8176
25637SOL    HW277490   3.753   2.545   9.672  0.7066  1.5943 -1.0675
25638SOL     OW77491   8.721   0.608   7.101  0.0586 -0.0789  0.3039
25638SOL    HW177492   8.632   0.584   7.073  0.4544 -2.1414  0.6376
25638SOL    HW277493   8.754   0.662   7.030 -1.3405  0.4601  0.0163
25639SOL     OW77494   4.915   7.958   9.259 -0.0636  0.7025 -0.2727
25639SOL    HW177495   4.841   7.939   9.318 -1.6897 -0.0876 -2.4155
25639SOL    HW277496   4.992   7.925   9.305 -1.2089  0.4321  1.5392
25640SOL     OW77497   2.384   3.383   9.558  0.2912 -0.2228 -0.1152
25640SOL    HW177498   2.347   3.416   9.639 -1.5297  1.0338 -1.3839
25640SOL    HW277499   2.427   3.458   9.518  3.0133 -1.2941  0.5713
25641SOL     OW77500   9.311   6.915   0.986  0.3102  0.2999  0.2867
25641SOL    HW177501   9.239   6.854   0.968  2.0711 -1.5946 -0.7804
25641SOL    HW277502   9.268   6.999   1.002 -2.1460 -0.8567  0.1965
25642SOL     OW77503   8.218   7.184   9.015  0.7616 -0.1002 -0.6485
25642SOL    HW177504   8.218   7.176   8.919 -0.7122 -0.2767 -0.6595
25642SOL    HW277505   8.288   7.246   9.034  0.5768  0.5376 -1.9181
25643SOL     OW77506   5.432   4.814   9.871  0.6657 -0.6256 -0.0010
25643SOL    HW177507   5.345   4.852   9.865 -0.1508 -2.3142  0.5937
25643SOL    HW277508   5.475   4.839   9.788  0.4508  2.0301  0.5888
25644SOL     OW77509   1.447   1.784   7.573  0.0471 -0.2958 -0.0157
25644SOL    HW177510   1.426   1.868   7.532  2.5254  0.8159  0.8057
25644SOL    HW277511   1.407   1.789   7.660 -0.9555 -0.5782 -0.4399
25645SOL     OW77512   3.227   1.164   8.366 -0.1726 -0.2777 -0.3752
25645SOL    HW177513   3.286   1.221   8.316  1.0010 -3.2321 -2.6240
25645SOL    HW277514   3.264   1.163   8.455  0.8488  0.9342 -0.7615
25646SOL     OW77515   0.567   6.623   8.574 -0.2443 -0.0859  0.1456
25646SOL    HW177516   0.605   6.591   8.656 -0.3319  0.7928  0.5390
25646SOL    HW277517   0.635   6.608   8.509  0.9425  1.7057  0.8909
25647SOL     OW77518   5.960   2.576   2.193  0.0351 -0.2081 -0.2806
25647SOL    HW177519   5.984   2.485   2.205 -0.2884 -0.3881 -0.9452
25647SOL    HW277520   5.872   2.573   2.153 -1.4095  0.4075  2.5850
25648SOL     OW77521   2.154   9.679   1.069 -0.0509 -0.0524  0.0401
25648SOL    HW177522   2.213   9.604   1.076  2.4850  1.7937 -0.1301
25648SOL    HW277523   2.205   9.752   1.104 -2.2727  1.6774 -0.1660
25649SOL     OW77524   8.730   0.282   8.808  0.1133 -0.1732  0.0301
25649SOL    HW177525   8.785   0.321   8.876  1.4795 -1.1623 -0.4651
25649SOL    HW277526   8.641   0.295   8.839  0.6543 -3.2545  3.5685
25650SOL     OW77527   1.721   9.480   6.762 -0.0347  0.2948  1.0874
25650SOL    HW177528   1.684   9.517   6.842 -1.6006 -0.4733  0.7630
25650SOL    HW277529   1.757   9.555   6.715 -3.9649  1.7544 -0.0237
25651SOL     OW77530   5.776   9.103   6.918  0.4438 -0.0602  0.1499
25651SOL    HW177531   5.714   9.176   6.917 -1.6340 -1.6820 -1.8875
25651SOL    HW277532   5.724   9.029   6.948  2.1164 -1.0266  0.7907
25652SOL     OW77533   9.093   3.887   8.848  0.2509  0.4030 -0.2167
25652SOL    HW177534   9.130   3.958   8.795 -0.3319  0.6054 -0.3592
25652SOL    HW277535   9.004   3.915   8.866 -0.7777 -1.3120 -2.1910
25653SOL     OW77536   2.761   4.241   0.435  0.0348 -0.3907  0.3426
25653SOL    HW177537   2.784   4.312   0.375 -0.5592 -0.7000 -0.2619
25653SOL    HW277538   2.820   4.253   0.509  2.7253 -1.5870 -1.4523
25654SOL     OW77539   2.563   5.084   1.116 -0.5005 -0.0464 -0.5209
25654SOL    HW177540   2.629   5.081   1.186 -1.4941  0.7946  0.4909
25654SOL    HW277541   2.514   5.164   1.133 -1.2501 -0.2242 -1.7537
25655SOL     OW77542   7.699   8.567   4.524 -0.3019 -0.1546 -0.2604
25655SOL    HW177543   7.624   8.533   4.573 -0.4436 -0.3723 -0.6306
25655SOL    HW277544   7.760   8.494   4.520 -0.7387 -0.4720 -1.3298
25656SOL     OW77545   4.562   9.310   1.846  0.2231  0.9224  0.4354
25656SOL    HW177546   4.495   9.363   1.890 -1.4813 -1.5076  0.9857
25656SOL    HW277547   4.529   9.220   1.853  3.0987 -0.2763 -0.1708
25657SOL     OW77548   1.181   3.475   6.462 -0.4729 -0.0979  0.3080
25657SOL    HW177549   1.113   3.539   6.484 -0.3447 -0.7603  2.8732
25657SOL    HW277550   1.204   3.434   6.545  0.2935 -2.6891 -1.0684
25658SOL     OW77551   1.593   9.594   5.201  0.2319 -0.0052  0.0532
25658SOL    HW177552   1.646   9.549   5.135 -0.3517 -1.7522  0.7244
25658SOL    HW277553   1.656   9.643   5.254  0.7670  0.9055 -1.3729
25659SOL     OW77554   9.239   7.822   3.049  0.1829 -0.1112 -0.6268
25659SOL    HW177555   9.169   7.789   2.994 -1.9890  2.3399  0.4575
25659SOL    HW277556   9.305   7.854   2.987 -1.1069  0.4267 -1.7647
25660SOL     OW77557   7.997   2.397   2.488  0.9556 -0.6106 -0.4364
25660SOL    HW177558   8.051   2.472   2.463 -1.1521  0.8338 -0.8814
25660SOL    HW277559   7.965   2.362   2.405  0.1296 -0.6085 -0.1190
25661SOL     OW77560   8.086   1.898   4.018 -0.5461  0.9498  0.2433
25661SOL    HW177561   8.024   1.876   3.948  0.8401 -0.4725 -0.6158
25661SOL    HW277562   8.043   1.966   4.068 -2.0640  1.2316 -1.3514
25662SOL     OW77563   9.854   0.418   7.057 -0.6014  0.3928  0.2025
25662SOL    HW177564   9.948   0.399   7.066 -0.3286  1.2749 -0.5383
25662SOL    HW277565   9.814   0.379   7.134  0.2823 -0.6099  0.1684
25663SOL     OW77566   3.226   8.389   4.098  0.1542 -0.8085  0.5895
25663SOL    HW177567   3.223   8.413   4.006 -1.7701  1.9337  1.2335
25663SOL    HW277568   3.313   8.413   4.127 -0.2410  1.3920  0.1299
25664SOL     OW77569   8.726   4.015   2.049 -0.1381 -0.3705  0.5309
25664SOL    HW177570   8.745   4.033   1.956 -1.6104  1.6899  0.5639
25664SOL    HW277571   8.726   3.920   2.055  1.3104 -0.5504 -1.2838
25665SOL     OW77572   7.157   4.945   3.444  0.2053  0.1437 -0.4018
25665SOL    HW177573   7.197   4.890   3.512  0.7564 -0.2740 -1.0379
25665SOL    HW277574   7.080   4.983   3.485  0.5869 -0.0137  0.4865
25666SOL     OW77575   4.980   4.411   0.162  0.2695  0.4553  0.4622
25666SOL    HW177576   5.019   4.498   0.150  2.1815  0.0994  3.1685
25666SOL    HW277577   4.959   4.407   0.255 -0.5827 -1.6830  0.2237
25667SOL     OW77578   7.971   9.920   3.656 -0.8331 -0.0839 -0.1032
25667SOL    HW177579   8.049   9.970   3.681  0.1369 -1.0949 -0.9794
25667SOL    HW277580   7.909   9.936   3.727  0.3378  0.3765  0.8625
25668SOL     OW77581   0.202   9.542   6.734  0.2813  0.0777 -0.1417
25668SOL    HW177582   0.176   9.482   6.664 -0.7082  1.7317 -1.2578
25668SOL    HW277583   0.122   9.590   6.755  1.1568  1.3663  0.3583
25669SOL     OW77584   4.855   4.279   9.946  0.7599  0.0799 -0.1178
25669SOL    HW177585   4.916   4.313   9.880 -0.5938  1.2371 -0.8230
25669SOL    HW277586   4.882   4.320  10.028  1.6038 -0.2852 -0.2033
25670SOL     OW77587   0.655   5.159   9.320 -0.2900  0.0463  0.0338
25670SOL    HW177588   0.638   5.253   9.324 -0.6854 -0.0613  1.7664
25670SOL    HW277589   0.568   5.120   9.315 -0.2061 -0.2543  0.7484
25671SOL     OW77590   3.764   2.872   5.559 -0.5996 -0.3218  0.2699
25671SOL    HW177591   3.705   2.892   5.632  1.2569  1.0360  1.4711
25671SOL    HW277592   3.743   2.937   5.492 -1.2492 -0.5913  0.2067
25672SOL     OW77593   8.543   3.882   2.423  0.1984  0.4185  0.0632
25672SOL    HW177594   8.469   3.825   2.403  0.3659  0.6644 -1.3753
25672SOL    HW277595   8.504   3.968   2.439  0.1870  0.6481 -1.1327
25673SOL     OW77596   9.584   2.219   2.294 -0.6216  0.0085  0.0848
25673SOL    HW177597   9.576   2.138   2.344  2.0138  0.8231  2.0324
25673SOL    HW277598   9.678   2.230   2.280 -1.0506  1.6229 -2.1375
25674SOL     OW77599   5.627   9.097   8.331  0.4033 -0.2164  0.0607
25674SOL    HW177600   5.613   9.162   8.399 -0.1015  2.5667 -2.4646
25674SOL    HW277601   5.556   9.034   8.343 -1.5875  1.9242  0.2986
25675SOL     OW77602   0.444   7.946   3.247 -0.1836  0.0975  0.4773
25675SOL    HW177603   0.447   7.911   3.336 -1.1243 -0.7786  0.1853
25675SOL    HW277604   0.457   7.869   3.191 -0.3434  0.5242 -0.1562
25676SOL     OW77605   5.796   7.900   7.452 -0.1779 -0.3097  0.1472
25676SOL    HW177606   5.784   7.995   7.457 -1.4528 -0.4480 -0.0055
25676SOL    HW277607   5.789   7.871   7.543 -1.2029 -0.4081  0.0401
25677SOL     OW77608   9.050   8.185   6.357  0.3520 -0.2033  0.0629
25677SOL    HW177609   8.981   8.135   6.400 -0.4265 -0.6821 -1.6655
25677SOL    HW277610   9.071   8.135   6.279  0.2992  1.6133 -1.1771
25678SOL     OW77611   9.108   1.906   6.287 -0.1657 -0.1027 -0.8093
25678SOL    HW177612   9.019   1.935   6.267 -0.2187 -0.7091 -1.5132
25678SOL    HW277613   9.131   1.848   6.214 -0.0860 -1.8373  0.5367
25679SOL     OW77614   8.458   8.068   9.118  0.2089 -0.1584  0.5775
25679SOL    HW177615   8.483   8.031   9.202 -0.5092 -1.3768  0.2790
25679SOL    HW277616   8.441   7.992   9.062  0.1649  0.6276 -0.5096
25680SOL     OW77617   5.376   4.836   8.095 -0.1588  0.0255  0.0740
25680SOL    HW177618   5.283   4.839   8.120 -0.1034 -0.0359  0.2897
25680SOL    HW277619   5.375   4.805   8.005 -0.4641  1.9194 -0.6245
25681SOL     OW77620   6.116   1.731   8.926 -0.0362  0.3923  0.1738
25681SOL    HW177621   6.051   1.800   8.910 -0.2190  0.7237  2.0679
25681SOL    HW277622   6.190   1.754   8.870 -1.4516  0.0996 -1.9128
25682SOL     OW77623   6.200   0.894   2.365  0.6491  0.2925 -0.3579
25682SOL    HW177624   6.114   0.852   2.364  0.8927 -0.2088 -0.7867
25682SOL    HW277625   6.193   0.961   2.433  0.4076 -0.7864  0.7298
25683SOL     OW77626   5.447   3.173   0.287 -0.0351  0.1915  0.0884
25683SOL    HW177627   5.426   3.209   0.373  2.8409  0.2189  0.8713
25683SOL    HW277628   5.362   3.144   0.252 -1.6521  2.3874  1.8450
25684SOL     OW77629   6.456   9.069   2.959 -0.0831  0.7738 -0.1376
25684SOL    HW177630   6.379   9.016   2.937  1.1283 -0.7347 -1.0410
25684SOL    HW277631   6.429   9.122   3.034 -2.3288  1.1434 -1.1237
25685SOL     OW77632   0.536   3.411   4.597  0.1317 -0.1185 -0.0769
25685SOL    HW177633   0.508   3.498   4.567  1.6151  0.4888  0.2152
25685SOL    HW277634   0.617   3.394   4.549  1.8489  0.2850  2.4736
25686SOL     OW77635   7.172   9.771   9.501 -0.2676  0.1951  0.5438
25686SOL    HW177636   7.225   9.842   9.464 -2.5055  0.8225 -1.7429
25686SOL    HW277637   7.081   9.798   9.484 -1.2211 -3.0140 -0.0123
25687SOL     OW77638   5.009   9.444   2.987  0.6536 -0.2176  0.3667
25687SOL    HW177639   5.097   9.456   2.950  0.6004  0.9512  0.5701
25687SOL    HW277640   4.998   9.349   2.994  1.8415 -0.3808  0.1860
25688SOL     OW77641   8.182   0.033   1.488 -0.4442 -0.7562  0.2921
25688SOL    HW177642   8.197   0.068   1.576  0.0899 -0.3653  0.0525
25688SOL    HW277643   8.088   0.041   1.474 -0.2858  1.0750  0.0501
25689SOL     OW77644   1.280   3.940   2.184 -0.5276  0.2456 -0.3030
25689SOL    HW177645   1.236   4.020   2.155 -1.3715  0.5091  1.5382
25689SOL    HW277646   1.251   3.872   2.124 -1.3700  0.9439 -0.7062
25690SOL     OW77647   1.442   3.712   1.847  0.5662 -0.1661 -0.1787
25690SOL    HW177648   1.379   3.704   1.775 -0.7233 -0.4590  0.9570
25690SOL    HW277649   1.527   3.697   1.805 -0.0889  0.2870 -1.7546
25691SOL     OW77650   1.159   5.965   9.695 -0.2777  0.1089  0.1924
25691SOL    HW177651   1.121   6.005   9.617 -0.9725  4.1714  2.3456
25691SOL    HW277652   1.253   5.985   9.688 -0.7483  3.5978  1.7781
25692SOL     OW77653   4.541   9.528   9.382 -0.4598  0.0557  0.2493
25692SOL    HW177654   4.572   9.570   9.462 -2.0739 -0.6456  1.2864
25692SOL    HW277655   4.545   9.597   9.316  0.1237  0.8793  1.1183
25693SOL     OW77656   9.154   5.717   7.633  0.2996  0.4393 -0.1377
25693SOL    HW177657   9.176   5.734   7.725  1.0150  1.7599 -0.5319
25693SOL    HW277658   9.059   5.732   7.628 -0.0378 -1.1928  0.6915
25694SOL     OW77659   7.999   5.795   9.441 -0.1832  0.4172 -0.2665
25694SOL    HW177660   8.066   5.746   9.490 -0.1978 -0.4054 -1.0490
25694SOL    HW277661   7.933   5.816   9.506 -0.1120 -0.5026  0.1172
25695SOL     OW77662   5.117   9.347   1.828 -0.0345  0.4905 -0.0583
25695SOL    HW177663   5.136   9.275   1.888  3.0273  1.6628  0.6001
25695SOL    HW277664   5.058   9.405   1.878  0.8717  0.4635  1.0915
25696SOL     OW77665   4.131   4.588   6.392 -0.0259  0.4963  0.7201
25696SOL    HW177666   4.205   4.595   6.333 -0.4280  1.2223  0.2905
25696SOL    HW277667   4.159   4.635   6.471  0.2772  0.0541  0.8813
25697SOL     OW77668   0.546   0.257   1.213  0.0653  0.5251  0.0904
25697SOL    HW177669   0.509   0.345   1.217  0.2926  0.6313 -0.1148
25697SOL    HW277670   0.470   0.200   1.201  0.1025  0.8932 -2.2963
25698SOL     OW77671   5.704   0.422   5.533  0.0688  0.0067 -1.1948
25698SOL    HW177672   5.611   0.405   5.543  0.0312  0.0137 -1.5085
25698SOL    HW277673   5.722   0.494   5.593  0.0512 -0.5593 -0.5033
25699SOL     OW77674   8.246   8.101   2.250  0.1338  0.0793 -0.0709
25699SOL    HW177675   8.244   8.102   2.345  0.0370 -0.0304 -0.0715
25699SOL    HW277676   8.326   8.148   2.227  0.2930 -0.1251  0.0670
25700SOL     OW77677   2.402   4.547   1.267  0.0323  0.2774  0.0267
25700SOL    HW177678   2.322   4.594   1.247 -1.0048 -1.0596  0.8986
25700SOL    HW277679   2.411   4.552   1.362  1.1711  0.6739 -0.0792
25701SOL     OW77680   2.123   8.742   1.548  0.4882  0.1750  0.2485
25701SOL    HW177681   2.154   8.829   1.524 -0.3525  0.7220  1.0964
25701SOL    HW277682   2.059   8.720   1.480  1.6334 -0.3502 -0.6939
25702SOL     OW77683   1.338   9.696   0.785 -0.0470 -0.7147 -0.6929
25702SOL    HW177684   1.309   9.728   0.699  0.5971 -1.2178 -1.1051
25702SOL    HW277685   1.346   9.601   0.774 -0.2729 -0.8259  0.0228
25703SOL     OW77686   2.580   1.521   5.565 -0.0743  0.3798 -0.1028
25703SOL    HW177687   2.605   1.494   5.653  0.4352  2.2321  0.3479
25703SOL    HW277688   2.635   1.596   5.546 -1.2702  0.9744 -1.3900
25704SOL     OW77689   0.859   2.069   3.526 -0.0727 -0.2546  0.1608
25704SOL    HW177690   0.918   2.062   3.450 -1.5905  2.3870 -1.4123
25704SOL    HW277691   0.781   2.020   3.500 -0.5375  0.5351  0.0133
25705SOL     OW77692   4.283   7.331   3.433  0.0192 -0.2618 -0.0672
25705SOL    HW177693   4.330   7.378   3.502 -0.5407 -1.0939  0.8958
25705SOL    HW277694   4.243   7.401   3.381  1.9434  0.4558 -0.6787
25706SOL     OW77695   4.766   6.761   2.704 -0.2848 -0.5654  0.4901
25706SOL    HW177696   4.846   6.715   2.679  1.1633  2.2063 -0.3371
25706SOL    HW277697   4.752   6.824   2.633 -2.3640  0.0674  1.3924
25707SOL     OW77698   3.758   1.581   0.659 -0.5653  0.1208 -0.0069
25707SOL    HW177699   3.811   1.577   0.579 -0.3885 -0.4036  0.1313
25707SOL    HW277700   3.692   1.514   0.648 -0.7734  0.3012  0.1278
25708SOL     OW77701   4.633   3.426   5.318 -0.0801  0.0019 -0.4408
25708SOL    HW177702   4.605   3.442   5.409  2.7155  0.2025  0.4779
25708SOL    HW277703   4.693   3.498   5.299 -1.7244  0.7929 -3.0421
25709SOL     OW77704   1.000   1.379   3.824  0.4070  0.2368  0.4428
25709SOL    HW177705   1.027   1.292   3.852  1.3806 -0.1261 -1.4462
25709SOL    HW277706   0.982   1.426   3.905  0.1495 -1.6199  1.5058
25710SOL     OW77707   7.718   0.268   8.544  0.5112 -0.0112  0.1035
25710SOL    HW177708   7.729   0.180   8.579 -2.1391 -0.6357 -0.3981
25710SOL    HW277709   7.795   0.282   8.490  0.9557 -2.0642  0.1213
25711SOL     OW77710   4.053   4.564   0.365 -0.0964 -0.1800  0.2533
25711SOL    HW177711   4.041   4.501   0.436 -0.5338 -0.6005 -0.1799
25711SOL    HW277712   4.113   4.629   0.400 -0.0349 -0.5686  0.8866
25712SOL     OW77713   4.128   2.413   1.313  0.5717  0.2771 -0.5917
25712SOL    HW177714   4.116   2.319   1.311  1.7783  0.0807  0.2824
25712SOL    HW277715   4.076   2.443   1.389  1.6583  0.0529  0.2659
25713SOL     OW77716   3.738   4.266   7.912 -0.5023 -0.2229  0.0003
25713SOL    HW177717   3.648   4.294   7.893 -0.9692 -1.1740  0.7400
25713SOL    HW277718   3.788   4.348   7.915 -1.3148  0.3074 -0.5520
25714SOL     OW77719   1.274   7.698   6.072  0.6744 -0.1982  0.0432
25714SOL    HW177720   1.211   7.770   6.080  1.2004  0.0920  1.9861
25714SOL    HW277721   1.275   7.656   6.158  1.2109 -1.8490 -0.7278
25715SOL     OW77722   7.388   0.255   4.542 -0.1713  0.0344  0.4539
25715SOL    HW177723   7.462   0.196   4.528 -1.3095 -1.2215 -0.4966
25715SOL    HW277724   7.418   0.339   4.506 -0.1584 -1.1341 -2.5860
25716SOL     OW77725   7.621   8.261   9.223  0.7803  0.1935  0.2260
25716SOL    HW177726   7.606   8.355   9.226  1.5949  0.3009  1.2884
25716SOL    HW277727   7.613   8.239   9.130  0.8253  1.3468 -0.0636
25717SOL     OW77728   3.949   8.693   8.775 -0.0798 -0.7153  0.1668
25717SOL    HW177729   3.905   8.754   8.835  1.1690 -0.5885  1.0001
25717SOL    HW277730   3.894   8.692   8.697 -1.4386 -0.4157  1.0805
25718SOL     OW77731   4.550   8.325   0.349 -0.2937  0.1303  0.7146
25718SOL    HW177732   4.502   8.379   0.411 -0.7126 -0.6996  1.1290
25718SOL    HW277733   4.500   8.330   0.268 -1.2096 -0.8583  1.1849
25719SOL     OW77734   4.579   2.094   6.497  0.8224  0.3661  0.1101
25719SOL    HW177735   4.535   2.113   6.580  1.7022 -0.5020  0.8160
25719SOL    HW277736   4.583   2.178   6.451 -0.8245  0.6048  0.3687
25720SOL     OW77737   0.062   7.081   1.550  0.2706 -0.1447 -0.0531
25720SOL    HW177738  -0.031   7.075   1.569  0.0806 -0.2452 -0.9813
25720SOL    HW277739   0.078   7.174   1.537 -0.1724 -0.2913 -2.0516
25721SOL     OW77740   2.295   0.506   6.227 -0.0737 -0.3018 -0.2969
25721SOL    HW177741   2.271   0.424   6.270 -1.8091 -0.4654 -1.4683
25721SOL    HW277742   2.389   0.497   6.208  0.1659 -1.2371  1.1700
25722SOL     OW77743   7.967   4.931   0.206 -0.1100 -0.2875 -0.5538
25722SOL    HW177744   7.957   4.972   0.292  0.3582 -1.7725  0.2459
25722SOL    HW277745   7.980   5.004   0.145 -1.9319  0.9017  0.3858
25723SOL     OW77746   5.963   0.842   3.370 -0.2503 -0.1250 -0.2248
25723SOL    HW177747   5.936   0.934   3.369  0.2593  0.0214 -0.9321
25723SOL    HW277748   5.913   0.801   3.300  0.6828 -0.0331 -0.9733
25724SOL     OW77749   0.691   5.426   9.395 -0.0763 -0.1563  0.1086
25724SOL    HW177750   0.643   5.498   9.354 -0.9457 -0.7905 -0.0015
25724SOL    HW277751   0.772   5.467   9.425 -1.2707  1.2651  1.5811
25725SOL     OW77752   6.794   5.975   7.550  0.0883  0.1216 -0.1617
25725SOL    HW177753   6.874   5.990   7.499  0.9953 -3.0709  0.1348
25725SOL    HW277754   6.809   6.022   7.632  0.7034  1.2994 -0.9152
25726SOL     OW77755   2.977   3.832   1.554  0.0596 -0.0402  0.0510
25726SOL    HW177756   2.936   3.759   1.600  1.7185 -1.1765 -0.2081
25726SOL    HW277757   3.035   3.790   1.490  0.1068  1.5134 -0.9743
25727SOL     OW77758   8.514   5.121   1.434 -0.3550 -0.2525  0.2229
25727SOL    HW177759   8.426   5.143   1.404 -0.8330  0.7467  2.1994
25727SOL    HW277760   8.567   5.197   1.410 -0.1444 -0.6009 -0.4395
25728SOL     OW77761   4.206   3.952   5.959  0.2627  0.0047  0.0327
25728SOL    HW177762   4.179   3.987   6.044  0.4010 -1.0529  0.5271
25728SOL    HW277763   4.204   4.027   5.901 -0.5862  0.6001  0.7989
25729SOL     OW77764   6.239   1.894   3.901 -0.2849  0.2410 -0.8918
25729SOL    HW177765   6.260   1.840   3.825  0.5941 -0.2312 -0.3219
25729SOL    HW277766   6.297   1.969   3.894 -1.0636  0.8219 -1.3364
25730SOL     OW77767   6.139   7.575   9.907  0.0013 -1.2128 -0.5304
25730SOL    HW177768   6.207   7.641   9.893 -0.0238 -1.3697 -1.4503
25730SOL    HW277769   6.103   7.559   9.820 -1.5946 -0.7289  0.0047
25731SOL     OW77770   8.319   2.320   5.229 -0.4228  0.2550 -0.3899
25731SOL    HW177771   8.301   2.408   5.198 -0.5052  0.2490 -0.3576
25731SOL    HW277772   8.328   2.267   5.149 -0.6843  0.2292 -0.4030
25732SOL     OW77773   7.405   5.635   7.402 -0.3883  0.3216  0.0724
25732SOL    HW177774   7.335   5.687   7.361  0.5955  1.2719 -0.4544
25732SOL    HW277775   7.464   5.613   7.331 -1.0431 -2.0554  0.1811
25733SOL     OW77776   6.178   4.968   5.629 -0.7784  0.0321 -0.9446
25733SOL    HW177777   6.129   4.889   5.608  0.3653 -1.0405  0.1912
25733SOL    HW277778   6.147   4.994   5.716  0.4606 -0.5418 -0.3013
25734SOL     OW77779   7.539   6.144   2.880  0.2553 -0.3488  0.3296
25734SOL    HW177780   7.468   6.134   2.816 -0.1963  0.5202  0.6715
25734SOL    HW277781   7.601   6.074   2.859 -0.7227 -1.1553  0.0524
25735SOL     OW77782   4.326   9.029   9.193  0.3225 -0.2977 -0.2868
25735SOL    HW177783   4.418   9.052   9.207 -0.0986  0.5832  1.3412
25735SOL    HW277784   4.312   9.043   9.100  2.1711 -1.7504 -0.8490
25736SOL     OW77785   4.801   8.957   9.808 -0.1348  0.1587  0.0962
25736SOL    HW177786   4.717   8.997   9.831 -0.0248  0.1349  0.5547
25736SOL    HW277787   4.809   8.970   9.714 -1.5629 -1.5481 -0.3193
25737SOL     OW77788   1.488   5.184   4.911 -0.0105  0.1655 -0.3716
25737SOL    HW177789   1.542   5.260   4.933 -0.6931  0.4687  0.3141
25737SOL    HW277790   1.498   5.173   4.816 -0.5886  1.6608 -0.6268
25738SOL     OW77791   5.513   8.777   1.177 -0.1294 -0.5596  0.1567
25738SOL    HW177792   5.574   8.757   1.106  0.3213 -2.3700  0.9942
25738SOL    HW277793   5.453   8.703   1.179  0.4195 -0.9989  2.2140
25739SOL     OW77794   7.705   1.198   8.500  0.1352  0.5353 -0.6280
25739SOL    HW177795   7.720   1.104   8.500  0.0763  0.5096 -1.9480
25739SOL    HW277796   7.754   1.230   8.425 -2.9275  1.0089 -2.5777
25740SOL     OW77797   8.185   1.290   4.931 -0.0728 -0.4477  0.0828
25740SOL    HW177798   8.162   1.203   4.965  0.6134  0.0391  1.9177
25740SOL    HW277799   8.140   1.351   4.990  0.4728  0.4521 -0.4111
25741SOL     OW77800   7.408   0.172   9.256 -0.1183  0.3458  0.2933
25741SOL    HW177801   7.389   0.210   9.170 -1.4004 -1.0170 -0.0827
25741SOL    HW277802   7.468   0.233   9.297 -0.5906  1.7560 -1.0232
25742SOL     OW77803   3.174   2.714   4.599  0.3548 -0.0569  0.1468
25742SOL    HW177804   3.152   2.621   4.601  1.7872 -0.4265 -0.0459
25742SOL    HW277805   3.111   2.756   4.657 -0.2190 -1.1697  0.3418
25743SOL     OW77806   4.821   5.272   2.808  0.2338 -0.4276  0.0357
25743SOL    HW177807   4.859   5.334   2.746  0.6517  0.7997  1.4890
25743SOL    HW277808   4.896   5.236   2.855 -0.0919 -1.2730 -0.0731
25744SOL     OW77809   0.203   4.438   3.887  0.4255  0.0789 -0.2459
25744SOL    HW177810   0.227   4.348   3.865 -0.4467 -0.6762  1.6542
25744SOL    HW277811   0.198   4.438   3.983  0.4557  2.1799 -0.2048
25745SOL     OW77812   9.145   0.709   6.379  0.2589 -0.1710 -0.0734
25745SOL    HW177813   9.058   0.749   6.381 -0.2500 -1.1995 -0.6591
25745SOL    HW277814   9.130   0.619   6.350  1.4825 -0.4856  0.1772
25746SOL     OW77815   9.508   4.312   1.714  0.2341 -0.0136  0.2472
25746SOL    HW177816   9.429   4.360   1.690  0.2381 -0.1618 -0.0596
25746SOL    HW277817   9.555   4.300   1.632 -0.0944 -1.1366  0.2138
25747SOL     OW77818   8.377   0.498   2.494  0.3034 -0.4775  0.1769
25747SOL    HW177819   8.370   0.545   2.576  1.6072 -0.1820  0.1344
25747SOL    HW277820   8.469   0.471   2.489  0.3850 -0.0324 -1.4142
25748SOL     OW77821   2.958   6.712   1.871  0.0860  0.0685 -0.0316
25748SOL    HW177822   2.921   6.722   1.783 -0.0605 -0.4513 -0.0355
25748SOL    HW277823   2.928   6.625   1.900  1.0471 -0.2386  0.0879
25749SOL     OW77824   6.568   8.267   7.576  0.0209  0.2500  0.0266
25749SOL    HW177825   6.492   8.221   7.542  1.1087 -3.7544  2.3616
25749SOL    HW277826   6.642   8.234   7.524  0.8129 -0.6154  1.6308
25750SOL     OW77827   0.374   7.899   5.250  0.2041 -0.5249  0.2726
25750SOL    HW177828   0.465   7.872   5.265  0.1698 -0.5360  0.4716
25750SOL    HW277829   0.361   7.888   5.156  0.4398 -0.4276  0.2269
25751SOL     OW77830   0.795   4.474   5.448 -0.1570 -0.5047  0.0526
25751SOL    HW177831   0.817   4.557   5.404  1.2477 -0.7561  0.2497
25751SOL    HW277832   0.739   4.500   5.521  0.3526  0.2788  0.1738
25752SOL     OW77833   2.477   5.707   7.358 -0.2698  0.5782 -0.2552
25752SOL    HW177834   2.516   5.694   7.272  2.7428  0.1953  1.0348
25752SOL    HW277835   2.513   5.791   7.388  0.7840 -0.4425  1.5540
25753SOL     OW77836   1.882   7.856   2.176 -0.5387 -0.0532  0.1244
25753SOL    HW177837   1.792   7.836   2.151 -0.5196  0.0702 -0.0426
25753SOL    HW277838   1.936   7.810   2.111 -0.4966  0.6547 -0.3413
25754SOL     OW77839   3.267   6.517   0.966  0.0228  0.1634  0.4389
25754SOL    HW177840   3.319   6.459   1.022  0.3975  1.1209  1.0918
25754SOL    HW277841   3.248   6.463   0.889  2.5323 -0.0540 -0.1307
25755SOL     OW77842   9.359   7.479   6.117 -0.0636 -0.3860 -0.5114
25755SOL    HW177843   9.329   7.390   6.134  0.9168 -0.6472 -0.0320
25755SOL    HW277844   9.453   7.477   6.138  0.5503  0.1183 -2.8583
25756SOL     OW77845   6.885   9.179   4.526  0.2476 -0.5442 -0.3554
25756SOL    HW177846   6.976   9.173   4.498 -0.2918 -4.9344 -1.9128
25756SOL    HW277847   6.883   9.136   4.612 -0.3639 -0.3574 -0.2657
25757SOL     OW77848   8.490   2.736   0.993  0.3037 -0.1405  0.1973
25757SOL    HW177849   8.410   2.774   1.030  0.6268  1.1369 -0.3381
25757SOL    HW277850   8.561   2.772   1.048  0.6376  0.2309 -0.4622
25758SOL     OW77851   9.672   2.785   4.103 -0.6395 -0.2059  0.6281
25758SOL    HW177852   9.691   2.733   4.025 -0.0235  0.9586 -0.0166
25758SOL    HW277853   9.624   2.725   4.160 -0.7602 -1.1983 -0.4747
25759SOL     OW77854   6.090   3.816   6.904 -0.0313 -0.1340 -0.2637
25759SOL    HW177855   6.110   3.825   6.811 -0.7719 -0.9652 -0.5226
25759SOL    HW277856   6.174   3.801   6.946  0.1143 -2.1917 -1.1358
25760SOL     OW77857   0.239   4.707   2.242  0.3353  0.1545 -0.2441
25760SOL    HW177858   0.185   4.629   2.249  0.4322  0.0817 -0.3027
25760SOL    HW277859   0.182   4.773   2.203  0.6664 -0.3020 -1.5524
25761SOL     OW77860   4.752   4.205   6.336 -0.1793  0.1920  0.6333
25761SOL    HW177861   4.705   4.133   6.380 -0.3823  0.0807  0.2412
25761SOL    HW277862   4.842   4.196   6.366 -0.0568 -0.6525  0.0634
25762SOL     OW77863   7.947   8.336   2.918  0.4647  0.1770 -0.8869
25762SOL    HW177864   7.864   8.288   2.908  0.4045 -0.2279  1.0659
25762SOL    HW277865   8.013   8.268   2.926  0.3899  0.3010  1.8448
25763SOL     OW77866   9.202   0.817   4.398 -0.6001 -0.2148  0.1438
25763SOL    HW177867   9.196   0.887   4.332  3.1599 -0.1568 -0.3609
25763SOL    HW277868   9.239   0.860   4.475  3.1917 -1.6833 -0.6411
25764SOL     OW77869   2.720   8.625   7.625  0.5253 -0.6459 -0.1629
25764SOL    HW177870   2.647   8.685   7.635  2.0575  1.2796  0.0457
25764SOL    HW277871   2.705   8.582   7.541 -0.7655 -0.2174 -0.1650
25765SOL     OW77872   1.594   2.858   8.219 -0.2780  0.0616 -0.1206
25765SOL    HW177873   1.601   2.912   8.298  0.8708 -0.1836 -0.0262
25765SOL    HW277874   1.635   2.910   8.150  1.5494 -0.9345  0.1335
25766SOL     OW77875   9.405   6.347   2.589 -0.4768 -0.3113  0.0447
25766SOL    HW177876   9.373   6.259   2.610  0.5111 -0.6791  0.0849
25766SOL    HW277877   9.427   6.386   2.673  0.0469 -0.4155 -0.0395
25767SOL     OW77878   5.010   4.597   0.988  0.3331  0.1305 -0.0193
25767SOL    HW177879   4.965   4.516   0.966 -1.4031  0.5955  1.5582
25767SOL    HW277880   5.056   4.578   1.070  2.4706 -0.0880 -1.1823
25768SOL     OW77881   2.094   5.766   3.999 -0.1709  0.5879  0.2431
25768SOL    HW177882   2.009   5.783   3.960  0.8542  1.8416 -1.5776
25768SOL    HW277883   2.114   5.844   4.050  0.2345  0.6609 -0.0181
25769SOL     OW77884   5.731   7.417   7.757 -0.1681 -0.1549  0.3726
25769SOL    HW177885   5.749   7.454   7.843  2.9753  1.9841 -0.9912
25769SOL    HW277886   5.817   7.412   7.715 -1.6755  0.2490 -3.0944
25770SOL     OW77887   5.042   8.253   1.564 -0.0728 -0.3762  0.5482
25770SOL    HW177888   5.017   8.242   1.472 -1.9862 -1.9197  1.1915
25770SOL    HW277889   5.110   8.187   1.579 -0.5041 -0.8255  0.5099
25771SOL     OW77890   4.600   0.772   5.465  0.1022 -0.4376 -0.0004
25771SOL    HW177891   4.684   0.731   5.488  0.4550  1.5513  2.7990
25771SOL    HW277892   4.545   0.756   5.542 -0.9932  1.0261 -0.4583
25772SOL     OW77893   7.737   2.748   0.751 -0.3720 -0.1532 -0.2506
25772SOL    HW177894   7.669   2.684   0.733 -0.2712  0.0216 -1.3259
25772SOL    HW277895   7.722   2.775   0.842 -0.8692 -1.1363 -0.0315
25773SOL     OW77896   3.195   9.660   1.903 -0.3956  0.3884  0.1260
25773SOL    HW177897   3.244   9.578   1.900  0.4700  0.8979  0.0699
25773SOL    HW277898   3.247   9.717   1.960 -0.8006  1.0190 -0.1270
25774SOL     OW77899   3.521   1.169   0.322  0.0885 -0.2893  0.1503
25774SOL    HW177900   3.481   1.124   0.397  0.4588 -0.9110 -0.0197
25774SOL    HW277901   3.464   1.149   0.248 -0.7763  1.0594  0.4182
25775SOL     OW77902   1.906   1.646   3.139 -0.2720 -0.5270  0.7810
25775SOL    HW177903   1.953   1.655   3.222 -0.5044  0.6687  0.7914
25775SOL    HW277904   1.886   1.735   3.112  0.5626 -0.8343 -1.0141
25776SOL     OW77905   8.749   6.694   3.261  0.1287 -0.5004  1.0242
25776SOL    HW177906   8.769   6.772   3.207 -1.6159 -0.4000  0.4499
25776SOL    HW277907   8.743   6.728   3.350  1.7985 -0.4398  1.1434
25777SOL     OW77908   2.774   4.050   9.407  0.1733  0.2401 -0.0310
25777SOL    HW177909   2.845   3.987   9.419  0.7838  0.8725 -0.2582
25777SOL    HW277910   2.804   4.106   9.335 -0.5108  0.5784 -0.0546
25778SOL     OW77911   6.760   6.748   7.950 -0.2400  0.2301 -0.1170
25778SOL    HW177912   6.718   6.700   7.878  1.1722  0.3194 -1.0354
25778SOL    HW277913   6.780   6.833   7.912  0.9781  0.1034  0.2253
25779SOL     OW77914   0.431   0.728   5.136 -0.0366 -0.0314 -0.1585
25779SOL    HW177915   0.516   0.761   5.163  0.1037  0.6380 -1.3777
25779SOL    HW277916   0.415   0.652   5.193  1.4185 -0.2332  0.0005
25780SOL     OW77917   5.365   6.472   3.245  0.3516 -0.1667 -0.5150
25780SOL    HW177918   5.411   6.545   3.288  1.8551  0.8415 -3.5794
25780SOL    HW277919   5.312   6.514   3.178 -3.1796 -1.5637  1.1477
25781SOL     OW77920   0.238   9.544   4.743  0.5250 -0.1211  0.5128
25781SOL    HW177921   0.215   9.607   4.811  0.7931  0.4211  0.1106
25781SOL    HW277922   0.157   9.531   4.694  0.3835 -0.3560  0.8042
25782SOL     OW77923   1.872   0.869   7.007  0.0206 -0.5572 -0.2465
25782SOL    HW177924   1.877   0.830   7.095 -0.6740 -1.3443 -0.5377
25782SOL    HW277925   1.933   0.942   7.010 -1.6379  0.8828  1.6241
25783SOL     OW77926   4.384   8.196   2.844 -0.4211  0.8595  0.4897
25783SOL    HW177927   4.315   8.129   2.846 -0.3361  0.5973 -2.1295
25783SOL    HW277928   4.458   8.156   2.889 -1.2447  0.3082  1.4026
25784SOL     OW77929   2.313   6.389   3.194 -0.1611 -0.3214  0.6327
25784SOL    HW177930   2.317   6.481   3.221 -1.9040 -0.2932  0.9332
25784SOL    HW277931   2.222   6.363   3.211  0.9285 -2.9587  3.3520
25785SOL     OW77932   7.504   3.918   1.472 -0.0715 -0.0433  0.0141
25785SOL    HW177933   7.435   3.957   1.417  0.1924  0.0619 -0.2466
25785SOL    HW277934   7.463   3.840   1.509 -0.1989 -0.2160 -0.4825
25786SOL     OW77935   2.082   6.718   0.128  0.3804  0.6142 -0.0018
25786SOL    HW177936   2.147   6.722   0.198 -1.3693  1.9765  1.6615
25786SOL    HW277937   2.036   6.802   0.133 -2.5129 -0.8493 -0.0337
25787SOL     OW77938   2.441   0.254   6.868  0.3708 -0.2162 -0.0460
25787SOL    HW177939   2.520   0.210   6.899  0.5446 -0.0527 -0.2570
25787SOL    HW277940   2.406   0.196   6.801  0.9126  0.2390 -0.7299
25788SOL     OW77941   1.460   1.400   6.993 -0.2009  0.3689  0.1517
25788SOL    HW177942   1.546   1.363   7.013 -0.6274 -1.1982 -0.6903
25788SOL    HW277943   1.454   1.395   6.897 -1.0069  0.9985  0.1598
25789SOL     OW77944   9.266   2.661   8.917  0.2276 -0.0262 -0.6228
25789SOL    HW177945   9.216   2.739   8.894 -0.3100 -0.5507 -1.2484
25789SOL    HW277946   9.272   2.611   8.836 -2.5969 -2.4225  0.4644
25790SOL     OW77947   7.844   8.063   7.628  0.3279 -0.3738 -0.7855
25790SOL    HW177948   7.797   8.145   7.611 -0.8927 -0.5628  1.2330
25790SOL    HW277949   7.915   8.062   7.564  0.8687  2.6523 -0.4264
25791SOL     OW77950   5.055   6.266   2.927  0.0343  0.1398 -0.5282
25791SOL    HW177951   4.999   6.279   3.003  1.4220  0.4062  0.4794
25791SOL    HW277952   5.086   6.176   2.935  1.4539  0.6637  0.1261
25792SOL     OW77953   6.616   6.423   4.008 -0.3185  0.1973 -0.5686
25792SOL    HW177954   6.537   6.474   4.021 -0.6499 -0.8727  2.6729
25792SOL    HW277955   6.682   6.465   4.063  1.2469  0.6362 -2.6292
25793SOL     OW77956   8.379   4.725   8.200  0.3685  0.2163 -0.1104
25793SOL    HW177957   8.394   4.694   8.289  1.9500  1.3156  0.0503
25793SOL    HW277958   8.324   4.657   8.160 -0.5108 -0.2127  1.7245
25794SOL     OW77959   0.754   7.831   2.525 -0.0688 -0.7929  0.3094
25794SOL    HW177960   0.816   7.904   2.528 -1.7006  0.6764 -0.1148
25794SOL    HW277961   0.805   7.758   2.489  1.0840  0.7018 -1.2774
25795SOL     OW77962   9.485   6.912   4.629  0.0554  0.5577 -0.1732
25795SOL    HW177963   9.406   6.865   4.600 -0.2356  0.0473  1.3677
25795SOL    HW277964   9.452   6.980   4.687  0.7009  0.8751 -0.1762
25796SOL     OW77965   2.633   4.287   5.925  0.1063  0.5462 -0.5551
25796SOL    HW177966   2.697   4.285   5.996 -0.0050  0.0980 -0.4637
25796SOL    HW277967   2.573   4.358   5.950  0.0555  0.3803 -0.1863
25797SOL     OW77968   6.903   2.519   0.018 -0.0762 -0.4837 -0.1845
25797SOL    HW177969   6.948   2.539   0.100 -0.4921  0.3105 -0.1378
25797SOL    HW277970   6.842   2.449   0.041  0.4043 -0.8479 -0.0135
25798SOL     OW77971   2.874   8.297   7.767  0.1514 -0.1102 -0.1590
25798SOL    HW177972   2.842   8.388   7.765  1.6512  0.4566 -2.2577
25798SOL    HW277973   2.810   8.250   7.820 -1.7976  1.7630 -0.7061
25799SOL     OW77974   6.944   9.020   3.870 -0.5833 -0.1609 -0.1981
25799SOL    HW177975   6.882   9.050   3.937  0.2480 -2.1263  1.5647
25799SOL    HW277976   6.899   9.038   3.787 -2.4476  0.7125  0.9238
25800SOL     OW77977   2.712   7.291   4.594  0.0463  0.0877  0.2540
25800SOL    HW177978   2.720   7.202   4.558 -1.0445  0.7457 -1.7442
25800SOL    HW277979   2.694   7.277   4.687 -0.8297 -1.8362 -0.1462
25801SOL     OW77980   2.323   0.473   3.700 -0.4738  0.5535  0.3823
25801SOL    HW177981   2.394   0.450   3.640 -0.3001 -0.2657  0.8864
25801SOL    HW277982   2.245   0.474   3.646 -0.0712  1.6799 -0.2281
25802SOL     OW77983   3.321   6.610   2.104 -0.1037  0.7145  0.3777
25802SOL    HW177984   3.318   6.666   2.026 -0.7181  0.2736  0.0765
25802SOL    HW277985   3.230   6.602   2.131 -0.0287 -0.1949  0.3727
25803SOL     OW77986   0.870   8.825   2.372 -0.4474  0.3520  0.1049
25803SOL    HW177987   0.880   8.764   2.299  0.4147  0.4476  0.1312
25803SOL    HW277988   0.900   8.909   2.337  1.6238  0.0562  1.0428
25804SOL     OW77989   3.419   8.862   7.047  0.4197  0.5893  0.0824
25804SOL    HW177990   3.458   8.949   7.038 -2.0116  1.7577  0.0443
25804SOL    HW277991   3.405   8.850   7.141 -0.0392  0.6348  0.0248
25805SOL     OW77992   1.731   0.407   6.230  0.0139  0.2382  0.5234
25805SOL    HW177993   1.764   0.429   6.143  0.9534  0.0048  0.8038
25805SOL    HW277994   1.792   0.339   6.262 -1.0978 -0.6528  0.8238
25806SOL     OW77995   4.378   5.879   4.436  0.2011 -0.0946  0.2726
25806SOL    HW177996   4.459   5.829   4.428  0.5401  0.4879 -0.0178
25806SOL    HW277997   4.395   5.959   4.386  0.4575  1.2813  2.4342
25807SOL     OW77998   5.338   8.568   5.209 -0.7476 -0.1373  0.0225
25807SOL    HW177999   5.350   8.473   5.207  1.3125  0.0208  1.4873
25807SOL    HW278000   5.290   8.585   5.290  0.4194  0.1638  0.6721
25808SOL     OW78001   7.199   6.134   4.793 -0.1677  0.1319 -1.1256
25808SOL    HW178002   7.111   6.111   4.823  0.4998 -0.5117  0.4669
25808SOL    HW278003   7.257   6.105   4.864  1.4855 -0.9423 -2.8194
25809SOL     OW78004   1.189   1.663   2.456  0.2916  0.3325 -0.4980
25809SOL    HW178005   1.195   1.759   2.453  0.3641  0.4196  1.2572
25809SOL    HW278006   1.158   1.644   2.545  1.3666 -1.3210 -0.4372
25810SOL     OW78007   8.302   7.208   0.343  0.2440 -0.2242  0.5581
25810SOL    HW178008   8.228   7.149   0.334 -0.9557  1.1485  1.0496
25810SOL    HW278009   8.344   7.208   0.257  0.5549 -2.1057  0.6767
25811SOL     OW78010   4.682   7.441   5.511 -0.2945  0.1521 -0.0096
25811SOL    HW178011   4.776   7.446   5.530 -0.0091  2.1781 -1.6047
25811SOL    HW278012   4.641   7.435   5.597  1.1615  2.6552  0.9746
25812SOL     OW78013   4.317   0.699   1.770  0.3367 -0.1632  0.0607
25812SOL    HW178014   4.262   0.697   1.692 -1.3826  1.4040  1.1398
25812SOL    HW278015   4.260   0.668   1.840  1.0276  0.8316  1.0955
25813SOL     OW78016   8.888   0.276   7.767  0.4259  0.9310 -0.1318
25813SOL    HW178017   8.847   0.229   7.695  0.1963 -0.5895  0.9542
25813SOL    HW278018   8.982   0.269   7.751  0.3693  2.6989 -1.5442
25814SOL     OW78019   5.591   1.191   9.583 -0.3565  0.2584 -0.2176
25814SOL    HW178020   5.557   1.190   9.673 -0.4523  2.6212 -0.1465
25814SOL    HW278021   5.683   1.213   9.593 -0.1012 -0.6005 -0.6564
25815SOL     OW78022   6.855   3.798   2.724 -0.1932  0.0157 -0.1405
25815SOL    HW178023   6.844   3.736   2.652  0.6461  0.4698 -0.6718
25815SOL    HW278024   6.766   3.813   2.756 -0.8033  1.1434 -2.2104
25816SOL     OW78025   4.849   0.753   8.305 -0.3293  0.3440 -0.2495
25816SOL    HW178026   4.883   0.806   8.232  2.2078 -1.0276 -0.1816
25816SOL    HW278027   4.881   0.799   8.383  1.1784 -0.7633 -0.1742
25817SOL     OW78028   0.514   7.593   4.699 -0.1396  0.5214 -0.2617
25817SOL    HW178029   0.440   7.556   4.650  0.7463  0.5349 -1.6512
25817SOL    HW278030   0.538   7.524   4.761  0.6202 -0.7466 -1.8935
25818SOL     OW78031   0.316   3.036   9.229 -0.6604 -0.5570 -0.9374
25818SOL    HW178032   0.313   3.119   9.276  0.9289 -0.5493 -0.8184
25818SOL    HW278033   0.265   2.976   9.283 -0.3149 -0.1072 -0.0985
25819SOL     OW78034   3.088   5.735   2.514 -0.4243  0.2712  0.2001
25819SOL    HW178035   3.142   5.742   2.435 -1.6381  1.0805 -0.5984
25819SOL    HW278036   2.999   5.748   2.482 -1.0912 -0.9942  1.4889
25820SOL     OW78037   8.594   5.702   2.879  0.3705 -0.1025  0.2035
25820SOL    HW178038   8.575   5.709   2.785  3.1404 -1.0032 -0.5181
25820SOL    HW278039   8.554   5.780   2.918 -0.1251  0.7260 -1.8463
25821SOL     OW78040   6.970   4.568   2.106  0.3904 -0.0131  0.6643
25821SOL    HW178041   6.921   4.513   2.045 -1.2655  1.9696  0.0850
25821SOL    HW278042   6.936   4.543   2.193  0.0249 -0.2649  0.4531
25822SOL     OW78043   4.224   7.568   9.063  0.5265  0.2727  0.0426
25822SOL    HW178044   4.212   7.652   9.019 -1.2815  0.2474  0.3916
25822SOL    HW278045   4.186   7.504   9.002  2.5722 -0.4189 -0.5634
25823SOL     OW78046   0.680   8.885   9.380  0.1397 -0.2082 -0.0659
25823SOL    HW178047   0.659   8.919   9.467 -1.2436 -1.7811  0.2711
25823SOL    HW278048   0.771   8.910   9.365  0.3557  0.2069  1.7760
25824SOL     OW78049   5.393   4.741   7.836  0.0058 -0.2664 -0.0540
25824SOL    HW178050   5.470   4.701   7.796  0.3313 -0.0795  0.3741
25824SOL    HW278051   5.358   4.799   7.769  1.1532  0.8555  0.2739
25825SOL     OW78052   9.479   5.900   2.645  0.1489 -0.2654 -0.0033
25825SOL    HW178053   9.401   5.948   2.672  0.3743 -0.8404  1.7959
25825SOL    HW278054   9.519   5.955   2.577 -2.5897 -0.6829 -2.1090
25826SOL     OW78055   3.488   4.817   0.711 -0.2334 -0.3161 -0.1442
25826SOL    HW178056   3.494   4.858   0.625  0.1564 -0.1987 -0.0594
25826SOL    HW278057   3.543   4.739   0.704  0.2414 -0.0117  0.1697
25827SOL     OW78058   3.563   7.558   6.823 -0.0270  0.3064  0.3254
25827SOL    HW178059   3.651   7.520   6.828 -0.6721 -1.2204  0.8427
25827SOL    HW278060   3.512   7.506   6.885 -0.9777  2.1135  1.1310
25828SOL     OW78061   4.756   7.983   2.735 -0.2051 -0.2993  0.2132
25828SOL    HW178062   4.727   7.917   2.672 -1.2357  1.0780 -0.8450
25828SOL    HW278063   4.808   7.935   2.798 -3.0730 -2.6428  1.0442
25829SOL     OW78064   8.881   6.742   5.885 -0.2714  1.0203 -0.4466
25829SOL    HW178065   8.891   6.649   5.907 -0.8463  1.6800  3.0893
25829SOL    HW278066   8.937   6.754   5.808  1.0948 -1.8840 -0.0379
25830SOL     OW78067   0.196   9.924   5.063  0.8209 -0.1088  0.0024
25830SOL    HW178068   0.121   9.874   5.095  0.6977 -0.9998 -1.5956
25830SOL    HW278069   0.231   9.967   5.141  0.2259 -1.7575  1.2381
25831SOL     OW78070   0.944   5.595   9.183 -0.6655 -0.1593 -0.2261
25831SOL    HW178071   1.036   5.609   9.162 -1.1544  1.6749 -1.3678
25831SOL    HW278072   0.940   5.601   9.279  0.5017 -1.1602 -0.0911
25832SOL     OW78073   8.900   9.345   3.297 -0.3701  0.4134 -0.3323
25832SOL    HW178074   8.960   9.405   3.255 -0.4004  0.0699 -0.8690
25832SOL    HW278075   8.955   9.274   3.329 -0.3604  0.6203  0.1181
25833SOL     OW78076   1.747   9.155   6.931  0.4784 -0.3444  0.4422
25833SOL    HW178077   1.779   9.236   6.971  2.8251 -0.8667 -0.2208
25833SOL    HW278078   1.778   9.160   6.840  0.9599 -2.1172  0.4838
25834SOL     OW78079   0.752   2.390   4.841 -0.2815  0.0426 -0.4913
25834SOL    HW178080   0.665   2.426   4.823  0.2223  2.0254  0.7310
25834SOL    HW278081   0.810   2.436   4.779  0.1454  0.1495 -0.0196
25835SOL     OW78082   7.594   3.930   7.067  0.1576 -0.0288  0.2824
25835SOL    HW178083   7.519   3.964   7.116  0.7138 -0.8113  1.7342
25835SOL    HW278084   7.555   3.876   6.999 -0.6875  2.2592 -1.1722
25836SOL     OW78085   2.532   3.203   0.201  0.1752 -0.2648  0.7051
25836SOL    HW178086   2.574   3.276   0.246  0.4136 -0.5299  0.9227
25836SOL    HW278087   2.474   3.165   0.267 -0.7153  0.3453  0.2823
25837SOL     OW78088   4.931   5.316   5.779 -0.4306 -0.6530 -0.1905
25837SOL    HW178089   5.008   5.369   5.801 -0.6976 -0.5829  0.6209
25837SOL    HW278090   4.891   5.362   5.705  0.4224 -0.8124 -0.7648
25838SOL     OW78091   9.505   3.273   5.717  0.3491  0.4951  0.9195
25838SOL    HW178092   9.551   3.191   5.703 -0.7436 -0.0423  0.3618
25838SOL    HW278093   9.570   3.330   5.758  1.3139 -0.4271  0.7193
25839SOL     OW78094   9.958   1.640   2.947  0.1702 -0.1369 -0.3415
25839SOL    HW178095   9.866   1.663   2.963  0.3016 -0.8414  1.5588
25839SOL    HW278096   9.954   1.569   2.883 -0.4987  0.9946 -1.6153
25840SOL     OW78097   6.164   3.841   3.785 -0.5456  0.7169  0.6395
25840SOL    HW178098   6.230   3.822   3.718 -2.9167  0.5048 -1.7954
25840SOL    HW278099   6.168   3.936   3.797 -1.2941  1.0246 -1.2391
25841SOL     OW78100   9.455   4.080   0.386 -0.8133  0.0765 -0.4670
25841SOL    HW178101   9.385   4.145   0.391  0.4436  1.6473 -1.9834
25841SOL    HW278102   9.534   4.132   0.371  0.5947 -1.6884  0.5523
25842SOL     OW78103   0.130   8.005   1.447  0.6377 -0.0698  0.4030
25842SOL    HW178104   0.141   7.927   1.502  2.4338  0.4069  0.7552
25842SOL    HW278105   0.173   8.075   1.495  0.1607  0.8842 -0.5213
25843SOL     OW78106   8.197   8.076   3.215  0.1755  0.2732 -0.1027
25843SOL    HW178107   8.199   7.997   3.269  0.5252  1.0390  1.0253
25843SOL    HW278108   8.105   8.088   3.193  0.2572 -1.2497 -1.5376
25844SOL     OW78109   0.556   0.240   5.058  0.5460  0.5523  0.0852
25844SOL    HW178110   0.559   0.170   5.123 -0.1258 -0.0969 -0.5619
25844SOL    HW278111   0.646   0.273   5.053  0.6250  0.5255  1.2397
25845SOL     OW78112   7.208   6.496   9.425 -0.1113  0.6606 -0.1656
25845SOL    HW178113   7.273   6.437   9.387  1.0058  1.4854  0.3833
25845SOL    HW278114   7.233   6.502   9.518 -1.8628 -0.1358  0.4040
25846SOL     OW78115   7.777   8.773   3.274  0.1019 -0.2296  0.6753
25846SOL    HW178116   7.816   8.779   3.187 -4.0057 -0.5696 -1.4244
25846SOL    HW278117   7.840   8.722   3.325  1.9056 -1.5950 -2.6056
25847SOL     OW78118   7.241   3.754   3.942 -0.3335 -0.3836 -0.5701
25847SOL    HW178119   7.245   3.763   3.847  0.4074 -1.1638 -0.6279
25847SOL    HW278120   7.192   3.673   3.958  2.0705 -1.9219 -0.4213
25848SOL     OW78121   0.058   0.134   6.529  0.7978 -0.0203 -0.7788
25848SOL    HW178122   0.072   0.148   6.623 -0.4907 -1.2341 -0.3719
25848SOL    HW278123   0.146   0.125   6.493  1.2940 -0.8844  0.5608
25849SOL     OW78124   9.092   1.119   9.669 -0.0591 -0.4558 -0.2068
25849SOL    HW178125   9.106   1.168   9.750  2.3124 -0.4211 -0.5737
25849SOL    HW278126   9.123   1.030   9.689  0.2536 -0.5264 -0.9602
25850SOL     OW78127   0.074   7.678   1.345 -0.3455  0.1383  0.4025
25850SOL    HW178128   0.142   7.617   1.317  1.2027  1.8991  0.1453
25850SOL    HW278129   0.099   7.704   1.433  0.6735  2.4905 -0.4835
25851SOL     OW78130   1.876   5.379   5.413 -0.4581 -0.1429 -0.0490
25851SOL    HW178131   1.971   5.383   5.416 -0.3817 -1.7554  0.8924
25851SOL    HW278132   1.857   5.321   5.339 -0.6509 -0.7928  0.5017
25852SOL     OW78133   2.971   3.911   5.557  0.5021 -0.4410  0.2719
25852SOL    HW178134   2.923   3.908   5.640  0.9774  5.0795  1.1153
25852SOL    HW278135   2.905   3.934   5.492  0.9147  0.4071  0.1427
25853SOL     OW78136   0.701   9.336   8.136 -0.3551 -0.6701  0.0051
25853SOL    HW178137   0.680   9.279   8.211 -0.5598  0.8553  1.1443
25853SOL    HW278138   0.624   9.391   8.126  1.1060  1.7289  1.1566
25854SOL     OW78139   1.893   2.281   3.194  0.1979 -0.2502 -0.0033
25854SOL    HW178140   1.851   2.221   3.256 -0.6763 -0.8635 -1.1523
25854SOL    HW278141   1.971   2.235   3.165  1.2289  0.5111  1.4540
25855SOL     OW78142   1.257   7.027   2.489  0.0984  0.3396  0.7412
25855SOL    HW178143   1.177   7.079   2.496 -1.1005 -1.3945  0.6368
25855SOL    HW278144   1.287   7.017   2.579 -1.2853 -1.1175  1.0934
25856SOL     OW78145   2.448   9.839   0.903 -0.4673  0.1844 -0.6238
25856SOL    HW178146   2.378   9.819   0.841 -0.7465 -1.8428  0.2488
25856SOL    HW278147   2.528   9.816   0.856 -0.4541  1.3551 -1.1990
25857SOL     OW78148   6.231   3.679   6.532 -0.1414 -0.2179  0.4419
25857SOL    HW178149   6.163   3.734   6.571 -1.2173 -2.6849  2.3540
25857SOL    HW278150   6.282   3.738   6.477 -0.9611  2.7125  2.6128
25858SOL     OW78151   9.908   7.047   1.204 -0.4501  0.2241  0.0983
25858SOL    HW178152   9.859   7.128   1.192  0.1927  0.4589 -1.1086
25858SOL    HW278153   9.998   7.075   1.217 -0.5467 -0.2219  1.8945
25859SOL     OW78154   7.780   1.972   5.836  0.2008  0.4177  0.6331
25859SOL    HW178155   7.768   1.881   5.863  0.3844  0.0120 -0.5905
25859SOL    HW278156   7.705   1.991   5.780  1.4612  0.1498 -1.2346
25860SOL     OW78157   5.523   8.127   1.119  0.1750  0.3346  0.2806
25860SOL    HW178158   5.555   8.214   1.095  0.2639  0.6759  1.5473
25860SOL    HW278159   5.573   8.104   1.197  0.2769 -0.9429 -0.1338
25861SOL     OW78160   2.694   3.765   5.166 -0.7770  0.2444  0.7970
25861SOL    HW178161   2.708   3.698   5.099 -2.3076 -0.8773  1.5308
25861SOL    HW278162   2.771   3.757   5.223 -0.3034  0.0200  0.1456
25862SOL     OW78163   4.048   5.073   4.837  0.7933  0.1064  0.7660
25862SOL    HW178164   4.008   5.156   4.812  1.0098 -0.3009 -1.0516
25862SOL    HW278165   3.980   5.007   4.820  1.0952 -0.2296  0.8499
25863SOL     OW78166   6.169   3.570   0.397 -0.4391 -0.0695 -0.5482
25863SOL    HW178167   6.109   3.636   0.362 -1.2496  0.6603  1.9443
25863SOL    HW278168   6.123   3.535   0.474  1.7377 -0.5013  0.6458
25864SOL     OW78169   1.309   1.219   9.241 -0.0334 -0.3402 -0.3913
25864SOL    HW178170   1.267   1.145   9.283 -0.5160  0.1893  0.0611
25864SOL    HW278171   1.283   1.295   9.293  0.3861  0.1596 -0.8987
25865SOL     OW78172   7.069   7.513   7.935  0.3928  0.5922 -0.4287
25865SOL    HW178173   6.980   7.532   7.904  0.2674 -0.7157 -0.9430
25865SOL    HW278174   7.058   7.441   7.996  1.1541 -0.0195 -0.9853
25866SOL     OW78175   5.844   7.651   6.423 -0.0660  0.3473 -0.3766
25866SOL    HW178176   5.936   7.644   6.449 -0.3493  2.1785  1.3781
25866SOL    HW278177   5.847   7.691   6.336  0.7972 -2.1816 -1.6280
25867SOL     OW78178   2.590   5.231   0.605 -1.2542  0.7174  0.3331
25867SOL    HW178179   2.602   5.301   0.540 -1.8863  0.6240  0.1088
25867SOL    HW278180   2.679   5.205   0.628 -0.9388  3.0565  2.0524
25868SOL     OW78181   3.935   6.335   7.496 -0.1123  0.4312  0.4612
25868SOL    HW178182   3.899   6.421   7.519 -3.5293 -0.6359 -0.2587
25868SOL    HW278183   3.912   6.324   7.404 -0.4685 -1.5135  0.7391
25869SOL     OW78184   1.778   7.467   5.393  0.3345 -0.6701  0.1024
25869SOL    HW178185   1.719   7.472   5.468 -1.1692  2.6952 -1.1343
25869SOL    HW278186   1.830   7.547   5.398  0.5548 -0.6133 -2.1284
25870SOL     OW78187   4.301   6.047   2.698  0.0713  0.7934  0.7002
25870SOL    HW178188   4.287   5.954   2.715 -0.5578  0.4829 -1.1790
25870SOL    HW278189   4.381   6.069   2.745  0.3527 -0.7539  0.9923
25871SOL     OW78190   3.182   6.075   6.770 -0.5556 -0.4969  0.7111
25871SOL    HW178191   3.229   6.131   6.708  1.4468 -1.8083  0.9503
25871SOL    HW278192   3.097   6.119   6.782 -1.1433 -0.2583 -3.0531
25872SOL     OW78193   5.467   4.947   1.575 -0.3576  0.0489 -0.2076
25872SOL    HW178194   5.548   4.903   1.547 -0.5657 -1.8132  1.8332
25872SOL    HW278195   5.465   4.934   1.670 -0.8666  3.9517  0.4611
25873SOL     OW78196   0.812   3.570   5.572 -0.3203  0.5324  0.3091
25873SOL    HW178197   0.880   3.589   5.508  2.2270 -1.8841  2.0575
25873SOL    HW278198   0.733   3.612   5.537  1.6883  2.2187 -2.5818
25874SOL     OW78199   0.238   9.238   4.633  0.3269  0.1288 -0.2263
25874SOL    HW178200   0.307   9.291   4.673  1.5653 -0.8572 -0.9837
25874SOL    HW278201   0.158   9.287   4.648  1.3642  1.9690 -0.4895
25875SOL     OW78202   6.137   6.385   1.734  0.2103  0.1396  0.0885
25875SOL    HW178203   6.160   6.344   1.650  0.6143 -0.3932  0.4509
25875SOL    HW278204   6.087   6.317   1.780  0.4667  0.2298  0.5045
25876SOL     OW78205   0.234   7.515   8.569 -0.3649  0.1059  0.1075
25876SOL    HW178206   0.140   7.532   8.570 -0.1517  1.3921  0.4823
25876SOL    HW278207   0.274   7.599   8.593  0.8463 -0.7253  1.1360
25877SOL     OW78208   6.039   2.981   7.937 -0.2603  0.0582 -0.5201
25877SOL    HW178209   6.102   2.962   8.006 -0.6313 -0.9137 -0.4394
25877SOL    HW278210   6.009   2.896   7.907 -1.0329  0.4929 -1.0229
25878SOL     OW78211   3.009   7.590   1.427 -0.0312  0.8807  0.0779
25878SOL    HW178212   2.916   7.612   1.420  0.2458  2.1670  0.0752
25878SOL    HW278213   3.049   7.669   1.463  1.1735  0.6227 -0.6449
25879SOL     OW78214   3.437   9.353   3.535 -0.9216  0.4798 -0.0122
25879SOL    HW178215   3.355   9.306   3.520 -0.4367 -0.6234  0.6970
25879SOL    HW278216   3.426   9.435   3.487 -2.9849  0.9813  1.1674
25880SOL     OW78217   5.159   4.367   8.792  0.1296 -0.7749  0.5908
25880SOL    HW178218   5.150   4.366   8.697  0.8911 -0.0145  0.4994
25880SOL    HW278219   5.153   4.459   8.816  0.5629 -0.8998  1.2167
25881SOL     OW78220   0.265   0.652   7.098  0.4555  0.4756 -0.4941
25881SOL    HW178221   0.325   0.579   7.111  0.0943  0.4619  1.4664
25881SOL    HW278222   0.321   0.730   7.103  0.3906  0.4528  1.0973
25882SOL     OW78223   7.614   0.337   6.673 -0.0982  0.0878 -0.1735
25882SOL    HW178224   7.573   0.276   6.612 -2.5052  3.2856 -2.0461
25882SOL    HW278225   7.700   0.354   6.636 -0.2085 -0.5734 -0.7591
25883SOL     OW78226   7.814   1.208   8.013 -0.0681 -1.4449 -0.8226
25883SOL    HW178227   7.809   1.152   8.091 -0.8224 -0.2224  0.0639
25883SOL    HW278228   7.723   1.227   7.992  0.1507  0.1569 -0.5157
25884SOL     OW78229   1.553   5.849   5.345 -0.3318 -0.4708  0.4174
25884SOL    HW178230   1.626   5.809   5.297  0.5981 -0.0289  1.4364
25884SOL    HW278231   1.501   5.775   5.375 -1.1677 -0.7649 -1.5646
25885SOL     OW78232   8.849   2.236   3.500 -0.0292 -0.1639  0.0543
25885SOL    HW178233   8.785   2.184   3.549 -1.0890  0.0424 -1.0803
25885SOL    HW278234   8.891   2.173   3.442 -2.2896  0.3653 -2.3386
25886SOL     OW78235   1.216   8.064   2.538 -0.6693  0.2605  0.1406
25886SOL    HW178236   1.272   8.141   2.545 -1.4728  0.9211 -0.4035
25886SOL    HW278237   1.195   8.040   2.629  1.8565 -1.0789  0.4540
25887SOL     OW78238   4.403   7.785   5.104  0.0242 -0.2484  0.1857
25887SOL    HW178239   4.486   7.800   5.150  0.5250  1.7387 -1.2245
25887SOL    HW278240   4.423   7.717   5.040  0.4499 -0.0842  0.1398
25888SOL     OW78241   4.055   9.604   6.465  0.4873  0.0978 -0.4284
25888SOL    HW178242   4.020   9.525   6.423 -0.0273  0.5214 -0.7946
25888SOL    HW278243   4.143   9.578   6.493 -0.0981 -0.9817  0.5174
25889SOL     OW78244   4.300   4.227   6.599 -0.1531 -0.1657  0.6894
25889SOL    HW178245   4.280   4.226   6.693 -1.1251 -0.1475  0.4985
25889SOL    HW278246   4.354   4.304   6.586 -1.0341  0.5274  1.0468
25890SOL     OW78247   0.048   3.588   4.372 -0.1575 -0.0481 -0.1070
25890SOL    HW178248   0.130   3.637   4.377 -0.5401  1.1441 -3.3289
25890SOL    HW278249  -0.020   3.653   4.393 -0.4186 -0.3840  0.0948
25891SOL     OW78250   3.682   2.994   7.900 -0.4377  0.2657  0.5692
25891SOL    HW178251   3.590   2.974   7.917 -0.8933  1.3291 -0.4853
25891SOL    HW278252   3.714   2.919   7.850 -0.2421 -0.8870  2.3434
25892SOL     OW78253   3.698   5.418   8.450 -0.0083  0.2837 -0.7770
25892SOL    HW178254   3.700   5.494   8.509  2.1062 -1.2396  1.2910
25892SOL    HW278255   3.771   5.433   8.389 -1.2089  1.0966 -2.0615
25893SOL     OW78256   9.613   1.073   8.864 -0.0298  0.0873  0.0927
25893SOL    HW178257   9.545   1.099   8.925  0.3172  2.4728 -0.4613
25893SOL    HW278258   9.682   1.138   8.875  0.2854  0.2700 -2.3922
25894SOL     OW78259   3.476   4.983   3.827  0.2427 -0.0674  0.2502
25894SOL    HW178260   3.553   4.999   3.882 -0.0639 -0.6701  0.8739
25894SOL    HW278261   3.511   4.977   3.738  0.7769  0.7102  0.4007
25895SOL     OW78262   1.099   6.750   4.072 -0.6954  0.2294  0.0292
25895SOL    HW178263   1.187   6.716   4.054  0.2989  2.5899 -0.0677
25895SOL    HW278264   1.079   6.718   4.160 -1.3227 -3.1968 -1.2094
25896SOL     OW78265   6.547   8.438   5.666 -0.5282  0.1270 -0.3355
25896SOL    HW178266   6.639   8.410   5.675 -0.3164  0.8035 -0.3106
25896SOL    HW278267   6.527   8.480   5.749 -0.3067  1.5173 -0.9525
25897SOL     OW78268   7.451   0.343   2.457 -0.0725  0.1693  0.8720
25897SOL    HW178269   7.416   0.282   2.393 -0.9089  1.2782  0.2413
25897SOL    HW278270   7.435   0.300   2.542 -2.1394  0.1992  0.5586
25898SOL     OW78271   3.610   8.325   5.491 -0.1464 -0.5514 -0.0764
25898SOL    HW178272   3.705   8.323   5.485 -0.0938  1.1743 -0.1141
25898SOL    HW278273   3.588   8.250   5.548  1.2483 -0.6872  0.3111
25899SOL     OW78274   3.478   4.249   4.084  0.1508 -0.5067 -0.4578
25899SOL    HW178275   3.431   4.170   4.058  0.1175  0.0753 -2.3346
25899SOL    HW278276   3.410   4.316   4.092  0.1027 -0.7460  1.6948
25900SOL     OW78277   7.067   7.839   4.924  0.0886  0.1394 -0.0978
25900SOL    HW178278   7.136   7.904   4.921 -1.6271  2.0147 -1.2994
25900SOL    HW278279   7.105   7.761   4.882  2.6278 -0.2432  2.6007
25901SOL     OW78280   3.892   5.032   8.229 -0.5274 -0.4154 -0.1590
25901SOL    HW178281   3.799   5.051   8.213 -0.9005 -0.8321  1.3367
25901SOL    HW278282   3.895   4.938   8.245  0.0918 -0.3375  0.2123
25902SOL     OW78283   6.792   2.801   9.906  0.0178  0.0498  0.3756
25902SOL    HW178284   6.821   2.710   9.920 -1.2905 -0.4274  0.1659
25902SOL    HW278285   6.822   2.822   9.817 -0.2924 -0.4544  0.1413
25903SOL     OW78286   2.220   3.081   9.267  0.4594 -0.3549  0.1240
25903SOL    HW178287   2.297   3.138   9.269 -0.1060  0.4086  0.7114
25903SOL    HW278288   2.159   3.121   9.329 -0.4852 -0.8539 -0.4659
25904SOL     OW78289   6.752   1.881   9.765  0.1238 -0.1798  0.2736
25904SOL    HW178290   6.730   1.954   9.822  0.3232 -1.1784  1.6625
25904SOL    HW278291   6.668   1.839   9.746  0.0318  0.2729 -0.3774
25905SOL     OW78292   2.291   3.670   4.537  0.4431  0.0385  0.6204
25905SOL    HW178293   2.338   3.751   4.556 -0.5215  1.1851 -1.5849
25905SOL    HW278294   2.351   3.600   4.564  2.0717  1.4679  0.8140
25906SOL     OW78295   7.576   5.390   8.680  0.1377  0.0341  0.2512
25906SOL    HW178296   7.568   5.310   8.628 -0.0096  0.3405 -0.2020
25906SOL    HW278297   7.505   5.446   8.649  0.5886  0.5626  0.1615
25907SOL     OW78298   2.609   2.193   7.293 -0.2237 -0.6148  0.0230
25907SOL    HW178299   2.674   2.233   7.350  0.1260 -0.8673 -0.1887
25907SOL    HW278300   2.634   2.220   7.205 -1.8411  1.2996  0.0983
25908SOL     OW78301   1.632   8.171   7.302  0.1920  0.1650  0.1518
25908SOL    HW178302   1.551   8.121   7.311 -0.0900  0.3369 -1.2619
25908SOL    HW278303   1.625   8.239   7.369 -0.8021  0.1233  0.1066
25909SOL     OW78304   0.915   4.263   8.320 -0.0138 -0.0626  0.4564
25909SOL    HW178305   0.881   4.210   8.392 -0.0734  0.3724  0.7502
25909SOL    HW278306   1.006   4.279   8.343  0.5070 -1.4570 -0.4630
25910SOL     OW78307   0.691   1.844   6.743  0.2485 -0.1680  0.6813
25910SOL    HW178308   0.734   1.761   6.722 -1.0548 -0.6814 -0.0117
25910SOL    HW278309   0.685   1.844   6.839 -0.0054 -1.0071  0.6693
25911SOL     OW78310   5.959   4.071   7.397 -0.3280  0.1661 -0.1039
25911SOL    HW178311   5.877   4.061   7.349 -0.8975 -0.3378  0.9368
25911SOL    HW278312   5.943   4.028   7.481  1.2136 -0.4799 -0.1114
25912SOL     OW78313   2.616   2.488   9.102 -0.8382 -0.2152  0.5675
25912SOL    HW178314   2.588   2.579   9.106 -1.3263 -0.2427 -1.1632
25912SOL    HW278315   2.545   2.439   9.145 -0.7931  0.1710  1.0893
25913SOL     OW78316   0.149   3.074   6.186 -0.0859 -0.3880 -0.0458
25913SOL    HW178317   0.055   3.093   6.185 -0.1243 -0.2468  1.9360
25913SOL    HW278318   0.191   3.160   6.188 -0.0301 -0.4252  1.6783
25914SOL     OW78319   8.974   6.651   2.669 -0.1891 -0.0200  0.2483
25914SOL    HW178320   9.026   6.625   2.745  0.7755 -3.2056 -1.3322
25914SOL    HW278321   9.017   6.729   2.636  1.2265 -0.3582  1.2063
25915SOL     OW78322   8.201   8.474   0.616 -0.4884 -0.1783 -0.5141
25915SOL    HW178323   8.168   8.440   0.532  0.4850  1.9951 -1.8675
25915SOL    HW278324   8.294   8.455   0.614 -0.6458 -1.1891  0.6784
25916SOL     OW78325   3.497   5.301   0.739  0.1626  0.1600 -0.2181
25916SOL    HW178326   3.551   5.348   0.676 -1.5442 -0.3467 -2.1682
25916SOL    HW278327   3.553   5.229   0.769  1.5211  1.2674  0.0262
25917SOL     OW78328   6.814   5.674   4.549 -0.0715  0.6242 -0.2705
25917SOL    HW178329   6.778   5.607   4.492  0.5753  1.6234 -1.9376
25917SOL    HW278330   6.784   5.651   4.636 -2.6753  0.0596 -1.2378
25918SOL     OW78331   1.070   4.924   0.104 -0.5610  0.0914 -0.3747
25918SOL    HW178332   1.047   4.832   0.115  0.8027 -0.4619 -1.7709
25918SOL    HW278333   1.134   4.941   0.173  1.8068 -1.0526 -2.1513
25919SOL     OW78334   6.819   4.653   4.477 -0.3660 -0.0716 -0.4492
25919SOL    HW178335   6.787   4.666   4.387 -0.2736  1.2333 -0.3065
25919SOL    HW278336   6.911   4.678   4.473 -0.5472  0.7153  0.1667
25920SOL     OW78337   4.139   3.727   4.161  0.2871  0.1812  0.4374
25920SOL    HW178338   4.165   3.704   4.072 -0.6097  0.6530  0.0422
25920SOL    HW278339   4.172   3.655   4.215  1.2943  0.1417 -0.1946
25921SOL     OW78340   8.503   4.863   7.134 -0.3527 -0.1902  0.3017
25921SOL    HW178341   8.562   4.928   7.096 -1.4883  0.8736  0.2795
25921SOL    HW278342   8.420   4.910   7.145 -1.1023 -1.5418  0.6377
25922SOL     OW78343   1.405   6.491   8.169  0.6282 -0.3631 -0.4372
25922SOL    HW178344   1.335   6.549   8.140  1.9735  0.6385 -1.8305
25922SOL    HW278345   1.380   6.404   8.136  0.5923  0.1902 -1.9315
25923SOL     OW78346   6.609   3.509   3.850  0.2183  0.0394 -0.0120
25923SOL    HW178347   6.695   3.546   3.831  0.1186 -0.1354 -0.8289
25923SOL    HW278348   6.601   3.515   3.945  0.9262  0.5087  0.0241
25924SOL     OW78349   8.613   7.511   9.642 -0.3290  0.4162  0.3903
25924SOL    HW178350   8.644   7.538   9.729 -0.7121  0.1311  0.6219
25924SOL    HW278351   8.693   7.497   9.591 -0.0150 -1.0789  1.2062
25925SOL     OW78352   0.312   0.408   2.502 -0.0704 -0.1980 -0.0763
25925SOL    HW178353   0.318   0.489   2.451 -0.6800 -0.8074 -1.1544
25925SOL    HW278354   0.231   0.419   2.553 -0.6314 -0.4754 -0.8820
25926SOL     OW78355   9.882   6.304   6.378 -0.1436  0.6064  0.6165
25926SOL    HW178356   9.892   6.366   6.306  1.9858 -1.5529 -1.0806
25926SOL    HW278357   9.952   6.326   6.439  0.4079  0.1121  0.1721
25927SOL     OW78358   7.638   6.596   2.285 -0.2211  0.2236 -0.0052
25927SOL    HW178359   7.609   6.687   2.289 -0.6346  0.0481  1.6607
25927SOL    HW278360   7.701   6.594   2.213 -0.6008  1.7058 -0.4042
25928SOL     OW78361   2.634   7.165   5.291 -0.2982  0.0870 -0.3226
25928SOL    HW178362   2.658   7.210   5.372  2.2265 -0.7675 -0.5056
25928SOL    HW278363   2.544   7.137   5.305 -0.4586  1.3750  1.5343
25929SOL     OW78364   8.451   3.250   0.959 -0.0590 -0.2873  1.0636
25929SOL    HW178365   8.439   3.235   0.865  1.3052 -0.5374  0.9119
25929SOL    HW278366   8.426   3.166   1.000 -0.8232 -0.1221  0.9532
25930SOL     OW78367   5.366   9.764   7.342 -0.7541 -0.2940  0.3190
25930SOL    HW178368   5.391   9.856   7.335 -1.5140 -0.1045 -0.1139
25930SOL    HW278369   5.390   9.738   7.430  1.2847 -0.2454 -0.1809
25931SOL     OW78370   4.440   9.224   9.538 -0.3988  0.1155 -0.0907
25931SOL    HW178371   4.364   9.250   9.485 -0.7806  1.2426  0.9769
25931SOL    HW278372   4.428   9.130   9.552 -0.9227  0.0368 -0.9914
25932SOL     OW78373   6.664   8.131   5.876  0.1706  0.5433 -0.2953
25932SOL    HW178374   6.652   8.137   5.781 -1.1155 -0.3591 -0.1982
25932SOL    HW278375   6.631   8.215   5.909  0.2177  0.6866 -0.5992
25933SOL     OW78376   4.605   8.334   2.244 -0.0423 -0.2499  0.1150
25933SOL    HW178377   4.601   8.310   2.337 -0.1197  0.2798  0.2557
25933SOL    HW278378   4.581   8.427   2.243  1.4267  0.1514 -0.2640
25934SOL     OW78379   5.323   8.027   3.260 -0.2029  0.4045 -0.7211
25934SOL    HW178380   5.338   8.032   3.355  1.1644  1.4181 -0.9473
25934SOL    HW278381   5.270   8.105   3.241  0.2465  0.6753 -0.8886
25935SOL     OW78382   0.807   7.793   0.028 -0.5849 -0.1136  0.2197
25935SOL    HW178383   0.874   7.726   0.035 -0.7194 -0.4597 -1.3899
25935SOL    HW278384   0.782   7.813   0.118  0.1572 -1.5163  0.7472
25936SOL     OW78385   3.400   2.296   4.877 -0.4191  0.4836 -0.7234
25936SOL    HW178386   3.370   2.206   4.865 -1.5597  0.4287  2.0060
25936SOL    HW278387   3.324   2.350   4.854  0.1341  0.7858 -1.9484
25937SOL     OW78388   9.852   4.107   1.131  0.0072 -0.4570  0.1488
25937SOL    HW178389   9.792   4.113   1.058  0.1226 -1.8827 -0.0874
25937SOL    HW278390   9.938   4.093   1.091  0.3398  0.4181  0.5187
25938SOL     OW78391   0.154   3.239   4.259  0.2241  0.1195 -0.2851
25938SOL    HW178392   0.197   3.228   4.344 -0.4690  0.2873  0.0955
25938SOL    HW278393   0.064   3.261   4.281  0.1308  0.5508 -1.0643
25939SOL     OW78394   9.075   7.253   2.362  0.1694  0.1842  0.0301
25939SOL    HW178395   9.078   7.157   2.353 -0.9611  0.2242 -1.0320
25939SOL    HW278396   9.047   7.284   2.276  1.0255  1.5194  0.2101
25940SOL     OW78397   6.640   2.347   6.373  0.1340  0.0850  0.3860
25940SOL    HW178398   6.645   2.264   6.325 -0.2298 -0.8608  1.9103
25940SOL    HW278399   6.729   2.360   6.408  0.5160  1.0014 -0.8633
25941SOL     OW78400   3.638   1.879   7.334  0.0566 -0.0952  0.2960
25941SOL    HW178401   3.624   1.822   7.409  1.1478  0.4182  0.9046
25941SOL    HW278402   3.729   1.908   7.341  1.1413 -2.1869 -2.7129
25942SOL     OW78403   3.812   8.142   8.757  0.4009  0.1838  0.5867
25942SOL    HW178404   3.803   8.201   8.832  0.1487  0.3968  0.3918
25942SOL    HW278405   3.902   8.155   8.728  0.2287  0.7852  0.2940
25943SOL     OW78406   8.055   8.049   1.202  0.1014 -0.1101  0.3121
25943SOL    HW178407   8.037   8.142   1.194 -1.1499 -0.4408 -1.1093
25943SOL    HW278408   8.146   8.045   1.231  0.0790  1.5428  0.7140
25944SOL     OW78409   5.733   6.943   9.122 -0.4267 -0.0698 -0.2916
25944SOL    HW178410   5.803   6.878   9.117 -0.3900 -0.0631  0.1027
25944SOL    HW278411   5.680   6.916   9.197 -0.1124  0.6455  0.2007
25945SOL     OW78412   1.449   2.018   7.371  0.5842 -0.0304 -0.3370
25945SOL    HW178413   1.413   2.106   7.355  1.4393  0.6161  1.0577
25945SOL    HW278414   1.503   2.000   7.294  1.7821  1.4357  0.1113
25946SOL     OW78415   5.833   4.339   4.635  0.0849 -0.2915 -0.6436
25946SOL    HW178416   5.845   4.354   4.728  0.6762  0.2728 -0.7979
25946SOL    HW278417   5.806   4.425   4.601 -1.1787 -0.7515 -0.8278
25947SOL     OW78418   1.815   3.331   6.457 -0.1830 -0.3428  0.1657
25947SOL    HW178419   1.725   3.356   6.476  0.2271  0.5347  1.0370
25947SOL    HW278420   1.861   3.414   6.443  0.5234 -0.7681 -0.1114
25948SOL     OW78421   3.410   5.152   6.675 -0.1227 -0.0425 -0.0547
25948SOL    HW178422   3.429   5.105   6.594 -1.1919  0.7124 -0.7669
25948SOL    HW278423   3.496   5.167   6.715  0.4504 -0.1128 -1.2309
25949SOL     OW78424   2.657   0.544   4.460 -0.3044  0.5548  0.2641
25949SOL    HW178425   2.741   0.584   4.484  0.1934 -0.2668 -0.0502
25949SOL    HW278426   2.681   0.474   4.399 -1.0761 -0.6445  1.2909
25950SOL     OW78427   3.916   5.212   1.014 -0.2521 -0.1851 -0.5169
25950SOL    HW178428   3.893   5.171   1.097  0.0130  0.3630 -0.1758
25950SOL    HW278429   4.011   5.213   1.012 -0.0723  3.7333  1.1885
25951SOL     OW78430   1.107   1.502   0.460 -0.3425 -0.3910 -0.0784
25951SOL    HW178431   1.181   1.547   0.420 -1.4841  1.2880 -0.4298
25951SOL    HW278432   1.030   1.540   0.417 -1.4348 -4.5914 -2.3775
25952SOL     OW78433   4.390   1.057   5.280  0.5025 -0.3723 -0.0753
25952SOL    HW178434   4.394   1.081   5.373  2.5715 -0.7098 -0.0331
25952SOL    HW278435   4.365   1.138   5.236  0.0991 -0.0490  0.7189
25953SOL     OW78436   3.235   3.092   9.090  0.1122  0.1555  0.0812
25953SOL    HW178437   3.247   3.172   9.038  1.5519 -0.0352  0.0719
25953SOL    HW278438   3.259   3.021   9.030  0.0256 -0.1944  0.4568
25954SOL     OW78439   9.564   2.694   6.952  0.5694 -0.2336 -0.4437
25954SOL    HW178440   9.500   2.664   7.018 -0.0455 -1.4498 -1.5451
25954SOL    HW278441   9.568   2.789   6.964  0.8204 -0.4519  1.6331
25955SOL     OW78442   5.612   9.465   7.139  0.2443 -0.4011  0.5612
25955SOL    HW178443   5.576   9.376   7.142 -0.5476 -0.0737  2.3776
25955SOL    HW278444   5.610   9.494   7.230 -0.9347  2.0450 -0.1773
25956SOL     OW78445   9.182   3.628   6.908 -0.0055  0.0170  0.0069
25956SOL    HW178446   9.275   3.609   6.891  0.2491  2.0688 -1.2922
25956SOL    HW278447   9.134   3.576   6.844  0.4318  0.6955 -0.9084
25957SOL     OW78448   8.808   7.425   6.109  0.6817  0.1859  0.0176
25957SOL    HW178449   8.834   7.380   6.028 -0.6822  0.5659 -0.6739
25957SOL    HW278450   8.826   7.363   6.178 -0.3128 -1.0967 -0.8310
25958SOL     OW78451   4.676   7.893   3.731  0.5579  0.3268 -0.0838
25958SOL    HW178452   4.589   7.907   3.768 -0.2503  3.5151 -2.7088
25958SOL    HW278453   4.675   7.802   3.702 -1.4856 -0.0267  0.8685
25959SOL     OW78454   0.082   2.695   4.054  0.5786 -0.0868  0.5077
25959SOL    HW178455   0.045   2.783   4.060  1.5821  0.3309  0.7429
25959SOL    HW278456   0.009   2.637   4.077 -0.3168  0.6291 -0.4047
25960SOL     OW78457   6.079   2.958   0.712  0.2662 -0.2447 -0.1446
25960SOL    HW178458   6.117   2.905   0.642  1.4307  0.7705 -0.3070
25960SOL    HW278459   6.050   3.038   0.669 -0.3853 -0.2419  0.2911
25961SOL     OW78460   2.549   0.125   6.596 -0.8748  0.4686  0.4236
25961SOL    HW178461   2.605   0.128   6.674  1.9490  0.3736 -1.4406
25961SOL    HW278462   2.547   0.032   6.573 -0.3952  0.6653 -0.4449
25962SOL     OW78463   7.775   2.512   2.849 -0.0956  0.2320 -0.1229
25962SOL    HW178464   7.818   2.526   2.933 -1.5028  0.8191  0.5274
25962SOL    HW278465   7.725   2.431   2.860  0.8042 -0.4633 -0.8849
25963SOL     OW78466   3.089   4.301   8.672 -0.0068 -0.4879  0.1515
25963SOL    HW178467   3.133   4.318   8.589 -0.1648  2.6609  0.5897
25963SOL    HW278468   3.158   4.313   8.738  0.0489 -2.6711  0.5808
25964SOL     OW78469   6.445   6.855   2.774  0.2650  0.2173  0.4411
25964SOL    HW178470   6.535   6.875   2.749  0.7737 -0.2156  1.8619
25964SOL    HW278471   6.453   6.788   2.842 -1.2532 -2.1046 -1.5041
25965SOL     OW78472   1.054   9.146   6.986 -0.7890 -0.4762  0.1099
25965SOL    HW178473   1.088   9.169   6.900  1.3294  1.5471  1.3538
25965SOL    HW278474   1.041   9.051   6.983  0.7915 -0.6860 -1.8962
25966SOL     OW78475   6.000   1.514   5.980  0.0621 -0.0992  0.2532
25966SOL    HW178476   5.984   1.571   5.905  0.2063 -0.5867 -0.1530
25966SOL    HW278477   5.923   1.457   5.984  0.0030 -0.0055  0.5491
25967SOL     OW78478   6.289   4.219   1.004 -0.3892  0.4751 -0.5249
25967SOL    HW178479   6.237   4.181   0.933  1.4514 -0.9411 -1.1842
25967SOL    HW278480   6.328   4.297   0.965 -0.4160  0.4219 -0.6578
25968SOL     OW78481   8.116   5.059   4.241  0.0930  0.3200  0.3175
25968SOL    HW178482   8.175   5.130   4.216 -0.2674 -0.0503 -1.8252
25968SOL    HW278483   8.035   5.102   4.266  0.5598  0.7322  1.1666
25969SOL     OW78484   8.427   6.096   5.541 -0.1173 -0.0759  0.2826
25969SOL    HW178485   8.503   6.039   5.552 -0.0894 -0.5648 -2.0182
25969SOL    HW278486   8.370   6.073   5.615  0.9794 -1.2942  0.7939
25970SOL     OW78487   6.321   6.511   5.972  0.0576 -0.8429  0.0662
25970SOL    HW178488   6.238   6.507   6.019  0.5262 -0.9024  0.8959
25970SOL    HW278489   6.337   6.422   5.942  0.3649 -1.0636  0.8666
25971SOL     OW78490   6.048   8.810   2.412  0.1248 -0.1628  0.2820
25971SOL    HW178491   6.057   8.718   2.438 -1.3340 -0.6820 -0.9660
25971SOL    HW278492   5.959   8.834   2.437 -0.6957 -0.1288 -2.3757
25972SOL     OW78493   7.183   1.637   1.051  0.5980  0.3631 -0.3089
25972SOL    HW178494   7.171   1.721   1.095 -0.3684  0.2485 -0.3232
25972SOL    HW278495   7.265   1.602   1.086  0.0417  0.4470  1.1376
25973SOL     OW78496   0.898   2.494   2.153  0.0089  0.5388  0.2635
25973SOL    HW178497   0.919   2.402   2.139  0.2452  0.3818  1.5750
25973SOL    HW278498   0.804   2.499   2.135 -0.0582 -0.0143  0.4333
25974SOL     OW78499   5.903   1.285   4.106 -0.0681  0.4596 -0.5501
25974SOL    HW178500   5.833   1.242   4.155  0.0376  0.7577 -0.1330
25974SOL    HW278501   5.944   1.344   4.169  0.9631 -0.1654 -0.5992
25975SOL     OW78502   8.774   6.162   2.485 -0.1772  0.2161 -0.2132
25975SOL    HW178503   8.790   6.229   2.419 -1.9926  0.4860 -0.4158
25975SOL    HW278504   8.796   6.080   2.442  0.6236  0.5433 -0.4547
25976SOL     OW78505   0.625   8.507   4.681  0.8841  0.0178  0.1946
25976SOL    HW178506   0.605   8.415   4.660 -2.3247  1.0712 -2.0853
25976SOL    HW278507   0.706   8.525   4.634 -0.1978 -0.8519 -2.1652
25977SOL     OW78508   8.870   8.343   8.599  0.2957 -0.1829  0.1103
25977SOL    HW178509   8.820   8.264   8.619  0.7903 -0.1552  1.5647
25977SOL    HW278510   8.888   8.382   8.684  0.3536  1.3341 -0.5638
25978SOL     OW78511   9.131   0.074   1.408  0.1983 -0.3718  0.8252
25978SOL    HW178512   9.053   0.128   1.421  0.9000  1.0022 -0.3037
25978SOL    HW278513   9.183   0.124   1.344  1.2656 -2.0111  0.3666
25979SOL     OW78514   9.216   1.763   0.381  0.2476 -0.3188 -0.2834
25979SOL    HW178515   9.144   1.742   0.441  0.1303  0.4939 -0.1341
25979SOL    HW278516   9.292   1.775   0.438  0.4988 -1.1112 -0.4353
25980SOL     OW78517   4.158   4.154   4.622  0.4379  0.2390  0.6383
25980SOL    HW178518   4.087   4.218   4.620  1.6384  1.6502 -1.4032
25980SOL    HW278519   4.238   4.207   4.616  1.5054 -1.4205 -0.9385
25981SOL     OW78520   2.446   6.830   5.254  0.2322 -0.3500  0.2110
25981SOL    HW178521   2.483   6.743   5.265 -0.6218 -0.8842 -0.9324
25981SOL    HW278522   2.354   6.815   5.231  0.2315  0.8078 -0.6736
25982SOL     OW78523   5.861   0.806   9.107  0.7314 -0.3510  0.1780
25982SOL    HW178524   5.821   0.719   9.113  1.1688 -0.5752 -0.1335
25982SOL    HW278525   5.934   0.795   9.047 -0.0829  0.5695 -1.0185
25983SOL     OW78526   3.356   2.866   9.198  0.3202  0.6429  0.0677
25983SOL    HW178527   3.432   2.818   9.164 -0.1112  1.5885 -2.4738
25983SOL    HW278528   3.298   2.876   9.122 -1.4700  1.6230  1.4842
25984SOL     OW78529   9.418   8.918   1.918 -0.8445  0.2885 -0.6910
25984SOL    HW178530   9.423   8.829   1.882 -1.7759  0.2797 -0.8162
25984SOL    HW278531   9.326   8.931   1.938 -0.3764  0.2762  1.7645
25985SOL     OW78532   9.947   7.557   8.575  0.0933 -0.1677  0.5411
25985SOL    HW178533   9.910   7.579   8.660 -0.8541  0.7683 -0.0799
25985SOL    HW278534   9.908   7.472   8.553 -2.1586  0.9773 -0.2895
25986SOL     OW78535   8.743   2.918   2.539  0.2608  0.1840 -0.2844
25986SOL    HW178536   8.706   2.917   2.451 -0.8909  0.1951  0.1840
25986SOL    HW278537   8.751   3.010   2.561  1.1231  0.1949 -0.5951
25987SOL     OW78538   0.594   1.745   4.978  0.3391 -0.2223 -0.5719
25987SOL    HW178539   0.531   1.807   5.015  1.8231  1.9091 -1.4198
25987SOL    HW278540   0.679   1.787   4.992  1.3368 -1.7377 -1.8558
25988SOL     OW78541   6.798   3.491   7.884 -0.0225 -0.6379 -0.2232
25988SOL    HW178542   6.776   3.452   7.800 -2.6249  2.5356 -1.2001
25988SOL    HW278543   6.798   3.585   7.868  0.0764  0.0837  3.1866
25989SOL     OW78544   8.819   1.207   8.546 -0.7478  0.7477  0.7168
25989SOL    HW178545   8.814   1.236   8.455 -0.5276 -2.2002 -0.3294
25989SOL    HW278546   8.766   1.128   8.549 -2.0468  1.5794  3.5981
25990SOL     OW78547   2.289   7.776   6.923  0.2149  0.1370  0.1345
25990SOL    HW178548   2.352   7.787   6.995  1.0200  1.5971 -0.7530
25990SOL    HW278549   2.204   7.778   6.966  0.7102 -1.4892  1.3166
25991SOL     OW78550   7.172   4.391   6.867 -0.7267  0.2870  0.5463
25991SOL    HW178551   7.095   4.365   6.817 -0.8862  1.7868 -0.0409
25991SOL    HW278552   7.138   4.449   6.936 -0.2338  0.1588  0.9075
25992SOL     OW78553   5.820   5.703   1.424  0.4338 -0.6006 -0.3909
25992SOL    HW178554   5.807   5.671   1.335  0.7064  1.5701 -1.2802
25992SOL    HW278555   5.846   5.625   1.474 -1.1410 -2.1432 -1.8469
25993SOL     OW78556   9.119   9.903   8.307 -0.1660 -0.5796 -0.2126
25993SOL    HW178557   9.114   9.999   8.301 -0.2771 -0.6243 -0.9109
25993SOL    HW278558   9.076   9.882   8.390  2.7713  0.2076  1.6542
25994SOL     OW78559   7.913   4.718   8.600 -0.2858 -0.0349 -0.0507
25994SOL    HW178560   7.914   4.765   8.684 -0.7561  0.8849 -0.5423
25994SOL    HW278561   7.999   4.736   8.562 -0.6940  0.9941 -0.5249
25995SOL     OW78562   6.032   5.608   2.350 -0.4332 -0.0568  0.1281
25995SOL    HW178563   5.947   5.647   2.370  0.3127  1.6715  0.0337
25995SOL    HW278564   6.024   5.517   2.380 -2.9506 -0.5304 -1.6090
25996SOL     OW78565   2.678   0.389   8.484  0.3657  0.4928 -0.3983
25996SOL    HW178566   2.687   0.482   8.504  2.5935  0.4296 -0.8509
25996SOL    HW278567   2.764   0.352   8.504 -0.5498 -1.5321  0.0302
25997SOL     OW78568   0.552   3.410   8.158  0.3666  0.2575  0.0883
25997SOL    HW178569   0.601   3.384   8.236  0.6396 -0.3899 -0.2867
25997SOL    HW278570   0.523   3.327   8.120  0.2079  0.5702 -0.4794
25998SOL     OW78571   0.336   0.723   4.579  0.3710 -0.2063 -0.2876
25998SOL    HW178572   0.329   0.676   4.663  0.0408 -0.0203 -0.2098
25998SOL    HW278573   0.354   0.813   4.604 -2.3393  0.4358 -0.2902
25999SOL     OW78574   9.013   3.968   5.290  0.0449 -0.3620 -0.1415
25999SOL    HW178575   9.094   3.983   5.241  0.6384  2.3370  1.4556
25999SOL    HW278576   8.945   4.008   5.236 -0.0574 -1.5058 -0.8863
26000SOL     OW78577   1.697   7.755   8.370 -0.0477 -0.3100  0.1336
26000SOL    HW178578   1.719   7.779   8.459  1.0176  0.4916 -0.3326
26000SOL    HW278579   1.771   7.784   8.317 -0.8712 -0.3230 -1.0814
26001SOL     OW78580   5.711   5.410   3.336 -0.5925  0.5482  0.1317
26001SOL    HW178581   5.664   5.414   3.419 -1.5312 -0.5067 -0.3194
26001SOL    HW278582   5.656   5.458   3.274  0.9260  2.8297  0.4372
26002SOL     OW78583   0.521   9.131   7.779 -0.2439 -0.4057 -0.2597
26002SOL    HW178584   0.521   9.153   7.686 -3.0713  1.1902  0.0062
26002SOL    HW278585   0.594   9.180   7.816  1.1419 -1.3321 -1.6120
26003SOL     OW78586   3.066   9.273   1.948  0.3813  0.2119 -0.2658
26003SOL    HW178587   3.033   9.299   1.862 -0.8144  1.9757  0.6532
26003SOL    HW278588   3.161   9.268   1.937  0.1915 -0.4821 -1.8788
26004SOL     OW78589   1.335   7.619   0.356  0.5144  0.1869 -0.3740
26004SOL    HW178590   1.249   7.589   0.324  0.6513  0.7261 -1.2793
26004SOL    HW278591   1.346   7.575   0.440 -0.8848  0.4929  0.0001
26005SOL     OW78592   7.935   1.115   1.916  0.0756  0.0100 -0.1667
26005SOL    HW178593   7.957   1.167   1.993  0.0431 -0.0569 -0.1124
26005SOL    HW278594   7.953   1.024   1.942  0.7004  0.0409 -0.4493
26006SOL     OW78595   4.526   3.172   7.313  0.4922  0.5648 -0.4236
26006SOL    HW178596   4.567   3.149   7.397  0.9791 -0.4800 -0.9194
26006SOL    HW278597   4.543   3.265   7.303  1.4738  0.4634  0.0977
26007SOL     OW78598   3.002   5.332   1.353 -0.5414  0.5965 -0.0902
26007SOL    HW178599   3.061   5.400   1.319  0.6641  0.3635  1.3868
26007SOL    HW278600   3.061   5.264   1.387 -1.7040 -0.5082 -0.2071
26008SOL     OW78601   7.353   0.734   4.340  0.2796  0.3835 -0.3072
26008SOL    HW178602   7.319   0.767   4.424  0.6800 -0.4510  0.1990
26008SOL    HW278603   7.348   0.809   4.281  3.0853  2.0475  1.3229
26009SOL     OW78604   8.094   1.432   7.820  0.2242  0.1100  0.5180
26009SOL    HW178605   8.175   1.449   7.771 -1.3865 -1.2267 -2.9556
26009SOL    HW278606   8.093   1.337   7.832 -1.3079 -0.0369 -0.5431
26010SOL     OW78607   7.365   8.855   3.288 -0.0018 -0.4679  0.4363
26010SOL    HW178608   7.373   8.788   3.356  0.6259 -1.0344 -0.1789
26010SOL    HW278609   7.272   8.857   3.266 -0.5699  1.1192  2.6762
26011SOL     OW78610   1.845   6.683   5.485 -0.3440  0.3046 -0.1463
26011SOL    HW178611   1.896   6.754   5.524 -0.2973  0.0820  0.2072
26011SOL    HW278612   1.763   6.684   5.534 -0.5829  0.4982 -0.5435
26012SOL     OW78613   4.342   0.117   9.877  0.2740  0.4987  0.1743
26012SOL    HW178614   4.316   0.166   9.955 -1.2793 -2.3551  1.6299
26012SOL    HW278615   4.260   0.097   9.833  1.0819  1.4292 -1.8575
26013SOL     OW78616   9.793   0.365   5.304  0.3399  0.0878 -0.2047
26013SOL    HW178617   9.746   0.355   5.386  0.2502 -1.5172 -0.4125
26013SOL    HW278618   9.879   0.400   5.330 -0.2313  1.0917  0.3841
26014SOL     OW78619   2.271   4.536   3.615 -0.2085 -0.3002 -0.2801
26014SOL    HW178620   2.181   4.552   3.646 -0.2244 -2.2863  0.8709
26014SOL    HW278621   2.326   4.569   3.685 -0.0429  0.4668 -0.7656
26015SOL     OW78622   3.502   3.039   1.068 -0.0393  0.2544 -0.1859
26015SOL    HW178623   3.546   3.091   1.136  0.1432 -1.4444  1.0762
26015SOL    HW278624   3.573   2.998   1.019 -0.1905  0.2238 -0.3806
26016SOL     OW78625   8.153   4.110   7.227 -0.3158 -0.3535 -0.7756
26016SOL    HW178626   8.067   4.078   7.202  0.2828 -1.3435 -1.6327
26016SOL    HW278627   8.174   4.178   7.163 -1.3265  1.4224  0.6834
26017SOL     OW78628   1.209   1.522   8.902 -0.4454  0.2700  0.1209
26017SOL    HW178629   1.223   1.430   8.923 -0.7946  0.2603  0.3193
26017SOL    HW278630   1.163   1.557   8.979  0.9632  0.9533  0.6818
26018SOL     OW78631   2.132   2.262   7.028  0.0772  0.6915 -0.3847
26018SOL    HW178632   2.087   2.272   7.111 -0.7326 -1.2490 -0.5263
26018SOL    HW278633   2.170   2.174   7.032  1.5277  1.2411 -1.3756
26019SOL     OW78634   6.625   8.028   8.290 -0.2659  1.2035  0.1433
26019SOL    HW178635   6.638   8.109   8.241 -1.0112  1.6281  0.6216
26019SOL    HW278636   6.661   8.047   8.377  0.3960  0.7015 -0.0154
26020SOL     OW78637   3.737   1.811   8.184 -0.3264 -0.2682  0.4233
26020SOL    HW178638   3.688   1.893   8.172 -1.2578 -0.7627  0.7305
26020SOL    HW278639   3.690   1.747   8.131  2.1720  0.0064 -2.3645
26021SOL     OW78640   5.900   9.536   4.608 -0.0529 -0.3801  0.1593
26021SOL    HW178641   5.864   9.460   4.563  0.0147 -0.7595  0.7304
26021SOL    HW278642   5.955   9.499   4.678 -0.0038  0.1910  0.4325
26022SOL     OW78643   6.539   1.184   5.241  0.0618  0.3823  0.2907
26022SOL    HW178644   6.507   1.160   5.327 -0.9889  1.3431  0.1907
26022SOL    HW278645   6.476   1.248   5.209 -1.1530 -1.8991 -2.3349
26023SOL     OW78646   2.168   4.505   5.132 -0.2241 -0.7334 -0.2787
26023SOL    HW178647   2.125   4.420   5.137 -1.1196 -0.3616 -1.2517
26023SOL    HW278648   2.258   4.485   5.107  0.1946 -1.5196  1.7292
26024SOL     OW78649   5.460   9.025   0.220  0.1231  0.2256  0.2363
26024SOL    HW178650   5.389   8.962   0.206  0.6757 -0.7257  1.5078
26024SOL    HW278651   5.523   9.006   0.151  0.8103 -1.4346  1.2650
26025SOL     OW78652   3.355   2.713   0.472 -0.4795  0.4638  0.0713
26025SOL    HW178653   3.348   2.656   0.396 -1.4868 -0.4841  0.8424
26025SOL    HW278654   3.284   2.777   0.461 -0.1869  0.7562 -0.1288
26026SOL     OW78655   8.570   3.688   7.824  0.2445 -0.6492  0.5049
26026SOL    HW178656   8.486   3.708   7.866  0.0146  0.2449 -0.3270
26026SOL    HW278657   8.636   3.717   7.888 -0.0957  0.9677  0.1635
26027SOL     OW78658   4.386   9.896   2.726 -0.3071 -0.2136  0.7056
26027SOL    HW178659   4.472   9.866   2.754  0.2115 -0.7017 -1.2459
26027SOL    HW278660   4.327   9.823   2.746  0.1899 -0.8660 -0.1465
26028SOL     OW78661   0.862   3.942   7.911 -0.0178  0.3143  0.2614
26028SOL    HW178662   0.877   3.871   7.974  1.6973  0.8078  0.4552
26028SOL    HW278663   0.834   4.016   7.965  0.7981  0.5445  0.3740
26029SOL     OW78664   1.512   5.022   0.204 -0.4025 -0.2252  0.2016
26029SOL    HW178665   1.436   5.080   0.193 -1.5497 -1.7502 -0.2892
26029SOL    HW278666   1.491   4.972   0.283 -0.2716 -1.2017 -0.3802
26030SOL     OW78667   1.792   8.072   8.686  0.2132  0.5622  0.2874
26030SOL    HW178668   1.873   8.038   8.725 -1.1124 -0.4871  2.2913
26030SOL    HW278669   1.735   8.090   8.760 -1.3188  1.5809 -1.0579
26031SOL     OW78670   6.528   1.564   7.495  0.1565  0.1434  0.1279
26031SOL    HW178671   6.480   1.521   7.566  0.0108  3.7070  2.4247
26031SOL    HW278672   6.615   1.524   7.498  0.1395  0.1512  2.3571
26032SOL     OW78673   9.228   3.597   1.714 -0.1113 -0.7071 -0.3041
26032SOL    HW178674   9.179   3.643   1.646 -0.6201  1.5573  1.4638
26032SOL    HW278675   9.319   3.624   1.700 -0.0259 -1.2808 -0.8605
26033SOL     OW78676   7.799   5.234   7.665 -0.1626  0.1802 -0.3149
26033SOL    HW178677   7.841   5.258   7.583 -1.6256  1.5690 -0.7025
26033SOL    HW278678   7.716   5.281   7.664 -0.7351 -0.7191  1.4277
26034SOL     OW78679   9.143   8.911   1.958  0.1987  0.0708  0.0291
26034SOL    HW178680   9.063   8.880   2.001 -0.2980  0.9257 -0.2585
26034SOL    HW278681   9.152   8.855   1.881 -0.7842  0.7154 -0.5748
26035SOL     OW78682   4.256   2.156   0.955  0.0103 -0.1347  0.2393
26035SOL    HW178683   4.234   2.247   0.979  0.3446 -0.1948  0.7782
26035SOL    HW278684   4.340   2.163   0.911 -1.1457  0.1294 -2.0805
26036SOL     OW78685   2.565   2.819   9.103 -0.3135 -0.2352 -0.3886
26036SOL    HW178686   2.648   2.822   9.056  0.5575 -1.7679  0.9291
26036SOL    HW278687   2.569   2.894   9.163 -1.4049  1.6912 -2.5714
26037SOL     OW78688   5.393   0.942   7.109 -0.2550  0.3072  0.5366
26037SOL    HW178689   5.469   0.888   7.132  0.0175 -0.9881 -2.8753
26037SOL    HW278690   5.319   0.895   7.146  0.2987 -0.3411  0.8579
26038SOL     OW78691   1.434   5.710   8.828  0.1174  1.1775 -0.4563
26038SOL    HW178692   1.505   5.775   8.823  1.6926 -0.5437 -1.5651
26038SOL    HW278693   1.453   5.649   8.757  0.1929 -1.9841  2.0896
26039SOL     OW78694   8.674   8.219   0.395  0.1740 -0.0709 -0.1897
26039SOL    HW178695   8.678   8.224   0.300  0.4077 -1.7769 -0.2977
26039SOL    HW278696   8.728   8.143   0.418  0.7012  0.7181  1.3666
26040SOL     OW78697   5.885   1.634   1.294  0.1177 -0.3873 -0.5122
26040SOL    HW178698   5.803   1.634   1.245 -0.3613 -1.2167  0.2804
26040SOL    HW278699   5.873   1.700   1.362 -0.2592 -1.1703  0.1929
26041SOL     OW78700   7.047   6.043   8.924 -0.6296  0.1115  0.2532
26041SOL    HW178701   6.962   6.009   8.897 -1.8371  2.9877  0.0091
26041SOL    HW278702   7.049   6.029   9.019 -1.1620 -0.3758  0.2009
26042SOL     OW78703   6.925   9.530   2.997  0.2560  0.0526 -0.0841
26042SOL    HW178704   7.014   9.559   3.015  0.2647  1.5793 -2.1993
26042SOL    HW278705   6.898   9.581   2.921 -2.7062  0.2190  0.9352
26043SOL     OW78706   2.534   4.710   0.917  0.7255 -0.0666 -0.2630
26043SOL    HW178707   2.616   4.751   0.891  0.0459 -0.2269 -2.9515
26043SOL    HW278708   2.470   4.782   0.917  0.8249  0.0896  1.9701
26044SOL     OW78709   9.298   6.609   3.700 -0.7366  0.0365  0.2325
26044SOL    HW178710   9.232   6.600   3.769  1.3859 -0.3156  2.3189
26044SOL    HW278711   9.335   6.521   3.690 -0.2555  0.3219 -0.5842
26045SOL     OW78712   6.277   5.998   3.037 -0.3011  0.0829 -0.3742
26045SOL    HW178713   6.286   5.993   3.132 -0.2949 -1.1611 -0.4302
26045SOL    HW278714   6.195   5.952   3.017  1.1016 -2.2618 -1.1751
26046SOL     OW78715   6.781   6.065   8.073 -0.7094  0.0387 -0.0940
26046SOL    HW178716   6.828   6.145   8.093  0.3126 -0.6144  0.1772
26046SOL    HW278717   6.701   6.094   8.029 -0.9399  1.2684  1.0813
26047SOL     OW78718   9.524   4.681   2.349  0.5262 -0.3524  0.9788
26047SOL    HW178719   9.619   4.695   2.346  0.1980  2.5100  0.4670
26047SOL    HW278720   9.508   4.613   2.284  2.1346 -0.0342  0.1920
26048SOL     OW78721   2.684   9.428   7.973  0.0057  0.1474  0.6753
26048SOL    HW178722   2.750   9.489   7.940 -1.0684  0.4742 -1.0657
26048SOL    HW278723   2.686   9.355   7.910  0.6031 -1.1853  2.1846
26049SOL     OW78724   1.014   6.890   7.869 -0.1792  0.5360 -0.3783
26049SOL    HW178725   1.085   6.849   7.818 -1.9902 -1.0858 -1.7331
26049SOL    HW278726   0.974   6.952   7.808 -1.5763 -0.5035 -0.5528
26050SOL     OW78727   1.734   0.011   6.261 -0.3224  0.1965 -0.4855
26050SOL    HW178728   1.811   0.025   6.315  1.8757  1.2375 -3.5723
26050SOL    HW278729   1.668   0.070   6.296  1.1179  1.1241  0.7743
26051SOL     OW78730   3.552   9.237   0.483 -0.1018 -0.0228 -0.3623
26051SOL    HW178731   3.512   9.209   0.400 -0.1455 -3.1704  0.6035
26051SOL    HW278732   3.478   9.257   0.540 -0.1242 -0.0520 -0.3814
26052SOL     OW78733   5.802   8.875   5.680  0.1605 -0.7250  0.5026
26052SOL    HW178734   5.783   8.858   5.588  0.8868  1.4717 -0.1093
26052SOL    HW278735   5.885   8.921   5.679  0.3612 -0.9923  2.3088
26053SOL     OW78736   1.891   6.821   1.411  0.0852  0.1346 -0.4434
26053SOL    HW178737   1.927   6.849   1.495  0.4473  1.5887 -1.0453
26053SOL    HW278738   1.800   6.801   1.430  0.7032 -1.8177  0.7387
26054SOL     OW78739   8.908   2.256   5.628 -0.2965 -0.0687  0.5158
26054SOL    HW178740   8.978   2.201   5.594 -0.7323  0.3810 -1.2310
26054SOL    HW278741   8.951   2.338   5.652 -0.2846  0.4984 -1.2942
26055SOL     OW78742   8.773   6.426   1.017 -0.0360 -0.5864 -0.3795
26055SOL    HW178743   8.767   6.373   0.937 -4.2559 -2.7390  1.0255
26055SOL    HW278744   8.808   6.365   1.083  0.2452  0.1112  0.1247
26056SOL     OW78745   0.122   3.225   9.621  0.4719 -0.0002 -0.4546
26056SOL    HW178746   0.189   3.179   9.671 -1.2895 -1.9889  0.2387
26056SOL    HW278747   0.039   3.188   9.652 -1.0055  2.5084 -1.0824
26057SOL     OW78748   0.188   2.420   0.055  0.3661 -0.2752 -0.2654
26057SOL    HW178749   0.163   2.340   0.008 -0.4846 -1.3405  1.8567
26057SOL    HW278750   0.118   2.482   0.035 -0.3811 -0.9584  0.1277
26058SOL     OW78751   0.930   1.220   5.895 -0.4211 -0.3951  0.1234
26058SOL    HW178752   0.841   1.255   5.894 -0.6030 -0.4347 -3.8090
26058SOL    HW278753   0.985   1.294   5.870  0.0660 -1.2561 -1.4960
26059SOL     OW78754   8.557   4.311   0.124  0.2272 -0.6401 -0.2093
26059SOL    HW178755   8.542   4.406   0.121  1.0725 -0.5136 -2.2930
26059SOL    HW278756   8.511   4.282   0.202  0.0463  1.5053  0.5527
26060SOL     OW78757   5.318   4.604   8.669 -0.0224 -0.1864 -0.5510
26060SOL    HW178758   5.359   4.525   8.633  1.1999 -0.1451  0.6768
26060SOL    HW278759   5.390   4.664   8.686 -0.6378  0.1978  0.9380
26061SOL     OW78760   8.756   4.800   1.071  0.3086 -0.1633  0.7391
26061SOL    HW178761   8.701   4.723   1.057 -1.1985  0.9848  0.1441
26061SOL    HW278762   8.772   4.835   0.984  0.6844  0.4045  1.0283
26062SOL     OW78763   5.424   1.991   7.933 -0.4289  0.2693  0.4301
26062SOL    HW178764   5.405   1.903   7.966 -0.2382  0.0827  0.0410
26062SOL    HW278765   5.488   2.027   7.994  1.3120 -0.7500 -0.7389
26063SOL     OW78766   0.788   9.141   2.837  0.0227 -0.4189 -0.2476
26063SOL    HW178767   0.755   9.230   2.827  0.0867 -0.1488  1.5670
26063SOL    HW278768   0.711   9.085   2.827 -0.5408  0.0369  1.3203
26064SOL     OW78769   4.503   1.516   3.729 -0.0728 -0.2486 -0.1339
26064SOL    HW178770   4.595   1.526   3.704 -0.2078 -0.7661 -0.8801
26064SOL    HW278771   4.504   1.455   3.802  0.1269 -0.8612 -0.6405
26065SOL     OW78772   2.648   2.104   1.772  0.2236  0.2334  0.0174
26065SOL    HW178773   2.583   2.039   1.745 -1.9741  0.7377  3.4877
26065SOL    HW278774   2.726   2.052   1.794 -0.3412 -0.8546 -0.4545
26066SOL     OW78775   3.692   2.754   7.684 -0.2627 -0.2323 -0.3005
26066SOL    HW178776   3.735   2.725   7.603 -0.2490  1.7788 -1.0643
26066SOL    HW278777   3.605   2.783   7.656 -0.8312 -0.9333  0.6782
26067SOL     OW78778   6.387   3.748   9.559 -0.1427  0.2117 -0.3125
26067SOL    HW178779   6.422   3.667   9.595  2.0449  1.1019 -0.2687
26067SOL    HW278780   6.337   3.721   9.482  0.4281 -1.1780 -0.2222
26068SOL     OW78781   9.013   3.437   1.381  0.1746 -0.6077  0.4695
26068SOL    HW178782   9.067   3.362   1.355 -1.0142 -1.1567 -0.4905
26068SOL    HW278783   8.923   3.406   1.374 -0.4007  1.1916 -0.9297
26069SOL     OW78784   0.556   0.299   4.334  0.0173  0.3924 -0.0717
26069SOL    HW178785   0.547   0.391   4.309  0.6390  1.0098  1.8313
26069SOL    HW278786   0.509   0.292   4.417 -0.4626 -1.1543 -0.4354
26070SOL     OW78787   9.801   8.561   3.368 -0.5216  0.8740 -0.1486
26070SOL    HW178788   9.735   8.611   3.319  0.1074  1.9038  0.0054
26070SOL    HW278789   9.837   8.500   3.304 -1.6126  0.2988 -0.2349
26071SOL     OW78790   7.991   5.195   1.565  0.3469  0.2902  0.1012
26071SOL    HW178791   8.050   5.218   1.637 -0.1427 -1.3646  1.0855
26071SOL    HW278792   8.028   5.114   1.528 -1.0293 -0.5515  0.4781
26072SOL     OW78793   5.423   2.520   8.848 -0.0396 -0.0893 -0.0895
26072SOL    HW178794   5.338   2.519   8.893  0.1777  1.2043  0.3790
26072SOL    HW278795   5.484   2.488   8.914  0.2922  1.8850  0.6020
26073SOL     OW78796   5.642   7.230   4.360 -0.4754  0.1860 -0.0915
26073SOL    HW178797   5.686   7.198   4.281 -0.7548 -0.3422 -0.0427
26073SOL    HW278798   5.647   7.325   4.354  0.5007  0.1373 -0.1758
26074SOL     OW78799   9.369   5.482   7.078  0.0109  0.5342  0.6826
26074SOL    HW178800   9.432   5.463   7.148 -0.5104 -3.1631  0.3542
26074SOL    HW278801   9.421   5.488   6.999  0.2060 -0.5052  0.7090
26075SOL     OW78802   9.559   2.509   6.295  0.4166  0.1721  0.6610
26075SOL    HW178803   9.602   2.433   6.255 -1.4118 -1.2326  1.2014
26075SOL    HW278804   9.631   2.561   6.332  1.6908 -1.7930  1.1090
26076SOL     OW78805   0.873   7.545   2.617  0.0240  0.1036 -0.1940
26076SOL    HW178806   0.923   7.626   2.621 -0.2601  0.2338  0.9691
26076SOL    HW278807   0.861   7.529   2.523  1.5595  0.4805 -0.4779
26077SOL     OW78808   6.324   8.617   9.433 -0.4696  0.1754 -0.1239
26077SOL    HW178809   6.287   8.591   9.349  0.9508  0.1361 -0.7493
26077SOL    HW278810   6.365   8.538   9.467  0.3395  0.5784 -0.1447
26078SOL     OW78811   7.052   7.768   5.189 -0.0031 -0.0165 -0.2564
26078SOL    HW178812   7.131   7.716   5.203 -0.0446 -0.2868 -0.9669
26078SOL    HW278813   7.050   7.782   5.094  0.7257  2.3914 -0.0008
26079SOL     OW78814   5.829   1.794   1.534 -0.1158  0.3268 -0.1166
26079SOL    HW178815   5.742   1.810   1.498  0.5386  1.4074 -1.2715
26079SOL    HW278816   5.837   1.856   1.607  0.2672  1.3742 -1.0203
26080SOL     OW78817   3.187   5.220   5.026  0.0816  0.0173  0.2272
26080SOL    HW178818   3.274   5.259   5.029  1.1141 -2.1936  1.1581
26080SOL    HW278819   3.178   5.187   4.937 -0.4245  1.4819 -0.2915
26081SOL     OW78820   5.133   7.895   5.411  0.3071 -0.7390 -0.4274
26081SOL    HW178821   5.155   7.963   5.347  0.9248 -1.2044 -0.7212
26081SOL    HW278822   5.088   7.828   5.360  0.6597 -1.0393 -0.3521
26082SOL     OW78823   5.405   8.673   7.409  0.1350 -0.2039 -0.0134
26082SOL    HW178824   5.358   8.699   7.330 -0.8977  1.5216  1.0872
26082SOL    HW278825   5.495   8.702   7.394  0.2077 -0.8728 -0.9622
26083SOL     OW78826   0.677   7.407   7.015 -0.0452  0.2828  0.0468
26083SOL    HW178827   0.697   7.317   7.044  0.6862  0.4563  0.1096
26083SOL    HW278828   0.667   7.399   6.920 -3.1235 -0.4105  0.3130
26084SOL     OW78829   2.816   9.732   9.955  0.2772 -0.2178 -0.3317
26084SOL    HW178830   2.739   9.757   9.904  0.4884 -1.2796 -1.1824
26084SOL    HW278831   2.880   9.800   9.935 -0.3998  0.6450  0.3390
26085SOL     OW78832   9.940   3.009   5.618 -0.0714  0.3263  0.2802
26085SOL    HW178833  10.015   2.962   5.582 -0.0253  0.0990  0.6688
26085SOL    HW278834   9.926   2.970   5.704 -0.2719  0.7678  0.4519
26086SOL     OW78835   0.036   9.158   1.593  0.3748  0.0830  0.3494
26086SOL    HW178836   0.129   9.135   1.591  0.5707  0.8498  0.7080
26086SOL    HW278837   0.034   9.253   1.598 -0.4412  0.2061 -1.3501
26087SOL     OW78838   0.093   8.277   3.461 -0.1746  0.0073 -0.1406
26087SOL    HW178839   0.098   8.205   3.524  1.5280  0.3394  0.1634
26087SOL    HW278840   0.038   8.342   3.504  1.8907  0.7278  1.6152
26088SOL     OW78841   7.105   2.966   4.105 -0.5095  0.1491  0.6281
26088SOL    HW178842   7.036   2.961   4.171 -0.4437  1.2648  0.8067
26088SOL    HW278843   7.167   3.029   4.140 -0.5921  0.9577 -0.6082
26089SOL     OW78844   9.182   5.626   1.439  0.1690  0.0084 -0.8204
26089SOL    HW178845   9.181   5.534   1.415 -0.1847 -0.1217 -0.3061
26089SOL    HW278846   9.249   5.633   1.507 -0.0932  0.0537 -0.5639
26090SOL     OW78847   6.763   3.813   0.060  0.3590  0.0545 -0.0967
26090SOL    HW178848   6.853   3.784   0.078  0.5388  0.5976 -0.0904
26090SOL    HW278849   6.733   3.851   0.143  0.9005  1.8253 -0.6607
26091SOL     OW78850   2.618   5.671   1.981 -0.0640 -0.0390 -0.6469
26091SOL    HW178851   2.599   5.713   1.896  0.7468  1.9056  0.0633
26091SOL    HW278852   2.666   5.738   2.030 -0.0613 -1.3096  1.1744
26092SOL     OW78853   4.710   9.156   6.359 -0.3610 -0.5841  0.5000
26092SOL    HW178854   4.776   9.087   6.352  0.0472 -0.2190  0.7180
26092SOL    HW278855   4.736   9.221   6.294  0.6628  0.5173  1.9445
26093SOL     OW78856   1.925   7.117   5.247  0.0988 -0.0326  0.0767
26093SOL    HW178857   2.014   7.111   5.211  0.4936 -1.1248  1.1574
26093SOL    HW278858   1.868   7.121   5.170  1.0417 -0.0453 -0.6446
26094SOL     OW78859   0.741   2.434   7.479  0.2304 -0.2401  0.3271
26094SOL    HW178860   0.735   2.489   7.557 -0.3981 -1.3705  1.1088
26094SOL    HW278861   0.770   2.493   7.410  2.0318  0.5696  1.6709
26095SOL     OW78862   2.746   9.268   7.458 -0.6493 -0.4319 -0.1392
26095SOL    HW178863   2.769   9.177   7.476 -0.6257 -0.3368  0.3161
26095SOL    HW278864   2.786   9.318   7.529 -1.3838 -0.1505  0.0878
26096SOL     OW78865   9.079   8.678   8.257  0.5153  0.5380 -0.1876
26096SOL    HW178866   9.145   8.649   8.194  0.3342 -2.0030  0.6665
26096SOL    HW278867   9.128   8.730   8.321  1.5155 -0.3331 -0.2075
26097SOL     OW78868   1.732   1.458   3.120 -0.1891 -0.2260 -0.1983
26097SOL    HW178869   1.687   1.485   3.040 -0.0468 -2.5118 -1.1116
26097SOL    HW278870   1.795   1.528   3.136  0.1494  0.0456 -2.3955
26098SOL     OW78871   0.765   6.132   1.678 -0.3188 -0.7524 -0.3312
26098SOL    HW178872   0.781   6.184   1.600 -0.3929  1.0526  0.8132
26098SOL    HW278873   0.693   6.074   1.653 -0.4268 -0.1305 -1.5433
26099SOL     OW78874   9.424   4.586   5.453  0.5225  0.1770  0.0242
26099SOL    HW178875   9.343   4.621   5.490 -0.7931 -1.3186 -1.3582
26099SOL    HW278876   9.405   4.495   5.433  1.3466  0.6911 -3.7176
26100SOL     OW78877   8.820   8.386   4.677  0.6985  0.5103  0.1590
26100SOL    HW178878   8.853   8.325   4.611 -0.1755 -1.0023  1.0586
26100SOL    HW278879   8.746   8.340   4.717 -0.1112  2.2466  0.7646
26101SOL     OW78880   3.624   2.547   3.807  0.3528  0.7988  0.3062
26101SOL    HW178881   3.646   2.635   3.775  1.7800  0.1270 -0.6720
26101SOL    HW278882   3.691   2.491   3.769  2.2601 -0.1377  4.5392
26102SOL     OW78883   4.098   9.031   0.254 -0.1861 -0.1483  0.5901
26102SOL    HW178884   4.021   9.088   0.264 -0.2962  0.3641 -2.2157
26102SOL    HW278885   4.121   9.040   0.161  1.1474 -3.0028  0.5665
26103SOL     OW78886   8.003   7.030   8.096  0.6020 -0.0504  0.2378
26103SOL    HW178887   7.952   7.050   8.174  1.7896  0.9787  0.7932
26103SOL    HW278888   7.975   6.943   8.070 -1.3585  0.4394  0.5558
26104SOL     OW78889   2.423   5.201   4.789 -0.1797 -0.5740  0.2297
26104SOL    HW178890   2.392   5.185   4.878 -0.3430 -0.9646  0.1056
26104SOL    HW278891   2.518   5.188   4.794 -0.1568 -0.3241  0.4070
26105SOL     OW78892   7.916   4.627   3.313  0.7939  0.0012  0.6875
26105SOL    HW178893   7.885   4.552   3.364 -1.0845  0.5036  0.3717
26105SOL    HW278894   7.881   4.703   3.361  1.6292  0.6194  0.3316
26106SOL     OW78895   1.772   7.691   0.230  0.5193  0.1728  0.0899
26106SOL    HW178896   1.817   7.678   0.147  1.0537 -0.9183  0.5218
26106SOL    HW278897   1.679   7.699   0.207  0.9064  2.8478 -0.8425
26107SOL     OW78898   6.770   6.129   9.115  0.1603 -0.0447 -0.1027
26107SOL    HW178899   6.818   6.160   9.192 -1.4816 -0.4516  1.1551
26107SOL    HW278900   6.797   6.037   9.106 -0.1184 -0.1791  0.3924
26108SOL     OW78901   6.851   4.652   3.296 -0.2185 -0.2969  0.4816
26108SOL    HW178902   6.886   4.720   3.239 -0.8280 -0.4582 -0.0860
26108SOL    HW278903   6.925   4.592   3.309  0.2638  0.3563  0.8242
26109SOL     OW78904   2.776   9.553   0.892  0.5112 -0.2545 -0.0332
26109SOL    HW178905   2.705   9.557   0.956 -0.0323  2.1008 -0.6877
26109SOL    HW278906   2.750   9.614   0.823  2.0657 -1.1358 -1.4996
26110SOL     OW78907   3.588   1.095   5.419 -0.0459 -0.0393 -0.1965
26110SOL    HW178908   3.662   1.087   5.479 -0.2441 -0.9251 -0.0521
26110SOL    HW278909   3.511   1.086   5.475 -0.3447  2.3204 -0.1117
26111SOL     OW78910   4.966   0.759   1.770  0.4043  0.0804  0.1358
26111SOL    HW178911   5.043   0.758   1.828  0.3883 -0.4435  0.1449
26111SOL    HW278912   4.918   0.679   1.792  0.0913  0.1772 -0.1927
26112SOL     OW78913   4.331   0.321   9.429  0.4689 -0.5376 -0.4263
26112SOL    HW178914   4.370   0.354   9.510 -0.2988  0.4233 -0.4273
26112SOL    HW278915   4.241   0.300   9.453  0.4583 -0.9911 -0.8490
26113SOL     OW78916   9.916   6.543   3.304  0.5004 -0.7736 -0.3075
26113SOL    HW178917   9.826   6.524   3.332  0.1277  0.4241 -0.6023
26113SOL    HW278918   9.906   6.586   3.219  1.1389  1.7268  0.7943
26114SOL     OW78919   2.546   7.426   0.233  0.7089 -0.1268 -0.2757
26114SOL    HW178920   2.485   7.455   0.300  0.4799 -1.5756  0.1663
26114SOL    HW278921   2.623   7.482   0.244 -1.0996  2.9459 -1.9649
26115SOL     OW78922   3.949   4.217   2.899  0.3389  0.2223  0.2357
26115SOL    HW178923   3.878   4.186   2.955 -2.2548  1.8110 -1.9548
26115SOL    HW278924   3.937   4.172   2.816  1.8361  0.6089 -0.2193
26116SOL     OW78925   0.310   8.570   9.851 -0.4740 -0.6540  0.8955
26116SOL    HW178926   0.256   8.642   9.818 -0.4157 -2.2860 -3.5061
26116SOL    HW278927   0.248   8.497   9.862 -0.0496 -0.8618  2.0171
26117SOL     OW78928   5.151   4.712   7.154 -0.3301  0.2022  0.0196
26117SOL    HW178929   5.073   4.669   7.186 -0.5784 -0.0848 -0.9380
26117SOL    HW278930   5.223   4.670   7.201 -0.6349 -0.6600 -0.2629
26118SOL     OW78931   8.448   6.966   1.441  0.2982  0.2613 -0.1413
26118SOL    HW178932   8.537   6.965   1.408  0.5093  1.9657  0.2530
26118SOL    HW278933   8.444   7.045   1.496 -1.7318  0.8433 -1.0092
26119SOL     OW78934   7.144   0.813   3.370  0.3994 -0.0929 -0.1288
26119SOL    HW178935   7.108   0.856   3.293 -1.5150 -1.2872  0.0142
26119SOL    HW278936   7.137   0.719   3.350  0.4431 -0.4047  1.2223
26120SOL     OW78937   6.931   2.002   7.308  0.4931  0.1787 -0.1198
26120SOL    HW178938   6.972   2.031   7.227  0.3308  0.0660 -0.2410
26120SOL    HW278939   6.837   2.011   7.293  0.4893  1.6887  0.6214
26121SOL     OW78940   5.299   2.452   0.614  0.4763 -0.3171 -0.4039
26121SOL    HW178941   5.206   2.430   0.613  0.2936  0.4264 -0.3755
26121SOL    HW278942   5.304   2.532   0.666  1.3638 -1.3103  1.1409
26122SOL     OW78943   5.931   6.266   7.730 -0.1967  0.5960  0.0933
26122SOL    HW178944   5.906   6.174   7.734  2.9358 -0.5624 -2.2389
26122SOL    HW278945   5.996   6.277   7.800  1.5005  0.1368 -1.3208
26123SOL     OW78946   5.646   2.143   5.279  0.3305  0.8607 -0.3194
26123SOL    HW178947   5.734   2.126   5.313 -0.4907 -0.4769  1.3319
26123SOL    HW278948   5.589   2.133   5.356 -1.5950 -1.8128 -1.9154
26124SOL     OW78949   5.644   9.003   6.199  0.5154  0.1352  0.2624
26124SOL    HW178950   5.661   9.007   6.104  0.7511  1.3388  0.3416
26124SOL    HW278951   5.698   8.930   6.229  0.3817 -0.3074 -0.5484
26125SOL     OW78952   6.399   1.309   6.301 -0.4540  0.2362 -0.1057
26125SOL    HW178953   6.369   1.283   6.388 -1.2232 -0.4496 -0.5603
26125SOL    HW278954   6.377   1.402   6.294 -1.8751 -0.0882 -0.1632
26126SOL     OW78955   0.420   4.908   5.248 -0.7003 -0.2420  0.3007
26126SOL    HW178956   0.485   4.841   5.267 -1.2356 -0.4761  1.3821
26126SOL    HW278957   0.460   4.990   5.278 -0.2154 -0.1330 -0.6338
26127SOL     OW78958   3.281   0.414   1.794 -0.2330  0.2794 -0.1878
26127SOL    HW178959   3.370   0.428   1.823  0.6568  1.8153 -3.2136
26127SOL    HW278960   3.282   0.327   1.754 -0.5422 -0.3380  1.0926
26128SOL     OW78961   8.222   3.166   6.456 -0.8302 -0.0485  0.5892
26128SOL    HW178962   8.232   3.258   6.477 -1.2728  0.6343 -1.8209
26128SOL    HW278963   8.306   3.126   6.479  0.7419  1.7340 -1.6257
26129SOL     OW78964   2.632   2.120   0.049  0.4537 -0.0883 -0.6752
26129SOL    HW178965   2.599   2.031   0.061  0.0352  0.1025 -0.3584
26129SOL    HW278966   2.588   2.151  -0.031  0.0158  0.0901 -0.3722
26130SOL     OW78967   7.255   1.028   2.863  0.1690 -0.6638  0.0492
26130SOL    HW178968   7.213   1.099   2.815  3.2540  0.8697 -0.6542
26130SOL    HW278969   7.278   0.964   2.796  1.1439 -0.2958  0.0204
26131SOL     OW78970   2.054   9.435   4.070  0.2136 -0.0954  0.4099
26131SOL    HW178971   2.005   9.377   4.012 -0.5726  0.2321  0.7154
26131SOL    HW278972   2.144   9.431   4.039 -0.1948  0.0972 -0.8552
26132SOL     OW78973   6.086   1.182   4.493  0.2097  0.1026 -0.3490
26132SOL    HW178974   6.142   1.107   4.472 -0.2397 -0.4704  0.4536
26132SOL    HW278975   6.087   1.186   4.588  1.1079  1.7979 -0.3917
26133SOL     OW78976   4.882   3.045   7.521  0.6254 -0.3595  0.1862
26133SOL    HW178977   4.793   3.070   7.546  0.9307 -0.2291  1.1790
26133SOL    HW278978   4.933   3.057   7.600  1.7168  0.4361 -0.6089
26134SOL     OW78979   2.291   4.430   1.756  0.0688 -0.1243  0.1585
26134SOL    HW178980   2.296   4.339   1.725 -1.7563 -0.8943  1.8546
26134SOL    HW278981   2.313   4.424   1.849  0.1431  1.2204  0.2431
26135SOL     OW78982   7.411   0.035   3.169 -0.0646 -0.3423 -0.2335
26135SOL    HW178983   7.503   0.011   3.166  0.2871  0.9533 -0.1866
26135SOL    HW278984   7.410   0.126   3.197 -1.3067 -0.0267 -1.2009
26136SOL     OW78985   4.773   0.159   2.966  0.3872 -0.1980  0.6311
26136SOL    HW178986   4.847   0.112   2.929  1.1311  0.8194  0.7690
26136SOL    HW278987   4.773   0.244   2.920 -1.8395 -0.8242 -0.7332
26137SOL     OW78988   0.183   7.475   3.884  0.5615 -0.3162 -0.7273
26137SOL    HW178989   0.153   7.400   3.833  1.2060 -0.5393 -0.7819
26137SOL    HW278990   0.120   7.481   3.956 -0.4626  0.1184 -1.6360
26138SOL     OW78991   2.840   4.791   0.590  0.4253  0.3751  0.5163
26138SOL    HW178992   2.854   4.790   0.495  0.7556  1.5683  0.5323
26138SOL    HW278993   2.920   4.830   0.625  0.5595 -0.5993  1.3561
26139SOL     OW78994   2.064   9.251   7.717 -0.1603 -0.3143 -0.1754
26139SOL    HW178995   2.041   9.203   7.637 -0.7130  2.2570 -1.6892
26139SOL    HW278996   2.160   9.252   7.717 -0.1229  1.0175 -1.7858
26140SOL     OW78997   1.694   3.795   0.860 -0.0059  0.3479  0.3098
26140SOL    HW178998   1.779   3.808   0.901 -0.2901 -1.7476  1.6643
26140SOL    HW278999   1.635   3.855   0.906  0.0326 -0.7645  1.8632
26141SOL     OW79000   1.029   7.977   7.942  0.2879 -0.4231 -0.8843
26141SOL    HW179001   1.117   7.941   7.935 -0.3761 -2.1138 -0.9169
26141SOL    HW279002   1.019   8.030   7.863  1.2345 -0.3010 -0.9317
26142SOL     OW79003   1.954   0.031   5.856  0.6009 -0.2005 -0.1129
26142SOL    HW179004   2.035   0.056   5.810  0.0995 -0.9764 -1.4909
26142SOL    HW279005   1.913  -0.033   5.798 -1.2695  0.5506  0.3276
26143SOL     OW79006   3.297   3.798   7.514 -0.2294  0.1404 -0.1669
26143SOL    HW179007   3.333   3.759   7.594 -2.5318  1.6987  1.7870
26143SOL    HW279008   3.342   3.882   7.506 -1.5921  1.0254  0.9179
26144SOL     OW79009   2.812   0.717   5.456 -0.7461  0.3488 -0.0584
26144SOL    HW179010   2.848   0.797   5.496  0.6408  0.4333 -1.3449
26144SOL    HW279011   2.878   0.693   5.390 -0.9159 -2.1301  0.6097
26145SOL     OW79012   8.988   9.552   6.997 -0.1193 -0.0106  0.2700
26145SOL    HW179013   9.044   9.627   7.014  1.7675 -1.1261 -0.6807
26145SOL    HW279014   8.988   9.503   7.079  1.5806 -0.7674 -0.1459
26146SOL     OW79015   2.608   5.112   2.229  0.3057 -0.0647  0.1699
26146SOL    HW179016   2.571   5.029   2.260  0.5201 -0.0705  0.4189
26146SOL    HW279017   2.562   5.130   2.147  1.2383 -1.1619 -0.6388
26147SOL     OW79018   9.014   6.378   1.233  0.3010  0.1095 -0.4991
26147SOL    HW179019   8.931   6.409   1.271 -0.4824 -1.1955 -1.0533
26147SOL    HW279020   8.988   6.304   1.177  1.9960 -1.2472  0.4197
26148SOL     OW79021   3.853   5.012   7.448 -0.1719 -0.0835  0.2010
26148SOL    HW179022   3.897   5.078   7.395  1.2613  1.0293  2.6123
26148SOL    HW279023   3.877   4.928   7.408 -0.3087  0.7130 -1.6577
26149SOL     OW79024   0.792   2.231   5.555 -0.3148  0.5180  0.2458
26149SOL    HW179025   0.764   2.316   5.519 -1.4749  0.5219  1.1104
26149SOL    HW279026   0.734   2.167   5.513  1.5732 -0.1094 -1.6282
26150SOL     OW79027   4.926   6.105   8.590  0.6101  0.1080  0.2574
26150SOL    HW179028   4.931   6.017   8.551  0.2160  0.3098 -0.2600
26150SOL    HW279029   5.016   6.127   8.613  0.9148  0.1646 -0.9517
26151SOL     OW79030   7.816   6.644   5.145  0.7099  0.3525 -0.2037
26151SOL    HW179031   7.766   6.725   5.142  0.0042 -0.1024 -1.6020
26151SOL    HW279032   7.839   6.625   5.054  2.0732 -0.2965  0.2415
26152SOL     OW79033   9.087   4.358   2.838  0.2660  0.3757 -0.2185
26152SOL    HW179034   9.168   4.352   2.889  0.2587 -0.0125 -0.2490
26152SOL    HW279035   9.053   4.445   2.857 -1.3628 -0.7401  2.9462
26153SOL     OW79036   5.410   3.531   8.685 -0.7222 -0.2139  0.2918
26153SOL    HW179037   5.387   3.589   8.757  0.1839  1.6646 -0.8480
26153SOL    HW279038   5.455   3.457   8.726  0.8148  1.3715  1.5802
26154SOL     OW79039   4.082   8.896   5.202 -0.2063  0.3638  0.1171
26154SOL    HW179040   4.106   8.849   5.122  0.6402  1.1054 -0.0905
26154SOL    HW279041   3.997   8.935   5.182  0.4575  1.3962 -0.8359
26155SOL     OW79042   6.398   5.479   4.749  0.0041  0.2174  0.1307
26155SOL    HW179043   6.454   5.512   4.819 -0.2764  0.5608  0.2011
26155SOL    HW279044   6.405   5.384   4.754  1.0531  0.2698 -0.2594
26156SOL     OW79045   3.888   2.687   0.184 -0.4125  0.1994 -0.2243
26156SOL    HW179046   3.957   2.752   0.189 -0.6764  0.5066 -0.5012
26156SOL    HW279047   3.865   2.669   0.276 -1.1217  1.3458 -0.1568
26157SOL     OW79048   0.446   2.514   0.121  0.1901 -0.1025  0.1540
26157SOL    HW179049   0.472   2.556   0.040 -1.0566 -0.8531 -0.6720
26157SOL    HW279050   0.373   2.457   0.096  0.0631 -0.6736  1.7207
26158SOL     OW79051   0.954   5.457   9.755  0.1155 -0.0598 -0.1282
26158SOL    HW179052   1.022   5.421   9.699  2.0976  2.0797  0.7237
26158SOL    HW279053   0.965   5.552   9.749 -2.2144  0.3632  0.7981
26159SOL     OW79054   6.025   9.655   6.948 -0.3129  0.1458  0.3059
26159SOL    HW179055   6.010   9.686   7.037  1.0818 -2.0260  1.3819
26159SOL    HW279056   6.109   9.694   6.922 -0.1341 -0.1446  0.4329
26160SOL     OW79057   2.334   9.869   1.154 -0.4451  0.2641 -0.6188
26160SOL    HW179058   2.405   9.857   1.091  0.5598 -0.9083  0.6677
26160SOL    HW279059   2.327   9.964   1.164  1.4287  0.4053 -0.2731
26161SOL     OW79060   0.332   8.885   7.244 -0.2108  0.3577  0.1796
26161SOL    HW179061   0.303   8.859   7.331  0.2307 -2.2944 -0.3612
26161SOL    HW279062   0.275   8.837   7.184  1.5316 -0.4468 -0.9336
26162SOL     OW79063   7.587   7.031   8.883  0.2895  0.5339  0.0645
26162SOL    HW179064   7.608   7.109   8.935  0.7240  1.4286 -1.3876
26162SOL    HW279065   7.669   6.983   8.878  0.7961  1.4866 -1.4383
26163SOL     OW79066   1.606   5.353   8.038 -0.0776  0.6277  0.3854
26163SOL    HW179067   1.564   5.290   7.980 -3.0198  1.3996  1.5257
26163SOL    HW279068   1.698   5.354   8.010 -0.8753 -0.7392 -2.6485
26164SOL     OW79069   0.437   2.152   8.792 -0.1943 -0.0158 -0.3165
26164SOL    HW179070   0.422   2.219   8.858  0.2298 -1.1576  0.9986
26164SOL    HW279071   0.464   2.200   8.714 -1.2798  1.4146  0.1435
26165SOL     OW79072   8.779  -0.034   4.584  0.3474 -0.3650  0.1817
26165SOL    HW179073   8.808   0.040   4.637  0.1219 -0.2798  0.1906
26165SOL    HW279074   8.696  -0.004   4.546 -1.1323 -1.5510  2.2688
26166SOL     OW79075   1.325   8.611   7.741 -0.0832 -0.1721  0.1631
26166SOL    HW179076   1.257   8.645   7.799  0.1683 -0.5142  0.6715
26166SOL    HW279077   1.406   8.651   7.772 -0.0087 -0.0028 -0.2434
26167SOL     OW79078   0.483   0.088   1.936 -0.3177  0.2691 -0.2740
26167SOL    HW179079   0.573   0.073   1.964 -0.6478  0.9729  1.2640
26167SOL    HW279080   0.448   0.000   1.918 -0.1472 -0.2843  1.8506
26168SOL     OW79081   7.731   9.730   2.115  0.1763  0.0744  0.2010
26168SOL    HW179082   7.687   9.693   2.038  1.6458 -0.2449 -0.5215
26168SOL    HW279083   7.770   9.654   2.158  0.8774  0.4593  0.2532
26169SOL     OW79084   3.570   9.148   0.201  0.5875  0.0919 -0.3327
26169SOL    HW179085   3.628   9.076   0.174  2.1551  1.6221 -1.2369
26169SOL    HW279086   3.625   9.226   0.197 -1.6585  1.7459 -1.7711
26170SOL     OW79087   7.026   4.506   1.427  0.7478 -0.2627  0.3102
26170SOL    HW179088   7.019   4.601   1.431  3.6297  0.0486 -0.0876
26170SOL    HW279089   6.999   4.476   1.513 -0.3186  0.8838  0.3934
26171SOL     OW79090   9.212   8.701   6.193  0.3360  0.2281 -0.4796
26171SOL    HW179091   9.134   8.739   6.235 -0.9190 -1.5646 -1.0414
26171SOL    HW279092   9.233   8.762   6.123 -1.7908 -0.1660 -1.5458
26172SOL     OW79093   8.472   3.418   5.766 -0.0930 -0.5926 -0.3192
26172SOL    HW179094   8.516   3.490   5.720 -2.0381 -1.2687 -3.5954
26172SOL    HW279095   8.406   3.461   5.821 -1.7286  0.2798 -2.7717
26173SOL     OW79096   2.609   5.954   7.382 -0.8089 -0.0267  0.1498
26173SOL    HW179097   2.579   6.042   7.406 -0.3456 -0.2926  1.8967
26173SOL    HW279098   2.657   5.966   7.301  0.3580  1.5853  1.0128
26174SOL     OW79099   8.564   4.168   5.185  0.7659  0.7068 -0.0769
26174SOL    HW179100   8.567   4.222   5.264  0.8186  1.2529 -0.4478
26174SOL    HW279101   8.559   4.231   5.113  0.4428  0.2097 -0.4973
26175SOL     OW79102   4.422   0.426   1.403  0.1821 -0.3540 -0.3195
26175SOL    HW179103   4.494   0.407   1.464  0.1577 -1.4999 -0.6202
26175SOL    HW279104   4.343   0.404   1.451  0.1199 -0.5424 -0.5057
26176SOL     OW79105   5.572   4.320   6.594  0.7297  0.1380 -0.1337
26176SOL    HW179106   5.485   4.318   6.554 -0.4502 -0.0014  2.2642
26176SOL    HW279107   5.609   4.404   6.566 -1.8115  2.1158  1.8868
26177SOL     OW79108   3.871   1.142   2.870 -0.3189 -0.1702 -0.0574
26177SOL    HW179109   3.791   1.090   2.855 -1.2958  1.0675  0.6420
26177SOL    HW279110   3.839   1.222   2.913  1.1346  0.9949 -1.0694
26178SOL     OW79111   7.985   8.831   8.326  0.2696 -0.7981 -0.3599
26178SOL    HW179112   7.938   8.911   8.347  1.7381  0.3441 -1.1940
26178SOL    HW279113   8.013   8.797   8.411 -0.1989 -0.3246 -0.0051
26179SOL     OW79114   0.498   2.482   4.836 -0.7251 -0.3685 -0.2951
26179SOL    HW179115   0.450   2.535   4.900 -2.2017 -1.5216 -0.4032
26179SOL    HW279116   0.443   2.406   4.822  1.2691 -1.9120 -0.2442
26180SOL     OW79117   9.107   1.479   0.132  0.6956 -0.3335  0.4420
26180SOL    HW179118   9.194   1.512   0.152  1.2844 -1.5952  0.0107
26180SOL    HW279119   9.062   1.554   0.092  1.7158  0.2064  0.2709
26181SOL     OW79120   0.517   5.445   4.435  0.3102 -0.2216  0.0251
26181SOL    HW179121   0.600   5.484   4.409 -1.2696  2.1140 -2.0282
26181SOL    HW279122   0.468   5.437   4.352 -1.9291 -0.3696  1.2855
26182SOL     OW79123   3.255   0.279   1.487  0.3193  0.1253 -0.2258
26182SOL    HW179124   3.324   0.248   1.546 -0.2470 -0.1507  0.3055
26182SOL    HW279125   3.298   0.288   1.402  0.8819 -0.5762 -0.0258
26183SOL     OW79126   9.730   3.499   9.334 -0.2329  0.0389 -0.0759
26183SOL    HW179127   9.666   3.531   9.398  0.1586  0.4773  0.1035
26183SOL    HW279128   9.678   3.475   9.257 -0.7703 -0.9903  0.5873
26184SOL     OW79129   2.300   4.092   6.162 -0.2552 -0.2139 -0.8383
26184SOL    HW179130   2.359   4.160   6.195  2.2883 -1.3778 -2.6823
26184SOL    HW279131   2.315   4.017   6.220  0.4320 -0.6417 -1.5529
26185SOL     OW79132   0.175   9.315   5.806  0.1327  0.0971  0.0099
26185SOL    HW179133   0.166   9.343   5.715 -1.7827 -0.1781  0.0926
26185SOL    HW279134   0.219   9.230   5.800  0.1572  0.1514 -0.6467
26186SOL     OW79135   5.208   1.667   5.958  0.1508 -0.3653 -0.0947
26186SOL    HW179136   5.149   1.592   5.959  1.5191 -1.5037 -0.4184
26186SOL    HW279137   5.151   1.743   5.954 -1.2480 -1.4443 -1.9994
26187SOL     OW79138   7.193   4.128   7.829  0.2367 -0.9338  0.7785
26187SOL    HW179139   7.174   4.192   7.898 -0.5130 -0.3201  0.0231
26187SOL    HW279140   7.115   4.128   7.775  0.4582 -2.0865  0.4374
26188SOL     OW79141   0.473   0.770   7.670  0.4848  0.1973 -0.2610
26188SOL    HW179142   0.470   0.730   7.757 -0.5141 -2.7525 -1.5420
26188SOL    HW279143   0.409   0.842   7.676 -1.2172 -1.3023  0.8950
26189SOL     OW79144   9.162   6.635   1.583  0.6415  0.0357  0.3148
26189SOL    HW179145   9.198   6.593   1.505  2.0922 -0.9656  1.4618
26189SOL    HW279146   9.098   6.572   1.616 -0.3877  0.7093 -0.3490
26190SOL     OW79147   6.245   7.875   2.442  0.4219  0.0627 -0.1306
26190SOL    HW179148   6.290   7.890   2.359  1.1965  0.8673  0.4202
26190SOL    HW279149   6.154   7.899   2.424  0.6625  0.6186 -0.6519
26191SOL     OW79150   7.037   6.822   6.265  0.5786  0.2359  0.1535
26191SOL    HW179151   7.043   6.779   6.180 -1.8514  0.1531 -0.0402
26191SOL    HW279152   6.974   6.893   6.252 -2.7575 -1.9880  2.6396
26192SOL     OW79153   4.811   0.193   5.154 -0.1940  0.4984  0.4123
26192SOL    HW179154   4.899   0.219   5.180  0.2423  0.5275 -0.9988
26192SOL    HW279155   4.766   0.276   5.135 -0.6225  0.4992  1.3770
26193SOL     OW79156   8.310   3.532   9.421  0.5109 -0.4093  0.3771
26193SOL    HW179157   8.277   3.484   9.498 -1.1658  0.4990  0.2673
26193SOL    HW279158   8.292   3.624   9.441 -0.3104 -0.1824 -1.2532
26194SOL     OW79159   4.606   5.393   8.884 -0.1420  0.0105 -0.0086
26194SOL    HW179160   4.693   5.393   8.923  0.1051 -1.4558 -0.5098
26194SOL    HW279161   4.618   5.353   8.798 -1.1879  0.4835 -0.3968
26195SOL     OW79162   6.962   6.693   6.962  0.1311 -0.3277 -0.3581
26195SOL    HW179163   6.933   6.773   7.005 -0.6034 -0.1784 -1.1207
26195SOL    HW279164   6.884   6.660   6.917  0.6241 -1.0511 -0.6972
26196SOL     OW79165   9.073   8.841   5.949 -0.2093  0.2899 -0.0511
26196SOL    HW179166   8.997   8.886   5.912 -1.3732 -0.5249  1.2286
26196SOL    HW279167   9.120   8.910   5.997 -1.9380  0.2554  1.8366
26197SOL     OW79168   1.546   3.412   5.701 -0.2463 -0.3661  0.2123
26197SOL    HW179169   1.539   3.325   5.741 -2.0323  0.0743  0.9728
26197SOL    HW279170   1.580   3.468   5.770 -0.8449 -0.1188  0.3140
26198SOL     OW79171   1.942   5.588   7.630 -0.1193  0.3168 -0.2942
26198SOL    HW179172   2.027   5.624   7.657  0.1534 -1.1517  0.9508
26198SOL    HW279173   1.900   5.659   7.581  0.2609  2.4210  2.2298
26199SOL     OW79174   1.307   6.311   7.950 -0.3207 -0.7735 -0.4428
26199SOL    HW179175   1.354   6.242   7.997  0.6998  0.2612  0.1119
26199SOL    HW279176   1.340   6.306   7.860  1.3429  0.2901  0.0543
26200SOL     OW79177   1.269   1.942   6.882  0.2746  0.5420  0.1595
26200SOL    HW179178   1.195   1.974   6.831 -0.3160  2.1710  1.8986
26200SOL    HW279179   1.317   2.021   6.908  2.8041 -0.4729 -1.0808
26201SOL     OW79180   7.165   4.577   3.868 -0.8084 -0.7946  0.1985
26201SOL    HW179181   7.119   4.527   3.935 -0.1438 -1.2265  0.3437
26201SOL    HW279182   7.159   4.668   3.897 -2.5387 -0.7063 -0.3760
26202SOL     OW79183   4.931   7.828   2.875  0.0196  0.4463  0.5011
26202SOL    HW179184   4.870   7.754   2.877 -0.0224  0.4558 -0.2622
26202SOL    HW279185   4.994   7.808   2.944 -0.8572  0.4477  1.3242
26203SOL     OW79186   2.168   6.663   1.901 -0.5475 -0.0005 -0.3547
26203SOL    HW179187   2.184   6.720   1.826 -0.3913  2.0541  1.1633
26203SOL    HW279188   2.076   6.637   1.892 -1.6443  3.1782  0.5662
26204SOL     OW79189   7.692   4.818   0.800 -0.0467 -0.1242  0.6554
26204SOL    HW179190   7.602   4.828   0.830  0.4100  0.6023  1.8831
26204SOL    HW279191   7.717   4.729   0.826 -0.5274 -0.4856 -0.0786
26205SOL     OW79192   5.873   7.314   4.635 -0.0292  0.1726  0.4026
26205SOL    HW179193   5.951   7.336   4.686 -0.7720  0.2327  1.5649
26205SOL    HW279194   5.824   7.254   4.692 -1.8995  1.8656  0.7092
26206SOL     OW79195   9.793   0.143   5.126  0.2700  0.0978  0.4311
26206SOL    HW179196   9.803   0.216   5.186 -0.6433  1.0186 -0.4799
26206SOL    HW279197   9.865   0.153   5.064 -0.3539  0.7810 -0.2121
26207SOL     OW79198   0.159   4.542   3.642 -0.2503 -0.0810  0.7259
26207SOL    HW179199   0.195   4.519   3.728  1.5429  0.8884  0.2798
26207SOL    HW279200   0.163   4.637   3.639  0.4213 -0.1298 -0.6979
26208SOL     OW79201   6.431   4.852   9.066  0.0800 -0.5936  0.1826
26208SOL    HW179202   6.422   4.916   9.136  0.0560 -0.3487 -0.0467
26208SOL    HW279203   6.444   4.903   8.987 -2.5486 -0.7529 -0.4443
26209SOL     OW79204   0.839   2.874   3.862  0.1315 -0.2554 -0.3884
26209SOL    HW179205   0.767   2.847   3.806 -0.0022 -1.0863  0.1583
26209SOL    HW279206   0.857   2.965   3.838 -1.4632  0.1479 -0.1500
26210SOL     OW79207   4.836   5.531   2.655 -0.8606 -0.2760 -0.1458
26210SOL    HW179208   4.908   5.594   2.646 -1.1426 -0.1074 -1.5245
26210SOL    HW279209   4.757   5.585   2.663 -0.9837 -0.4494 -0.1806
26211SOL     OW79210   5.356   7.973   3.530  0.1425 -0.3169 -0.5703
26211SOL    HW179211   5.279   7.940   3.576  0.1141 -0.1920 -0.5277
26211SOL    HW279212   5.418   7.997   3.599  0.9007 -2.0026 -0.6191
26212SOL     OW79213   1.411   3.044   2.009 -0.1613  0.2799 -0.1733
26212SOL    HW179214   1.443   3.119   2.059 -0.4558  0.0807  0.3195
26212SOL    HW279215   1.425   2.969   2.066 -1.2010  0.1509 -0.0619
26213SOL     OW79216   3.974   1.440   3.589 -0.0404  0.5521  0.2532
26213SOL    HW179217   4.039   1.427   3.520  0.1015  0.5798  0.3798
26213SOL    HW279218   3.914   1.505   3.554 -1.3095 -1.0918 -0.7690
26214SOL     OW79219   3.985   5.744   8.800 -0.4324 -0.0555 -0.1967
26214SOL    HW179220   4.081   5.747   8.802 -0.4502  1.6518  2.6680
26214SOL    HW279221   3.960   5.697   8.879 -1.9637  1.9910  0.6112
26215SOL     OW79222   8.370   8.328   7.188 -0.1482  0.1264 -0.0562
26215SOL    HW179223   8.441   8.300   7.131  0.1886  0.9316 -0.0342
26215SOL    HW279224   8.389   8.420   7.208 -0.6644  0.0721  0.7369
26216SOL     OW79225   0.198   9.063   9.740 -0.8048 -0.3867  0.0725
26216SOL    HW179226   0.139   9.055   9.665 -1.8134 -0.0132  0.7967
26216SOL    HW279227   0.285   9.064   9.702 -1.2481 -1.1692 -1.0195
26217SOL     OW79228   2.728   2.597   4.899  0.3915  0.2118 -0.3584
26217SOL    HW179229   2.697   2.679   4.861 -2.2505 -0.1419  0.8495
26217SOL    HW279230   2.651   2.541   4.903  2.1674 -2.5379 -1.4564
26218SOL     OW79231   5.507   0.871   4.129 -0.2045 -0.5962 -0.5238
26218SOL    HW179232   5.595   0.875   4.167 -0.6001  1.2491  0.3116
26218SOL    HW279233   5.515   0.808   4.058  1.7254 -0.6717 -0.3060
26219SOL     OW79234   2.284   9.404   0.999 -0.3831  0.1372  0.5299
26219SOL    HW179235   2.233   9.346   1.056  1.7562 -1.8621  0.5675
26219SOL    HW279236   2.326   9.344   0.936 -0.7768  2.0395 -1.6838
26220SOL     OW79237   0.470   2.848   7.785  0.2266 -0.2541 -0.3699
26220SOL    HW179238   0.397   2.793   7.756 -0.5257  0.8770 -0.6597
26220SOL    HW279239   0.473   2.836   7.880  0.8417 -1.7026 -0.5394
26221SOL     OW79240   9.492   7.591   9.140  0.3498 -0.4105 -0.0347
26221SOL    HW179241   9.471   7.680   9.111 -0.7590 -0.9611 -1.0040
26221SOL    HW279242   9.530   7.603   9.227  0.3450  1.0202 -0.1954
26222SOL     OW79243   2.692   0.234   3.706 -0.4373 -0.3566 -0.0691
26222SOL    HW179244   2.692   0.322   3.744 -0.0115 -0.5778  0.4618
26222SOL    HW279245   2.669   0.177   3.779 -1.5869 -0.6209 -0.6066
26223SOL     OW79246   0.614   2.103   0.752 -0.0286 -0.0994 -1.2831
26223SOL    HW179247   0.653   2.183   0.716 -0.3006 -0.2300 -1.8738
26223SOL    HW279248   0.524   2.127   0.772 -0.1840 -0.3247 -1.7001
26224SOL     OW79249   4.822   9.555   8.768 -0.0945  0.0666  0.3958
26224SOL    HW179250   4.916   9.570   8.773  0.0966 -0.6816 -0.6087
26224SOL    HW279251   4.799   9.513   8.851  0.5722 -0.3693  0.3583
26225SOL     OW79252   4.909   8.003   7.469 -0.0980  0.3648 -0.3199
26225SOL    HW179253   4.981   7.948   7.501 -0.8265  0.2750  1.2634
26225SOL    HW279254   4.951   8.087   7.449  0.5809  0.0642 -0.2002
26226SOL     OW79255   6.194   4.312   9.766 -0.4573  0.5188 -0.0762
26226SOL    HW179256   6.155   4.350   9.687  0.1456 -0.6764 -0.9918
26226SOL    HW279257   6.197   4.218   9.748  1.9730  0.4598  0.3067
26227SOL     OW79258   9.072   1.997   1.115 -0.1165  0.0238 -0.5440
26227SOL    HW179259   8.987   1.990   1.159  0.2006  2.0085  0.4873
26227SOL    HW279260   9.055   1.966   1.026 -1.3109 -1.9221  0.2905
26228SOL     OW79261   5.436   1.656   7.100 -0.0178  0.3324  0.2788
26228SOL    HW179262   5.524   1.689   7.082 -0.0885 -0.2030 -1.2382
26228SOL    HW279263   5.449   1.580   7.156  0.3383  1.2551  1.4969
26229SOL     OW79264   9.158   4.862   0.740  0.4059  0.3577 -0.0302
26229SOL    HW179265   9.125   4.853   0.830  2.1025 -0.1255  0.5824
26229SOL    HW279266   9.186   4.953   0.734 -1.9536  1.0889 -0.9213
26230SOL     OW79267   9.524   9.652   3.364 -0.5129  0.6585  0.7701
26230SOL    HW179268   9.469   9.723   3.332  1.0608  1.8493  0.5385
26230SOL    HW279269   9.566   9.688   3.442  1.2000  0.4434 -0.0051
26231SOL     OW79270   9.263   8.576   9.532 -0.1953 -0.0739  0.5042
26231SOL    HW179271   9.274   8.561   9.438 -1.0394 -0.2979  0.4343
26231SOL    HW279272   9.186   8.634   9.538  0.6266  1.0093  0.9863
26232SOL     OW79273   2.698   3.904   0.818  0.0135  0.3651  0.0852
26232SOL    HW179274   2.608   3.911   0.851 -0.2865 -0.4229 -0.5480
26232SOL    HW279275   2.689   3.896   0.723  0.8121  1.2797 -0.0886
26233SOL     OW79276   0.647   1.445   3.975  0.3711  0.5746  0.3357
26233SOL    HW179277   0.648   1.352   3.998 -0.8242  0.4847  0.0690
26233SOL    HW279278   0.612   1.488   4.053  0.1181  0.7096  0.1458
26234SOL     OW79279   8.418   4.262   0.945 -0.2066 -0.4432 -0.1710
26234SOL    HW179280   8.448   4.223   1.027 -0.2504  0.5435  0.3251
26234SOL    HW279281   8.348   4.322   0.971  0.1845  0.3270 -0.8527
26235SOL     OW79282   2.960   7.986   5.643 -0.5216  0.0709 -0.3489
26235SOL    HW179283   3.044   7.962   5.682 -0.3353 -0.7927 -1.2440
26235SOL    HW279284   2.920   7.902   5.619 -1.3388  0.5094 -0.5501
26236SOL     OW79285   1.218   1.386   8.190 -0.3288 -0.5837 -0.1088
26236SOL    HW179286   1.212   1.456   8.255  1.0041 -1.4883  1.0587
26236SOL    HW279287   1.299   1.404   8.143 -0.2644 -1.0264 -0.1745
26237SOL     OW79288   2.500   2.985   7.739  0.2095 -0.1903  0.0063
26237SOL    HW179289   2.504   3.072   7.779  0.3116 -1.3735  2.8297
26237SOL    HW279290   2.408   2.975   7.714 -0.2506  0.0046  1.5255
26238SOL     OW79291   0.678   9.053   5.266 -0.0928  0.5165  0.8891
26238SOL    HW179292   0.636   8.968   5.250 -0.1044  0.6675  0.0680
26238SOL    HW279293   0.769   9.031   5.285  0.7309  0.4159 -2.4073
26239SOL     OW79294   9.011   5.617   7.877 -0.8283  0.5735 -0.6416
26239SOL    HW179295   8.969   5.676   7.940  1.0335 -1.4582  2.8022
26239SOL    HW279296   9.105   5.630   7.891 -0.3250 -0.2033 -2.8692
26240SOL     OW79297   7.793   2.741   1.370  0.6450  0.2330 -0.2787
26240SOL    HW179298   7.709   2.744   1.416  0.9162  1.0795  0.1979
26240SOL    HW279299   7.788   2.664   1.315 -0.0324 -0.3322  0.5466
26241SOL     OW79300   2.061   0.261   7.992 -0.3911  0.8504 -0.1339
26241SOL    HW179301   2.123   0.293   8.058 -1.3146  0.9277  0.7199
26241SOL    HW279302   2.065   0.166   8.001 -0.8600  0.8726  0.3766
26242SOL     OW79303   3.497   8.146   0.029  0.0145  0.1811 -0.0013
26242SOL    HW179304   3.528   8.060  -0.000  3.0157  0.4403  1.9225
26242SOL    HW279305   3.432   8.126   0.096 -0.5369 -0.5423 -0.7273
26243SOL     OW79306   3.573   4.997   0.196 -0.0721  0.0143  0.2733
26243SOL    HW179307   3.601   5.054   0.125 -1.7225 -1.2190 -1.4596
26243SOL    HW279308   3.625   4.917   0.183 -1.9623 -1.0741 -1.0192
26244SOL     OW79309   7.214   8.496   5.738  0.4225  0.2985 -0.2397
26244SOL    HW179310   7.182   8.412   5.707 -0.0726  0.1900  0.5456
26244SOL    HW279311   7.284   8.474   5.799 -0.7789  0.3724  1.2141
26245SOL     OW79312   0.876   9.702   8.693 -0.1898 -0.1390  0.1541
26245SOL    HW179313   0.867   9.689   8.788 -1.8131  0.6454  0.1416
26245SOL    HW279314   0.871   9.797   8.682  1.5610 -0.0970 -0.6081
26246SOL     OW79315   1.176   7.422   9.658  0.3889 -0.1511  0.3053
26246SOL    HW179316   1.161   7.361   9.585  0.2018  0.6966 -0.3879
26246SOL    HW279317   1.091   7.428   9.701  0.7394 -1.4348  1.2456
26247SOL     OW79318   4.386   0.606   4.563 -0.2158  0.0293 -0.1710
26247SOL    HW179319   4.307   0.575   4.519 -0.2691  0.4387 -0.3631
26247SOL    HW279320   4.421   0.528   4.607 -2.1315  0.3144  2.0752
26248SOL     OW79321   0.602   7.487   9.632 -0.3681 -0.4257  0.4777
26248SOL    HW179322   0.563   7.570   9.603  0.0259  0.0717  1.3466
26248SOL    HW279323   0.528   7.432   9.654 -0.6349 -0.3184 -0.1231
26249SOL     OW79324   7.922   9.948   1.475  0.1298 -0.0507 -0.3735
26249SOL    HW179325   7.876   9.865   1.487 -0.4369  0.0083 -1.9669
26249SOL    HW279326   7.910   9.993   1.559 -0.6464 -1.0417  0.0725
26250SOL     OW79327   3.744   2.190   3.394 -0.4069 -0.2748  0.3740
26250SOL    HW179328   3.667   2.194   3.451 -1.5783  1.7803 -1.2288
26250SOL    HW279329   3.793   2.270   3.416 -0.1607 -0.1809 -0.5007
26251SOL     OW79330   4.395   0.114   8.602  0.1975  0.2896 -0.3696
26251SOL    HW179331   4.462   0.144   8.663  2.1715  2.3612 -3.2953
26251SOL    HW279332   4.415   0.022   8.587  2.1788  0.7449 -0.8105
26252SOL     OW79333   6.509   8.147   3.299 -0.2574  0.1470  0.0777
26252SOL    HW179334   6.596   8.174   3.271  0.1489 -1.2892 -0.0926
26252SOL    HW279335   6.450   8.183   3.232  0.0861  1.8104  0.6205
26253SOL     OW79336   5.673   1.379   4.293  0.2673 -0.1330  0.6370
26253SOL    HW179337   5.635   1.305   4.340  0.7509 -0.3110  0.7498
26253SOL    HW279338   5.726   1.424   4.359  1.5279 -0.7886  0.1020
26254SOL     OW79339   8.651   7.559   1.813 -0.0684  0.0094 -0.0077
26254SOL    HW179340   8.674   7.558   1.720  0.8309 -1.0729  0.2119
26254SOL    HW279341   8.564   7.599   1.815 -1.0778 -1.9182 -1.5492
26255SOL     OW79342   1.330   3.265   5.615 -0.3510  0.2952 -0.3914
26255SOL    HW179343   1.386   3.343   5.611  0.9188 -0.6432 -1.6396
26255SOL    HW279344   1.263   3.288   5.680 -0.6143  2.8012 -1.4069
26256SOL     OW79345   4.214   4.405   0.109  0.2386  0.2271 -0.0118
26256SOL    HW179346   4.209   4.378   0.200  1.3090 -0.1722 -0.0531
26256SOL    HW279347   4.217   4.501   0.112  2.4879  0.2009  0.5570
26257SOL     OW79348   1.898   6.112   7.931  0.2830  0.4617 -0.3763
26257SOL    HW179349   1.871   6.077   7.846 -1.3485  1.0833 -0.1512
26257SOL    HW279350   1.829   6.084   7.991  0.2073  1.9506  0.2793
26258SOL     OW79351   5.164   9.413   0.257  0.9264  0.3591 -0.2290
26258SOL    HW179352   5.244   9.428   0.207 -0.2371  1.2265 -1.9418
26258SOL    HW279353   5.117   9.346   0.208 -0.0020  0.8236 -0.0015
26259SOL     OW79354   0.441   6.301   0.297  0.0183  0.6156  0.2857
26259SOL    HW179355   0.369   6.361   0.281 -1.1044 -1.0426 -1.2301
26259SOL    HW279356   0.451   6.252   0.215  2.0103 -0.1085  0.8862
26260SOL     OW79357   5.179   8.632   6.738  0.1150  1.0663  0.1351
26260SOL    HW179358   5.181   8.548   6.693 -1.2019  1.2306 -0.2846
26260SOL    HW279359   5.146   8.694   6.672  1.0917  1.9220  0.4226
26261SOL     OW79360   4.709   8.869   4.287  0.0333 -0.2228 -0.3264
26261SOL    HW179361   4.643   8.861   4.218 -0.5972  2.5838 -0.1855
26261SOL    HW279362   4.727   8.963   4.291  1.9564 -0.6003  1.6129
26262SOL     OW79363   8.547   1.492   7.551  0.4112  0.2584 -0.2870
26262SOL    HW179364   8.612   1.474   7.483  0.2475 -0.9235 -0.1566
26262SOL    HW279365   8.589   1.462   7.632  0.0784  0.3854 -0.0689
26263SOL     OW79366   3.214   2.035   0.121  0.0463 -0.5220 -0.0823
26263SOL    HW179367   3.293   2.085   0.136 -0.9432  0.5951  1.7332
26263SOL    HW279368   3.153   2.063   0.189 -2.0056 -1.1720 -1.5118
26264SOL     OW79369   0.248   4.891   2.985  0.0975 -0.6729 -0.5177
26264SOL    HW179370   0.258   4.879   2.890  1.4455 -0.3234 -0.4455
26264SOL    HW279371   0.273   4.806   3.023  3.5737  0.2819 -0.3215
26265SOL     OW79372   0.220   9.357   5.005  0.4235  0.2053  0.2168
26265SOL    HW179373   0.145   9.324   4.956  0.7617  0.7673 -0.7140
26265SOL    HW279374   0.296   9.321   4.959  0.7415 -1.6658  2.0863
26266SOL     OW79375   7.213   7.745   4.305  0.6848  0.2349  0.0784
26266SOL    HW179376   7.266   7.794   4.241  0.2194 -0.9331 -1.2667
26266SOL    HW279377   7.237   7.654   4.290 -0.5127 -0.1793  0.5630
26267SOL     OW79378   8.054   6.434   9.559  0.0524  0.0378 -0.1700
26267SOL    HW179379   8.112   6.399   9.492 -0.8412 -1.9698  0.0253
26267SOL    HW279380   7.974   6.457   9.512  0.3846  1.2528 -0.1826
26268SOL     OW79381   4.496   5.850   7.858 -0.6211  0.8017  0.3205
26268SOL    HW179382   4.552   5.865   7.781  2.1114 -0.5307  1.8765
26268SOL    HW279383   4.451   5.768   7.839  0.2240  0.3512  0.1978
26269SOL     OW79384   3.758   8.766   2.924  0.2754 -0.0967  0.5808
26269SOL    HW179385   3.749   8.746   3.018 -0.0958 -0.0532  0.5559
26269SOL    HW279386   3.736   8.859   2.917  0.5326 -0.0434  0.4824
26270SOL     OW79387   7.840   6.017   8.570 -0.2284 -0.4628 -0.1174
26270SOL    HW179388   7.905   5.950   8.593 -1.6995 -1.6371  0.7694
26270SOL    HW279389   7.786   5.977   8.502 -0.1967  0.4157 -0.6766
26271SOL     OW79390   4.434   2.328   3.199  0.0872 -0.0100  0.1296
26271SOL    HW179391   4.422   2.397   3.135  2.4683 -1.1468 -1.7134
26271SOL    HW279392   4.492   2.366   3.265 -1.5762  0.8459  1.1661
26272SOL     OW79393   9.774   0.936   1.168  0.5286 -0.4077  0.6267
26272SOL    HW179394   9.686   0.910   1.143  0.2625  1.1841 -0.2165
26272SOL    HW279395   9.820   0.949   1.085  0.6363  1.6615  0.9516
26273SOL     OW79396   8.534   7.037   6.688  0.2250  0.3874  0.0115
26273SOL    HW179397   8.580   6.966   6.641 -1.7296 -1.7076  1.0682
26273SOL    HW279398   8.450   7.045   6.642 -0.4159  0.5504  1.1914
26274SOL     OW79399   7.914   1.534   4.799  0.7127 -0.0438 -0.2365
26274SOL    HW179400   7.845   1.600   4.808  1.1308  0.2090  1.4055
26274SOL    HW279401   7.904   1.478   4.876  1.3238 -0.9864 -0.8296
26275SOL     OW79402   8.832   4.106   5.164 -0.2043  0.0724 -0.3418
26275SOL    HW179403   8.750   4.142   5.199 -0.8634  0.3344 -2.0773
26275SOL    HW279404   8.881   4.183   5.135  0.7082 -0.0789  0.7323
26276SOL     OW79405   4.174   6.710   6.920  0.9679 -0.6306  0.5013
26276SOL    HW179406   4.088   6.669   6.930  0.9808 -0.7698  0.0621
26276SOL    HW279407   4.204   6.726   7.009 -0.4582  1.3874  0.7031
26277SOL     OW79408   9.076   0.006   5.165 -0.1169  0.2862  0.7422
26277SOL    HW179409   9.042  -0.057   5.229 -2.6899 -1.4770 -2.1057
26277SOL    HW279410   9.010   0.075   5.162 -0.3107  0.0706 -0.3385
26278SOL     OW79411   1.026   0.975   8.644  0.3066  0.6178 -0.3876
26278SOL    HW179412   1.076   0.976   8.562  3.9602 -1.3086  1.5296
26278SOL    HW279413   0.993   1.064   8.653 -1.7937  0.5226 -4.6471
26279SOL     OW79414   4.170   4.332   4.907 -0.7207 -0.3310 -0.4923
26279SOL    HW179415   4.231   4.264   4.878 -1.7686 -1.4176 -0.2551
26279SOL    HW279416   4.133   4.367   4.825  1.0440  1.1889 -0.7031
26280SOL     OW79417   6.781   7.902   7.383 -0.3987  0.2476 -0.0776
26280SOL    HW179418   6.817   7.987   7.406 -0.9988  0.4986 -0.0466
26280SOL    HW279419   6.854   7.854   7.345 -0.4917  1.4750 -1.9658
26281SOL     OW79420   4.731   9.087   4.987  0.2426 -0.0963 -0.2737
26281SOL    HW179421   4.674   9.153   4.948  0.1969 -1.0292 -1.8459
26281SOL    HW279422   4.760   9.126   5.069 -1.6889  0.9003 -0.0078
26282SOL     OW79423   2.381   4.649   4.141  0.5770  0.1276  0.1980
26282SOL    HW179424   2.433   4.721   4.104  0.7565  0.8947  1.8743
26282SOL    HW279425   2.411   4.641   4.231 -0.1378 -1.4229  0.3270
26283SOL     OW79426   3.185   9.604   4.285 -0.0457  0.1020  0.2360
26283SOL    HW179427   3.275   9.599   4.253  0.4313  2.2937  1.0371
26283SOL    HW279428   3.185   9.678   4.346 -2.6600  0.9687 -0.6499
26284SOL     OW79429   5.077   9.457   0.640  0.2257  0.2792 -0.0953
26284SOL    HW179430   5.097   9.375   0.685  2.5321  1.6129  1.5644
26284SOL    HW279431   5.008   9.497   0.692 -1.2772 -0.7518 -1.2020
26285SOL     OW79432   3.319   8.294   6.949  0.1455  0.0357  0.3003
26285SOL    HW179433   3.295   8.232   7.018 -0.2137  2.0221  2.0711
26285SOL    HW279434   3.407   8.268   6.923  0.1353 -1.0080  1.2188
26286SOL     OW79435   3.832   5.914   8.662 -0.4287 -0.3996 -0.1503
26286SOL    HW179436   3.898   5.963   8.613  0.3686 -0.6717  0.6331
26286SOL    HW279437   3.882   5.858   8.722 -1.3690  0.9994  2.0491
26287SOL     OW79438   0.049   3.586   2.361 -0.1758  0.3846  0.2654
26287SOL    HW179439  -0.023   3.536   2.398 -0.5552  1.8221  1.5488
26287SOL    HW279440   0.109   3.600   2.434 -0.3763  2.2897  0.1239
26288SOL     OW79441   1.274   3.878   8.152 -0.4057  0.2638 -0.1797
26288SOL    HW179442   1.216   3.948   8.121  0.2622  0.9200  0.0219
26288SOL    HW279443   1.357   3.922   8.171  0.0197 -0.5836 -0.0220
26289SOL     OW79444   2.032   0.506   4.787  0.3875  0.0811  0.2198
26289SOL    HW179445   1.985   0.526   4.705  1.6307  3.1541  0.1137
26289SOL    HW279446   2.067   0.418   4.774 -3.6405 -1.6640 -0.4170
26290SOL     OW79447   4.863   6.274   3.130 -0.4362 -0.3029 -0.5702
26290SOL    HW179448   4.830   6.187   3.151  1.9166 -1.4605 -1.3704
26290SOL    HW279449   4.879   6.315   3.215  0.6791 -1.5762 -0.1385
26291SOL     OW79450   9.951   4.256   2.959 -0.0846  0.3105 -0.0544
26291SOL    HW179451   9.958   4.231   3.052 -1.1768  0.3674  0.0517
26291SOL    HW279452   9.945   4.173   2.913  4.6938 -0.0093 -0.5569
26292SOL     OW79453   1.727   2.320   0.375 -0.2307 -0.5923  1.0768
26292SOL    HW179454   1.729   2.413   0.397 -2.5332 -0.6279  1.6836
26292SOL    HW279455   1.745   2.317   0.281 -0.5415  0.5072  0.9685
26293SOL     OW79456   7.958   7.366   9.965 -0.1561 -0.8512 -0.3419
26293SOL    HW179457   7.884   7.363   9.905  1.7348  0.0380 -2.9044
26293SOL    HW279458   8.004   7.447   9.942  1.1534 -0.9110  1.7687
26294SOL     OW79459   8.279   4.320   0.009  0.2398  0.0100  0.1192
26294SOL    HW179460   8.305   4.249   0.067 -1.3799 -0.4845  0.2930
26294SOL    HW279461   8.325   4.302  -0.073  0.3092 -0.9076  0.3494
26295SOL     OW79462   6.840   4.840   7.092 -0.1324 -0.2239 -0.0796
26295SOL    HW179463   6.875   4.753   7.072 -1.3587 -0.6691 -0.3802
26295SOL    HW279464   6.752   4.841   7.052 -0.3306  0.9795  0.3294
26296SOL     OW79465   4.894   9.694   3.663 -0.6409 -0.1094  0.0176
26296SOL    HW179466   4.835   9.649   3.724  0.0317  0.2855  0.9857
26296SOL    HW279467   4.892   9.786   3.690  0.0814 -0.0171 -0.2023
26297SOL     OW79468   1.104   4.626   6.212  0.4070  0.0437  0.4398
26297SOL    HW179469   1.136   4.700   6.263 -0.2558 -0.5112  1.7185
26297SOL    HW279470   1.059   4.571   6.276  0.2102 -1.0728 -0.6235
26298SOL     OW79471   7.234   6.702   9.143 -0.5719 -0.1367 -0.2066
26298SOL    HW179472   7.210   6.615   9.175  0.2402 -0.2986 -0.0095
26298SOL    HW279473   7.201   6.705   9.054 -0.6899 -0.6107 -0.1807
26299SOL     OW79474   3.834   7.391   9.658  0.2883  0.0662 -0.2742
26299SOL    HW179475   3.873   7.310   9.626  1.3144  0.9770 -1.3898
26299SOL    HW279476   3.805   7.438   9.579  1.3425  1.5876  0.1941
26300SOL     OW79477   1.015   8.520   7.225 -0.1199 -0.8583  0.3403
26300SOL    HW179478   1.084   8.585   7.240 -0.8647  0.4116 -1.3500
26300SOL    HW279479   0.938   8.572   7.203 -0.9308 -2.3092 -0.3869
26301SOL     OW79480   2.348   2.856   9.396 -0.5654 -0.9583  0.2966
26301SOL    HW179481   2.287   2.926   9.372 -1.4808 -1.6239  0.6438
26301SOL    HW279482   2.294   2.791   9.440  0.0886 -2.3561 -0.9058
26302SOL     OW79483   9.872   7.160   9.968  0.2356 -0.4124  0.0030
26302SOL    HW179484   9.959   7.122   9.958  0.5887  0.3027  0.2875
26302SOL    HW279485   9.887   7.245  10.011 -0.4382  0.4849 -1.4444
26303SOL     OW79486   5.452   9.439   4.813 -0.2071 -0.0527 -0.0615
26303SOL    HW179487   5.462   9.422   4.719 -1.2912  0.4568 -0.2865
26303SOL    HW279488   5.361   9.419   4.831  0.4609 -2.1938  1.3643
26304SOL     OW79489   2.755   7.516   6.827  0.0027  0.1389 -0.0521
26304SOL    HW179490   2.680   7.575   6.840 -0.4710 -0.4036 -0.2527
26304SOL    HW279491   2.731   7.437   6.876 -0.3709 -0.7213 -1.5554
26305SOL     OW79492   8.511   5.994   8.528  0.5094 -0.3224  0.8850
26305SOL    HW179493   8.534   6.087   8.537 -0.7420  0.0922  0.0279
26305SOL    HW279494   8.417   5.994   8.512  0.9662 -1.4395 -2.8847
26306SOL     OW79495   4.291   5.816   6.727 -0.0704  0.1996  0.0027
26306SOL    HW179496   4.369   5.824   6.782  1.0730  1.2943 -1.6856
26306SOL    HW279497   4.248   5.736   6.758  0.6847  0.5930  2.2204
26307SOL     OW79498   9.205   6.646   4.874 -0.5329  0.0810  0.0462
26307SOL    HW179499   9.194   6.709   4.804  0.4066  0.2908  0.0822
26307SOL    HW279500   9.178   6.563   4.836  1.0676 -0.0238 -0.9584
26308SOL     OW79501   5.219   5.117   9.892  0.1412  0.0914  0.3333
26308SOL    HW179502   5.208   5.176   9.966 -0.7097  0.0783  0.2331
26308SOL    HW279503   5.222   5.175   9.816  1.4678  0.1359  0.4017
26309SOL     OW79504   1.226   5.327   7.084 -0.2323  0.4749  0.2432
26309SOL    HW179505   1.148   5.279   7.112 -0.1224 -0.1716 -0.5254
26309SOL    HW279506   1.204   5.419   7.096 -0.9693  0.2800  0.3981
26310SOL     OW79507   8.682   7.051   9.604  0.0416  0.1477  0.1104
26310SOL    HW179508   8.628   6.994   9.549  1.0548 -1.7844  1.0261
26310SOL    HW279509   8.765   7.059   9.556  0.5159 -0.5969  0.7831
26311SOL     OW79510   0.106   1.501   3.811  0.0327 -0.0853 -0.1680
26311SOL    HW179511   0.106   1.414   3.771 -1.3315  0.4055 -1.3854
26311SOL    HW279512   0.189   1.507   3.857  0.9833 -1.3388 -1.6120
26312SOL     OW79513   6.586   3.408   1.222 -0.3332 -0.5067 -0.2745
26312SOL    HW179514   6.630   3.458   1.152  0.6613 -2.2202 -0.9397
26312SOL    HW279515   6.572   3.472   1.292 -0.2037  0.9700 -1.5363
26313SOL     OW79516   6.072   5.134   8.317 -0.3450  0.6443  0.2822
26313SOL    HW179517   6.098   5.154   8.407 -0.8220  1.7845  0.1934
26313SOL    HW279518   5.977   5.120   8.322 -0.0257 -1.9887  0.3671
26314SOL     OW79519   3.971   5.818   6.787 -0.1000 -0.0619 -0.0916
26314SOL    HW179520   3.978   5.820   6.692 -0.1755 -0.8480 -0.1206
26314SOL    HW279521   3.880   5.838   6.806  0.3988  2.4115 -0.0676
26315SOL     OW79522   9.936   2.052   1.907  0.0703  0.1896 -0.6099
26315SOL    HW179523   9.985   2.084   1.832 -1.5307 -1.3846 -2.4570
26315SOL    HW279524   9.951   1.957   1.907  0.2600  0.1789  1.2590
26316SOL     OW79525   9.455   2.581   1.451  0.1281 -0.0047  0.5969
26316SOL    HW179526   9.379   2.584   1.510 -0.0744 -1.1565  0.4166
26316SOL    HW279527   9.500   2.500   1.474  1.5000  0.8341  0.9193
26317SOL     OW79528   3.219   3.549   0.306  0.6648 -0.1126 -0.4351
26317SOL    HW179529   3.290   3.520   0.249  1.7103  2.6605 -0.6924
26317SOL    HW279530   3.139   3.521   0.261  1.5292 -1.0182 -1.4653
26318SOL     OW79531   0.106   0.203   9.545 -0.4608 -0.0384 -0.8404
26318SOL    HW179532   0.192   0.181   9.581 -1.3861 -1.8208  0.4492
26318SOL    HW279533   0.098   0.146   9.468 -0.6401 -0.1389 -0.7456
26319SOL     OW79534   9.617   7.062   6.165 -0.9214 -0.5553 -0.1889
26319SOL    HW179535   9.674   7.137   6.182 -0.7864 -0.3464 -1.5118
26319SOL    HW279536   9.616   7.014   6.248 -0.6210  0.6367  0.5259
26320SOL     OW79537   7.686   6.893   3.155 -0.4134 -0.0279 -0.2500
26320SOL    HW179538   7.735   6.938   3.086 -1.7621  1.3915 -0.3362
26320SOL    HW279539   7.745   6.824   3.185  0.6127 -0.0205 -2.0997
26321SOL     OW79540   9.245   7.321   4.953  0.0074 -0.3130  0.3053
26321SOL    HW179541   9.328   7.291   4.989 -0.5883 -1.8427  0.4831
26321SOL    HW279542   9.256   7.416   4.941  1.8161 -0.5131  0.1568
26322SOL     OW79543   1.060   1.935   7.315 -0.5267 -0.5440  0.7353
26322SOL    HW179544   1.127   1.910   7.250 -1.7663  0.3635 -0.9721
26322SOL    HW279545   1.004   1.857   7.322  0.7773 -1.4017  2.3662
26323SOL     OW79546   2.386   1.084   8.446 -0.0998  0.1052 -0.1325
26323SOL    HW179547   2.418   1.164   8.404 -0.6938  0.6571  0.4493
26323SOL    HW279548   2.465   1.037   8.472  0.2604  0.9134  0.2699
26324SOL     OW79549   0.434   3.724   8.380  0.8165  0.3059  0.0841
26324SOL    HW179550   0.520   3.762   8.397  0.3386  1.2945  0.3601
26324SOL    HW279551   0.396   3.780   8.312  0.3253 -0.0207  0.0872
26325SOL     OW79552   0.983   2.957   2.727 -0.0659  0.3181 -0.2792
26325SOL    HW179553   1.060   2.960   2.783 -0.3047  1.8067  0.0006
26325SOL    HW279554   1.015   2.981   2.640 -0.2587  1.2180 -0.1042
26326SOL     OW79555   6.689   0.552   9.970  0.0819 -0.7744  0.6469
26326SOL    HW179556   6.714   0.461   9.989  0.2490 -0.8943 -0.1208
26326SOL    HW279557   6.762   0.587   9.918 -0.6332 -0.6631 -0.3200
26327SOL     OW79558   3.709   4.956   5.727  0.1996 -0.5163 -0.1514
26327SOL    HW179559   3.769   4.923   5.794 -0.1709  0.2540  0.5745
26327SOL    HW279560   3.754   5.032   5.690  0.0349 -0.4379 -0.1906
26328SOL     OW79561   8.684   4.225   7.468  0.0082  0.5044  0.3474
26328SOL    HW179562   8.674   4.302   7.524 -0.0223 -0.0635  1.1593
26328SOL    HW279563   8.774   4.230   7.436 -0.3535  1.4705 -0.5341
26329SOL     OW79564   2.772   1.327   9.811  0.3162  0.3995  0.3748
26329SOL    HW179565   2.810   1.265   9.748  2.6669  2.3668 -0.3167
26329SOL    HW279566   2.792   1.289   9.897 -0.8412 -1.1642 -0.0140
26330SOL     OW79567   5.531   6.025   7.819  0.0985  0.3447 -0.2337
26330SOL    HW179568   5.549   5.997   7.729 -1.1421 -1.1661 -0.0526
26330SOL    HW279569   5.618   6.040   7.857  0.6286  1.7212 -1.8649
26331SOL     OW79570   7.521   5.259   4.914 -0.3131  0.1754 -0.6148
26331SOL    HW179571   7.610   5.226   4.905 -0.6101 -0.4751 -1.2714
26331SOL    HW279572   7.472   5.187   4.952 -0.4590  0.7154  0.2541
26332SOL     OW79573   3.742   8.150   4.092 -0.6304  0.0827  0.2448
26332SOL    HW179574   3.730   8.061   4.058 -0.1139 -0.0431  0.3734
26332SOL    HW279575   3.775   8.200   4.018 -0.6194  0.0884  0.2537
26333SOL     OW79576   8.841   3.624   5.546 -0.4267 -0.3001 -0.2239
26333SOL    HW179577   8.917   3.682   5.553 -1.1090  0.5412  0.4446
26333SOL    HW279578   8.878   3.539   5.524  0.6082  0.3813 -1.2714
26334SOL     OW79579   8.054   8.459   4.845 -0.0865 -0.2643  0.1825
26334SOL    HW179580   7.959   8.453   4.846 -0.0447 -1.3271 -0.5668
26334SOL    HW279581   8.079   8.428   4.758  0.9843 -0.7784  0.6605
26335SOL     OW79582   2.825   7.189   9.229 -0.1285  0.0771 -0.7887
26335SOL    HW179583   2.875   7.186   9.312 -0.6111 -2.0946 -0.4975
26335SOL    HW279584   2.759   7.256   9.243 -0.9114 -1.0046  1.0656
26336SOL     OW79585   5.622   7.528   8.526  0.5988 -0.3742  0.6789
26336SOL    HW179586   5.594   7.552   8.615  0.8047  0.5784  0.5040
26336SOL    HW279587   5.641   7.612   8.485 -0.4402 -0.7360 -0.5927
26337SOL     OW79588   6.943   9.921   4.956 -0.2506 -0.8816 -0.2897
26337SOL    HW179589   6.879   9.852   4.973 -1.8237  1.2760  3.7736
26337SOL    HW279590   7.020   9.896   5.008 -0.8251  0.2482  1.2005
26338SOL     OW79591   4.924   8.744   3.376  0.2618 -0.5420 -0.1505
26338SOL    HW179592   4.890   8.734   3.287 -0.2418  0.7334 -0.1154
26338SOL    HW279593   4.896   8.663   3.421 -1.0776 -0.3890 -0.6556
26339SOL     OW79594   6.739   0.173   4.444  0.2443 -0.0825 -0.4452
26339SOL    HW179595   6.827   0.181   4.408 -0.3315  0.1679 -1.8566
26339SOL    HW279596   6.691   0.120   4.381 -0.1327 -1.8827  1.2546
26340SOL     OW79597   8.085   7.842   8.435 -0.7299 -0.6088  0.2436
26340SOL    HW179598   8.095   7.805   8.347 -0.5701  0.6824 -0.3073
26340SOL    HW279599   8.131   7.926   8.431 -1.2797 -0.2296  1.3737
26341SOL     OW79600   9.157   2.559   2.820  0.0865 -0.4724  0.4434
26341SOL    HW179601   9.206   2.638   2.842  0.5556 -0.9596  1.1742
26341SOL    HW279602   9.109   2.537   2.900 -1.0325 -0.2376 -0.1274
26342SOL     OW79603   5.189   9.931   1.811  0.8470 -0.0684 -0.1988
26342SOL    HW179604   5.199  10.020   1.776  1.1131  0.3554  0.9213
26342SOL    HW279605   5.105   9.933   1.857  1.3602 -0.0591  0.7627
26343SOL     OW79606   2.507   2.347   0.232 -0.1160 -0.3016  0.9411
26343SOL    HW179607   2.573   2.285   0.202 -0.9251 -0.1287 -1.4117
26343SOL    HW279608   2.432   2.292   0.255 -1.0998 -0.2940 -1.8477
26344SOL     OW79609   4.189   2.739   1.267 -0.4146 -0.5123  0.1836
26344SOL    HW179610   4.231   2.809   1.218  0.9413 -1.3632  0.0670
26344SOL    HW279611   4.138   2.691   1.201 -0.3217 -0.3839  0.0168
26345SOL     OW79612   6.580   5.557   9.737  0.2399  0.3892  0.0733
26345SOL    HW179613   6.629   5.475   9.733  0.1414  0.3577 -0.4413
26345SOL    HW279614   6.622   5.606   9.809 -0.4206 -0.5760  1.1525
26346SOL     OW79615   0.262   9.887   5.508  0.4068  0.1688 -0.3933
26346SOL    HW179616   0.176   9.857   5.537  0.3850  0.2148 -0.4096
26346SOL    HW279617   0.274   9.846   5.422  0.3012  0.3441 -0.4944
26347SOL     OW79618   8.338   3.712   2.456  0.0592 -0.2657 -0.8658
26347SOL    HW179619   8.275   3.756   2.513  1.2489  1.4801 -0.7958
26347SOL    HW279620   8.373   3.641   2.510  1.9742  2.0064  1.1481
26348SOL     OW79621   6.669   1.390   2.661 -0.3085 -0.1518  0.4670
26348SOL    HW179622   6.617   1.331   2.606 -1.1611  0.2910  0.7764
26348SOL    HW279623   6.723   1.332   2.714 -1.3937 -0.6926  1.0209
26349SOL     OW79624   2.493   1.376   0.151  0.2661 -0.0263 -0.6359
26349SOL    HW179625   2.502   1.400   0.058 -0.4105 -0.4108 -0.8151
26349SOL    HW279626   2.441   1.447   0.189 -0.0127 -0.1932 -0.7029
26350SOL     OW79627   3.781   1.036   5.868 -0.0240  0.0392  0.0790
26350SOL    HW179628   3.811   1.094   5.938 -0.8352  0.8581 -0.2349
26350SOL    HW279629   3.686   1.032   5.878 -0.0987 -0.2472 -0.6552
26351SOL     OW79630   9.345   3.462   7.185  0.0413  0.2407  0.1982
26351SOL    HW179631   9.433   3.431   7.167  0.4355  1.2024  0.4005
26351SOL    HW279632   9.354   3.518   7.262 -0.4188  1.7357 -0.7710
26352SOL     OW79633   6.176   8.242   4.715  0.1176  0.8270 -0.3737
26352SOL    HW179634   6.266   8.271   4.734 -0.1414  0.8882  0.8078
26352SOL    HW279635   6.125   8.322   4.713 -0.4463  0.6119  2.0583
26353SOL     OW79636   6.970   8.018   8.684 -0.6282 -0.1600 -0.3062
26353SOL    HW179637   7.003   8.086   8.627  2.3812 -1.4359 -0.2532
26353SOL    HW279638   7.003   8.040   8.771 -1.1704 -0.7217  0.0571
26354SOL     OW79639   5.520   7.745   4.060 -0.4648  0.1429 -0.4270
26354SOL    HW179640   5.605   7.781   4.034  0.9089 -0.1767  3.1557
26354SOL    HW279641   5.540   7.661   4.101 -2.4623  0.1928  0.7996
26355SOL     OW79642   2.691   2.501   0.361  0.4656 -0.2321 -0.0997
26355SOL    HW179643   2.620   2.461   0.311 -0.7094  0.9529  0.5696
26355SOL    HW279644   2.648   2.562   0.420  2.0075  0.0882  0.7512
26356SOL     OW79645   1.092   8.562   5.058  0.1923  0.5710  0.2407
26356SOL    HW179646   1.020   8.625   5.071  0.3828  1.6252 -2.9204
26356SOL    HW279647   1.049   8.477   5.048 -0.5101  0.9599 -0.0943
26357SOL     OW79648   8.772   4.614   1.863  0.1409  0.0558  0.0108
26357SOL    HW179649   8.682   4.641   1.843 -0.0553 -1.0608 -0.6700
26357SOL    HW279650   8.769   4.587   1.954 -0.0535  0.6396  0.1864
26358SOL     OW79651   9.740   1.827   9.225  0.0365  0.0129  0.4496
26358SOL    HW179652   9.732   1.883   9.303  0.8879  0.1875  0.4265
26358SOL    HW279653   9.749   1.889   9.153  1.5885 -0.1258  0.4905
26359SOL     OW79654   7.591   3.097   8.198  0.3586 -0.3357 -0.1209
26359SOL    HW179655   7.605   3.022   8.255  1.5827 -0.2921 -0.3312
26359SOL    HW279656   7.496   3.110   8.197  0.1660 -1.6100  0.2451
26360SOL     OW79657   1.434   2.176   8.706  0.3772  0.3493  0.1263
26360SOL    HW179658   1.463   2.086   8.719  0.6491  0.5776  1.1959
26360SOL    HW279659   1.486   2.207   8.632  0.3222 -0.3431 -0.2118
26361SOL     OW79660   7.532   1.575   4.751  0.1957  0.2252 -0.2962
26361SOL    HW179661   7.595   1.607   4.816 -1.4300  1.9611  0.5214
26361SOL    HW279662   7.549   1.481   4.746  2.0414  0.4392  0.7659
26362SOL     OW79663   0.784   6.421   2.707 -0.4519  0.6076 -0.1482
26362SOL    HW179664   0.701   6.377   2.692  0.7853 -1.9339 -0.0032
26362SOL    HW279665   0.804   6.405   2.799  0.0277  1.5315 -0.0748
26363SOL     OW79666   3.348   3.582   9.774 -0.0077  0.2877  0.2389
26363SOL    HW179667   3.328   3.540   9.690  0.1485  0.5558  0.0660
26363SOL    HW279668   3.437   3.553   9.794  1.2498  2.7227 -1.2763
26364SOL     OW79669   7.182   6.242   3.270  0.1524 -0.4852 -0.3705
26364SOL    HW179670   7.152   6.244   3.361  0.3141 -0.6561 -0.3135
26364SOL    HW279671   7.101   6.240   3.218  0.0536 -1.6969 -0.2010
26365SOL     OW79672   9.702   3.020   4.269  0.2573 -0.2528  0.2893
26365SOL    HW179673   9.613   3.052   4.252  0.7098  0.0694 -1.7284
26365SOL    HW279674   9.712   2.945   4.210  0.9110 -1.1092  1.4361
26366SOL     OW79675   4.847   9.757   8.019 -0.5220 -0.0301 -0.4173
26366SOL    HW179676   4.845   9.816   7.943  0.9234 -0.3485 -0.7173
26366SOL    HW279677   4.921   9.699   8.002 -1.0799 -1.0488  0.5475
26367SOL     OW79678   6.347   1.801   7.057  0.0272 -0.2364 -0.1774
26367SOL    HW179679   6.305   1.766   7.135  0.3317  2.3196  1.2155
26367SOL    HW279680   6.422   1.743   7.042  0.2975 -0.4363  1.7710
26368SOL     OW79681   0.030   5.802   8.948  0.4806 -0.8499  0.3366
26368SOL    HW179682   0.108   5.807   9.003  0.4259  0.2646  0.3377
26368SOL    HW279683  -0.029   5.868   8.983  0.5715  0.1174 -1.2272
26369SOL     OW79684   5.281   5.074   8.596  0.0957 -0.3698  0.0788
26369SOL    HW179685   5.250   5.011   8.531 -1.7089  1.5219 -0.9861
26369SOL    HW279686   5.358   5.114   8.555  0.7937 -1.2992  0.4429
26370SOL     OW79687   0.116   7.285   7.322 -0.2098  0.6288  0.3189
26370SOL    HW179688   0.079   7.198   7.339 -1.5006  0.7239 -1.6029
26370SOL    HW279689   0.140   7.282   7.229 -1.7903  2.8211 -0.2273
26371SOL     OW79690   2.554   8.947   2.561  0.5737 -0.1987 -0.0516
26371SOL    HW179691   2.475   8.946   2.615  0.3533 -2.9737 -0.3166
26371SOL    HW279692   2.533   9.008   2.490 -0.9687 -0.1831  0.3805
26372SOL     OW79693   8.082   6.008   6.608  0.8290  0.5587  0.3085
26372SOL    HW179694   7.993   6.042   6.612  0.5255 -0.2523  0.9023
26372SOL    HW279695   8.094   5.983   6.516  0.6586  1.2187  0.1059
26373SOL     OW79696   8.537   6.877   7.005  0.3964  0.0258 -0.3565
26373SOL    HW179697   8.454   6.905   7.042  0.4102 -0.3664 -0.0180
26373SOL    HW279698   8.513   6.824   6.929  0.3159 -0.4928  0.0218
26374SOL     OW79699   6.960   2.542   3.690  0.2362 -0.4871  0.2854
26374SOL    HW179700   6.869   2.568   3.674 -0.0483 -0.9045  1.1415
26374SOL    HW279701   7.010   2.584   3.620 -0.6065 -0.1940 -0.1552
26375SOL     OW79702   3.905   1.527   9.217  0.0529 -0.1311 -0.0932
26375SOL    HW179703   3.932   1.437   9.199 -0.2727 -0.1597 -0.4662
26375SOL    HW279704   3.925   1.540   9.309 -0.3125 -0.7394  0.0815
26376SOL     OW79705   9.762   9.949   3.632  0.4382 -0.3489  0.2568
26376SOL    HW179706   9.748   9.863   3.593  1.4418 -1.0488  1.3835
26376SOL    HW279707   9.697   9.955   3.701 -0.5046  0.3745 -0.6534
26377SOL     OW79708   1.704   3.508   3.291  0.2091  0.3269 -0.0505
26377SOL    HW179709   1.614   3.515   3.259  0.1826  0.8432  0.1292
26377SOL    HW279710   1.756   3.557   3.227  0.4220 -0.3357 -0.3903
26378SOL     OW79711   5.267   6.292   0.958 -0.0297  0.4740 -0.4885
26378SOL    HW179712   5.188   6.269   1.007 -1.4252  0.0560 -2.7888
26378SOL    HW279713   5.240   6.367   0.904  1.3673  0.7724 -0.7940
26379SOL     OW79714   2.562   3.580   4.627  0.0510  0.5281  0.7605
26379SOL    HW179715   2.655   3.601   4.616  0.0541  0.6658  1.0433
26379SOL    HW279716   2.560   3.519   4.700  0.0690 -0.6981 -0.2214
26380SOL     OW79717   9.285   9.547   2.209  0.1854 -0.9958  0.4539
26380SOL    HW179718   9.253   9.579   2.124 -0.2129 -0.5699  0.7602
26380SOL    HW279719   9.255   9.612   2.272  0.8570 -1.0861  0.8738
26381SOL     OW79720   8.387   8.273   9.299 -0.0326 -0.2036 -0.2851
26381SOL    HW179721   8.355   8.356   9.265  0.1307  0.1108  0.3162
26381SOL    HW279722   8.378   8.212   9.226  1.0036  0.6223 -1.1452
26382SOL     OW79723   1.660   7.090   9.702  0.9451 -0.5567  0.8122
26382SOL    HW179724   1.606   7.011   9.695  0.4456 -0.1039 -2.4607
26382SOL    HW279725   1.598   7.161   9.717  0.5085 -0.1281 -2.2671
26383SOL     OW79726   7.734   1.290   2.563  0.0048 -0.2997  0.4264
26383SOL    HW179727   7.639   1.291   2.554 -0.0348 -1.8574  0.4081
26383SOL    HW279728   7.761   1.206   2.526  1.3885  0.0959  0.4765
26384SOL     OW79729   7.258   4.677   1.512 -0.0580  0.0871 -0.5713
26384SOL    HW179730   7.320   4.732   1.560  1.0779 -0.4082 -1.4124
26384SOL    HW279731   7.308   4.598   1.490 -0.6074  0.1692 -2.2779
26385SOL     OW79732   7.865   0.910   7.906 -0.1679 -0.7204 -0.1365
26385SOL    HW179733   7.918   0.947   7.835  0.8014  2.6767  2.1177
26385SOL    HW279734   7.924   0.906   7.981 -2.2252  0.1214  1.6313
26386SOL     OW79735   8.702   7.869   2.836 -0.3710  0.4103  0.5248
26386SOL    HW179736   8.743   7.783   2.847 -0.8856  0.2352  1.1011
26386SOL    HW279737   8.617   7.861   2.879  0.3916  1.8167  2.4159
26387SOL     OW79738   7.448   8.387   0.392  0.2876 -0.3961  0.0131
26387SOL    HW179739   7.465   8.481   0.386 -0.2350 -0.3222 -0.3621
26387SOL    HW279740   7.358   8.381   0.424  0.1180 -0.7586 -0.5101
26388SOL     OW79741   0.714   1.700   6.024 -0.4688 -0.5487  0.6127
26388SOL    HW179742   0.755   1.616   6.043  1.3397  0.0198 -0.5783
26388SOL    HW279743   0.764   1.763   6.075 -0.5065  0.0457 -0.0723
26389SOL     OW79744   8.592   5.089   8.959  0.0938  0.3132  0.2600
26389SOL    HW179745   8.546   5.106   9.042  1.5208  0.7351  1.0021
26389SOL    HW279746   8.668   5.146   8.962  0.6985 -0.3911 -0.9092
26390SOL     OW79747   2.454   9.321   6.400 -0.2336  0.1561  0.0814
26390SOL    HW179748   2.361   9.298   6.403 -0.2296  0.1137 -0.1263
26390SOL    HW279749   2.490   9.284   6.480 -0.1053 -1.0864 -0.5339
26391SOL     OW79750   6.545   0.062   8.940  0.3526 -0.1205  0.0590
26391SOL    HW179751   6.487   0.040   8.866 -1.0386 -0.6857  1.2755
26391SOL    HW279752   6.543   0.158   8.944  0.6513 -0.0697 -0.7879
26392SOL     OW79753   8.046   9.670   1.304 -0.6960 -0.0027 -0.0223
26392SOL    HW179754   7.970   9.650   1.360 -1.4471 -0.3108 -1.1154
26392SOL    HW279755   8.007   9.697   1.221  0.3860 -2.1514 -1.3058
26393SOL     OW79756   0.204   0.329   7.672 -0.3144  0.2753 -0.0616
26393SOL    HW179757   0.142   0.391   7.632 -0.7753 -0.6804 -0.8809
26393SOL    HW279758   0.153   0.249   7.684  0.4671 -0.1799  0.2907
26394SOL     OW79759   0.464   8.927   0.342 -0.1659 -0.2332 -0.6196
26394SOL    HW179760   0.502   8.992   0.282 -1.2927  0.2884 -0.7892
26394SOL    HW279761   0.372   8.923   0.319 -0.4642 -0.6305  0.5401
26395SOL     OW79762   4.815   8.269   9.051 -0.4977  0.0018 -0.5443
26395SOL    HW179763   4.788   8.177   9.044  0.0846 -0.2041 -0.1626
26395SOL    HW279764   4.872   8.283   8.975 -1.7542  0.4801 -1.4385
26396SOL     OW79765   9.462   4.538   7.175  0.3045  0.4593  0.3718
26396SOL    HW179766   9.454   4.547   7.080 -1.2756 -0.0986  0.4201
26396SOL    HW279767   9.377   4.564   7.208  0.4309 -0.5457  1.5470
26397SOL     OW79768   7.235   1.438   3.032  0.0963  0.6169  0.1623
26397SOL    HW179769   7.283   1.388   3.098 -0.8203 -1.4461 -0.6457
26397SOL    HW279770   7.297   1.446   2.959  0.3353  0.9141  0.3931
26398SOL     OW79771   5.679   5.890   7.595  0.3792 -0.2139  0.1251
26398SOL    HW179772   5.697   5.937   7.514 -0.5207  0.2730  0.2060
26398SOL    HW279773   5.607   5.831   7.573  0.8577 -0.8667  0.2832
26399SOL     OW79774   6.904   9.022   4.763 -0.3874  0.5623 -0.2039
26399SOL    HW179775   6.843   8.954   4.733 -0.6270  0.2901  0.8711
26399SOL    HW279776   6.950   8.982   4.837 -0.5030  1.5552  0.4157
26400SOL     OW79777   7.375   9.617   2.009 -0.0601  0.1256  0.2660
26400SOL    HW179778   7.309   9.651   1.949  0.0155 -1.6891 -0.9161
26400SOL    HW279779   7.459   9.641   1.969  0.0034  0.5274  0.6312
26401SOL     OW79780   8.505   8.187   4.446  0.2817  0.7513 -0.3927
26401SOL    HW179781   8.536   8.178   4.536 -1.6589 -0.1040  0.2502
26401SOL    HW279782   8.570   8.141   4.394  0.2863 -0.7353  0.8499
26402SOL     OW79783   8.592   8.609   1.311 -0.2750 -0.0166 -0.4648
26402SOL    HW179784   8.559   8.528   1.349  1.2028  0.0860  1.1714
26402SOL    HW279785   8.517   8.668   1.311 -0.3137  0.1255  2.8380
26403SOL     OW79786   4.966   7.783   5.622  0.1008  0.2798 -0.1736
26403SOL    HW179787   5.048   7.832   5.613 -0.8804  2.0783  0.1081
26403SOL    HW279788   4.918   7.801   5.541 -0.1708 -0.4590 -0.1819
26404SOL     OW79789   3.949   8.650   0.393 -0.4482  0.1844  0.0263
26404SOL    HW179790   3.893   8.726   0.373 -0.9977 -0.2166  0.0031
26404SOL    HW279791   3.901   8.576   0.356 -0.3017 -0.2656  0.7306
26405SOL     OW79792   8.333   0.520   0.355 -0.8809 -0.1358  0.4145
26405SOL    HW179793   8.353   0.604   0.394 -0.0962  0.8332 -1.9059
26405SOL    HW279794   8.261   0.485   0.408 -0.7286  1.6272  1.8598
26406SOL     OW79795   4.318   3.168   0.407 -0.7408  0.3891  0.0635
26406SOL    HW179796   4.339   3.105   0.476  0.1756  0.9888  0.3565
26406SOL    HW279797   4.247   3.221   0.443 -1.2271 -0.1988 -0.0197
26407SOL     OW79798   8.504   3.541   9.227 -0.1491  0.7104  0.2432
26407SOL    HW179799   8.440   3.538   9.298 -0.2548 -1.4584  0.1183
26407SOL    HW279800   8.509   3.451   9.195  1.0564  1.3366 -1.4759
26408SOL     OW79801   0.831   7.894   6.181  0.0132 -0.1755 -0.2048
26408SOL    HW179802   0.762   7.918   6.119  0.8384  1.4763 -0.5456
26408SOL    HW279803   0.791   7.829   6.238 -1.5510  0.1295 -0.9037
26409SOL     OW79804   6.412   2.053   2.796 -0.5412  0.2344  0.7082
26409SOL    HW179805   6.501   2.030   2.769 -0.7281  1.6803 -1.4382
26409SOL    HW279806   6.423   2.095   2.882  0.6134 -1.0724  1.2345
26410SOL     OW79807   3.826   6.211   4.204 -0.0298  0.2615 -1.0520
26410SOL    HW179808   3.786   6.126   4.185 -1.4273  0.6299 -0.0120
26410SOL    HW279809   3.803   6.266   4.129 -0.2658  0.0620 -1.1282
26411SOL     OW79810   9.877   5.311   8.637 -0.1358 -0.4042 -0.0177
26411SOL    HW179811   9.884   5.407   8.635  1.1631 -0.5027 -0.8601
26411SOL    HW279812   9.809   5.291   8.573 -0.8446 -0.0225  0.5980
26412SOL     OW79813   3.368   2.418   7.009  0.3000 -0.1664 -0.2676
26412SOL    HW179814   3.401   2.395   7.096 -0.1123 -0.4860 -0.1914
26412SOL    HW279815   3.378   2.337   6.958  0.2871 -0.0585 -0.4422
26413SOL     OW79816   0.054   7.739   0.046  0.0451  0.1990  0.2790
26413SOL    HW179817   0.130   7.783   0.083  0.4290 -1.2746  1.3384
26413SOL    HW279818  -0.013   7.744   0.114 -0.3220  0.2291 -0.0779
26414SOL     OW79819   5.139   6.830   2.047  0.1151 -0.1647  0.4033
26414SOL    HW179820   5.070   6.771   2.079  0.7885 -1.7433 -0.9146
26414SOL    HW279821   5.168   6.791   1.965  1.0309  1.7108 -0.2307
26415SOL     OW79822   3.940   8.757   9.583 -0.2876  0.2047  0.2246
26415SOL    HW179823   3.898   8.799   9.508  0.5297  0.8253  0.0939
26415SOL    HW279824   3.948   8.665   9.558 -0.3656  0.3381 -0.2967
26416SOL     OW79825   8.180   8.089   9.690 -0.1709 -0.4847  0.2101
26416SOL    HW179826   8.100   8.124   9.729 -1.4324  0.4173 -2.9147
26416SOL    HW279827   8.219   8.163   9.643  0.8255 -1.6268 -0.8448
26417SOL     OW79828   1.191   2.030   9.961  0.6051  0.6229 -0.2000
26417SOL    HW179829   1.240   2.065  10.035 -0.3520  0.9031  0.3183
26417SOL    HW279830   1.255   1.977   9.913  1.1574  0.1635  1.0045
26418SOL     OW79831   8.560   4.867   5.564  0.5423  0.1900  0.4691
26418SOL    HW179832   8.646   4.828   5.577  0.7465  0.7520  0.8053
26418SOL    HW279833   8.513   4.850   5.646 -0.9536 -3.2757 -0.8912
26419SOL     OW79834   1.659   6.697   9.551 -0.2950  0.0141 -1.1601
26419SOL    HW179835   1.679   6.633   9.483  0.9063  0.3927 -1.1760
26419SOL    HW279836   1.744   6.731   9.578 -0.8130  0.4164  0.0037
26420SOL     OW79837   3.006   3.041   4.793  0.0114  0.1387 -0.2328
26420SOL    HW179838   2.969   3.127   4.813  1.8166  1.1346 -0.9339
26420SOL    HW279839   3.063   3.021   4.867  0.3932  0.0165 -0.5582
26421SOL     OW79840   3.517   7.001   3.398 -0.2542  0.8009 -1.0234
26421SOL    HW179841   3.507   6.969   3.487  0.4865  1.6225 -0.6297
26421SOL    HW279842   3.434   7.045   3.379 -0.5571  0.2971 -0.8853
26422SOL     OW79843   7.663   1.170   9.194  0.9558 -0.3595 -0.1659
26422SOL    HW179844   7.590   1.125   9.152  0.8648 -1.4608  1.1059
26422SOL    HW279845   7.668   1.254   9.149 -1.6704  0.1301  0.2693
26423SOL     OW79846   1.230   1.385   4.085 -0.1355 -0.4749  0.1075
26423SOL    HW179847   1.166   1.453   4.104  0.7568  1.0009 -1.7635
26423SOL    HW279848   1.181   1.317   4.038 -0.2984  0.9564 -1.9291
26424SOL     OW79849   0.010   4.037   6.048  0.2319  0.2185 -0.8082
26424SOL    HW179850   0.093   4.084   6.045  0.2918  0.2311  0.3622
26424SOL    HW279851  -0.045   4.091   6.105  1.1918 -2.3973  3.0037
26425SOL     OW79852   0.343   7.542   2.265 -0.0509  1.0161  0.2399
26425SOL    HW179853   0.323   7.577   2.352  1.7916 -1.1702  1.6171
26425SOL    HW279854   0.288   7.464   2.257  0.7097  0.5021 -0.0349
26426SOL     OW79855   9.620   7.464   0.967 -0.0284  0.4049  0.2959
26426SOL    HW179856   9.611   7.535   1.031  1.0740  0.7329  0.1151
26426SOL    HW279857   9.569   7.493   0.892 -0.9389  0.2377  0.8352
26427SOL     OW79858   5.758   1.197   6.437  0.5129  0.0871 -0.5254
26427SOL    HW179859   5.797   1.249   6.507  0.5484 -0.7416  0.0959
26427SOL    HW279860   5.798   1.230   6.357  2.5974 -0.7944  0.0802
26428SOL     OW79861   1.552   8.721   6.578  0.4381 -0.4418  0.2591
26428SOL    HW179862   1.638   8.744   6.545  0.4589  1.2037  1.3392
26428SOL    HW279863   1.507   8.682   6.503  1.6169  0.0216 -0.7164
26429SOL     OW79864   5.101   2.038   7.700 -0.1022 -0.4694 -0.0416
26429SOL    HW179865   5.065   2.071   7.617  0.1571  1.7753  0.6618
26429SOL    HW279866   5.196   2.037   7.687 -0.0579 -0.0737  0.2255
26430SOL     OW79867   2.409   1.757   6.892  0.0902 -0.3636  0.5184
26430SOL    HW179868   2.343   1.739   6.824 -0.7874  2.5669  0.4689
26430SOL    HW279869   2.360   1.756   6.974  0.9468 -2.8019  1.0699
26431SOL     OW79870   1.897   7.144   1.791 -0.0149  0.2487 -0.4113
26431SOL    HW179871   1.824   7.091   1.761 -0.9449  0.9244  0.6095
26431SOL    HW279872   1.873   7.172   1.879  1.1120  1.1499 -0.3602
26432SOL     OW79873   8.971   4.637   2.072  0.5850  0.4065 -0.0292
26432SOL    HW179874   9.013   4.718   2.099 -0.6701  1.4212 -1.0268
26432SOL    HW279875   8.945   4.652   1.981 -2.2533 -0.0049  0.6444
26433SOL     OW79876   2.094   0.586   1.398 -0.2025  0.1244  0.5265
26433SOL    HW179877   2.068   0.595   1.307  0.5953  0.8241  0.3563
26433SOL    HW279878   2.108   0.676   1.428  0.6045 -0.1469  1.0173
26434SOL     OW79879   8.574   7.433   9.281  0.3047  0.1515 -0.0436
26434SOL    HW179880   8.590   7.497   9.212  1.1896 -1.5943 -1.5583
26434SOL    HW279881   8.659   7.423   9.325  0.0536  0.3485  0.4997
26435SOL     OW79882   5.745   6.927   7.488 -0.6303  0.1493 -0.2185
26435SOL    HW179883   5.806   6.998   7.506 -0.7907  0.0099  0.9125
26435SOL    HW279884   5.710   6.947   7.401 -1.6883  2.2196  0.6065
26436SOL     OW79885   4.838   0.204   6.487 -0.0408 -0.6757  0.0654
26436SOL    HW179886   4.774   0.134   6.494  0.7624 -1.4016  0.2271
26436SOL    HW279887   4.873   0.197   6.399 -0.8688  0.3437 -0.3719
26437SOL     OW79888   7.527   1.886   6.920  0.3789  0.3950  0.1467
26437SOL    HW179889   7.442   1.854   6.949  1.3899 -2.4053  0.3317
26437SOL    HW279890   7.508   1.939   6.843 -1.6036  0.9944  0.9738
26438SOL     OW79891   0.778   4.615   6.565  0.2933  0.7721 -0.2274
26438SOL    HW179892   0.717   4.665   6.510  1.0888 -0.2178 -2.1074
26438SOL    HW279893   0.863   4.625   6.521  1.0853  0.3985  1.1610
26439SOL     OW79894   6.907   8.177   4.182 -0.0831 -0.1529 -0.1780
26439SOL    HW179895   6.956   8.254   4.208 -1.2174  0.3255  0.6535
26439SOL    HW279896   6.866   8.200   4.099 -1.6304  0.7522  0.7792
26440SOL     OW79897   4.248   4.750   4.975 -0.8679  0.1632 -0.0752
26440SOL    HW179898   4.207   4.768   5.059  1.1774  0.9951  0.8270
26440SOL    HW279899   4.259   4.837   4.934  2.1234  0.3566  0.8623
26441SOL     OW79900   3.350   1.287   1.603 -0.6863  0.3781  0.1466
26441SOL    HW179901   3.397   1.204   1.595 -1.2203  0.0709  0.1293
26441SOL    HW279902   3.278   1.267   1.663 -0.6359  0.9097  0.3819
26442SOL     OW79903   6.726   4.227   2.330 -0.2929  0.2404  0.3303
26442SOL    HW179904   6.817   4.230   2.299 -0.6831 -1.0552 -1.0543
26442SOL    HW279905   6.733   4.215   2.425  0.9673  0.8256  0.3283
26443SOL     OW79906   6.269   0.092   8.115 -0.1654  0.4774  0.4930
26443SOL    HW179907   6.208   0.045   8.172 -0.3227 -0.6505 -0.5490
26443SOL    HW279908   6.246   0.184   8.126 -0.1647  0.2979  2.2458
26444SOL     OW79909   8.997   7.318   5.926 -0.2733 -0.3656 -0.4025
26444SOL    HW179910   9.016   7.228   5.901 -1.1311 -1.2429  1.9296
26444SOL    HW279911   9.081   7.354   5.953 -0.0917 -0.7421 -0.4595
26445SOL     OW79912   8.312   4.871   9.525  0.5535  0.0910 -0.2197
26445SOL    HW179913   8.230   4.831   9.555  1.0462 -0.0524  1.0085
26445SOL    HW279914   8.291   4.906   9.439 -1.0671  0.7982  0.4049
26446SOL     OW79915   0.464   1.272   4.961 -0.4637 -0.4994  0.1438
26446SOL    HW179916   0.387   1.267   4.906  0.6047  1.3929 -1.6608
26446SOL    HW279917   0.446   1.211   5.033 -3.2387 -0.7242 -0.6277
26447SOL     OW79918   0.623   5.276   0.410  0.6247 -0.0690 -0.4998
26447SOL    HW179919   0.558   5.321   0.357  0.5878  0.1121 -0.3024
26447SOL    HW279920   0.573   5.208   0.456  0.7759 -0.6723 -1.2140
26448SOL     OW79921   7.301   4.927   9.051  0.3855  0.4761 -0.4354
26448SOL    HW179922   7.351   4.857   9.009 -2.0459 -0.2234 -2.4034
26448SOL    HW279923   7.294   4.995   8.984 -1.7560  0.2591 -0.5169
26449SOL     OW79924   1.742   5.831   5.952  0.2619  0.3001 -0.5398
26449SOL    HW179925   1.776   5.807   6.038 -0.8913 -0.5684 -0.2992
26449SOL    HW279926   1.647   5.824   5.961  0.1014  0.6076 -1.7658
26450SOL     OW79927   0.346   4.561   5.231  0.3667 -0.0647 -0.2003
26450SOL    HW179928   0.314   4.623   5.166  1.1701 -1.2776 -1.8260
26450SOL    HW279929   0.432   4.594   5.256 -0.3753  0.9914  1.1375
26451SOL     OW79930   6.273   4.369   2.597 -0.3794  0.4943 -0.6095
26451SOL    HW179931   6.193   4.346   2.645  0.2156  1.3708  0.8619
26451SOL    HW279932   6.242   4.422   2.523 -1.0889  2.0311  0.7372
26452SOL     OW79933   0.928   5.495   2.835 -0.2555 -0.0185 -0.1996
26452SOL    HW179934   0.892   5.525   2.918 -0.0370 -0.0188 -0.1021
26452SOL    HW279935   0.991   5.563   2.811  0.1656 -0.3407 -0.0297
26453SOL     OW79936   6.158   7.044   5.935  0.1459 -0.5778 -0.4683
26453SOL    HW179937   6.079   7.050   5.882 -1.3053 -1.8875  1.4249
26453SOL    HW279938   6.156   6.956   5.972  1.6655 -0.1068  0.8562
26454SOL     OW79939   3.296   0.826   6.980  0.0485  0.0631  0.4682
26454SOL    HW179940   3.336   0.910   7.000 -1.9644  1.2643 -0.2136
26454SOL    HW279941   3.307   0.815   6.886 -0.7199  0.1535  0.3599
26455SOL     OW79942   6.150   9.875   3.404  0.1994  0.2321  0.1524
26455SOL    HW179943   6.152   9.788   3.364 -1.2460 -0.4766  1.5027
26455SOL    HW279944   6.225   9.875   3.464  0.2802 -0.0544  0.0533
26456SOL     OW79945   1.402   2.107   2.771  0.5070  0.8252  0.2637
26456SOL    HW179946   1.308   2.099   2.789  0.5335 -0.1056  0.0553
26456SOL    HW279947   1.442   2.038   2.825  0.7616 -0.8565 -1.9243
26457SOL     OW79948   7.001   2.322   7.989 -0.0314 -0.0439  0.0204
26457SOL    HW179949   6.976   2.412   7.966  1.0617  0.3915  0.4529
26457SOL    HW279950   6.959   2.268   7.923 -1.1350  0.7412  0.0519
26458SOL     OW79951   8.585   8.882   8.604  0.1223  0.7480 -0.0317
26458SOL    HW179952   8.639   8.943   8.655 -1.6359  2.2944  0.0884
26458SOL    HW279953   8.527   8.938   8.553 -0.9579 -0.8348 -0.6339
26459SOL     OW79954   8.505   6.870   9.471 -0.2254  0.3121  0.2712
26459SOL    HW179955   8.462   6.833   9.395 -1.2344  0.8455  0.5626
26459SOL    HW279956   8.434   6.887   9.533  0.4406  0.9359  0.8854
26460SOL     OW79957   6.713   5.721   9.897 -0.2182  0.4177 -0.3951
26460SOL    HW179958   6.698   5.742   9.989 -1.0304  0.9627 -0.6423
26460SOL    HW279959   6.809   5.717   9.889 -0.1580 -0.4638  0.6440
26461SOL     OW79960   7.476   6.648   5.502 -0.1091 -0.4212 -0.2431
26461SOL    HW179961   7.432   6.733   5.508  0.7148  0.0087 -0.0608
26461SOL    HW279962   7.413   6.585   5.537  0.2337  0.4888  2.2112
26462SOL     OW79963   9.361   8.612   9.878  0.2965  0.5442  0.6009
26462SOL    HW179964   9.341   8.555   9.804 -0.8759  0.8639  0.6488
26462SOL    HW279965   9.328   8.565   9.955  0.5648  0.6706  0.7944
26463SOL     OW79966   8.410   2.145   0.009  0.0265  0.2040 -0.2130
26463SOL    HW179967   8.362   2.227   0.018  0.1092  0.3195 -0.8150
26463SOL    HW279968   8.350   2.078   0.043 -0.7680  0.2804 -1.4083
26464SOL     OW79969   4.550   7.618   1.869 -0.2833  0.3234  0.1094
26464SOL    HW179970   4.556   7.644   1.777  0.7028  2.2145  0.6522
26464SOL    HW279971   4.593   7.689   1.916  1.8903 -1.9734  1.8509
26465SOL     OW79972   8.083   2.966   2.503  0.3504 -0.1215  0.1824
26465SOL    HW179973   8.059   2.919   2.584  0.3729  1.9388  1.4500
26465SOL    HW279974   8.012   3.029   2.490  1.2721  0.8288 -0.3607
26466SOL     OW79975   4.675   3.961   3.606  0.3536 -0.0483  0.8583
26466SOL    HW179976   4.666   3.886   3.666  0.1702 -1.0590 -0.3913
26466SOL    HW279977   4.632   3.933   3.526  0.3824  1.3759  0.3154
26467SOL     OW79978   6.121   5.560   8.809  0.1500  0.2470  0.0643
26467SOL    HW179979   6.059   5.500   8.767 -0.5789 -0.4062  1.9733
26467SOL    HW279980   6.085   5.575   8.896  1.9165  1.0562  0.7059
26468SOL     OW79981   8.787   8.004   9.012 -0.1381 -0.3583  0.4646
26468SOL    HW179982   8.834   7.923   9.033  1.6983  0.3481 -0.6307
26468SOL    HW279983   8.837   8.072   9.058 -1.2078  0.2455  0.7541
26469SOL     OW79984   3.297   8.942   4.671  1.0443  0.3106  0.2633
26469SOL    HW179985   3.304   9.016   4.611  0.8488  0.0501 -0.0824
26469SOL    HW279986   3.373   8.888   4.652  1.2792  0.5020  0.6334
26470SOL     OW79987   9.900   5.650   3.290 -0.2035 -0.1860 -0.8523
26470SOL    HW179988   9.969   5.657   3.224 -0.6002  1.4233 -1.1356
26470SOL    HW279989   9.831   5.600   3.247  0.7331 -1.8371 -0.5592
26471SOL     OW79990   9.734   9.103   9.763  0.0374 -0.8487  0.0920
26471SOL    HW179991   9.802   9.158   9.723  2.4714 -3.6994 -0.0522
26471SOL    HW279992   9.652   9.151   9.748  1.7700  1.8932 -1.3934
26472SOL     OW79993   2.923   4.966   7.171 -0.3602 -0.4058 -0.0373
26472SOL    HW179994   2.964   5.000   7.092 -1.7226  1.2002 -0.1084
26472SOL    HW279995   2.903   5.044   7.223 -1.9164 -1.2304  0.6584
26473SOL     OW79996   6.059   7.675   2.168 -0.2222 -0.2312 -0.2235
26473SOL    HW179997   5.985   7.697   2.112 -0.1020  0.8993  0.0285
26473SOL    HW279998   6.049   7.732   2.244  0.3885 -0.7452  0.2567
26474SOL     OW79999   7.723   0.427   5.292  0.5422 -0.1449 -0.5576
26474SOL    HW180000   7.742   0.462   5.205 -1.1691  0.9078 -0.5358
26474SOL    HW280001   7.741   0.333   5.283  0.3295 -0.0725 -2.0615
26475SOL     OW80002   0.796   8.825   3.142 -0.5507  0.2299  0.0844
26475SOL    HW180003   0.881   8.795   3.174 -0.1504  0.5283 -0.6709
26475SOL    HW280004   0.815   8.905   3.094 -1.2620  0.2985 -0.1030
26476SOL     OW80005   3.114   3.864   0.879  0.4602  0.0802 -0.7172
26476SOL    HW180006   3.116   3.844   0.972  2.6316 -0.3277 -0.8039
26476SOL    HW280007   3.084   3.783   0.837  0.0011  0.0936 -0.4205
26477SOL     OW80008   4.182   0.016   0.682 -0.2000  0.0994  0.0079
26477SOL    HW180009   4.161   0.108   0.666 -0.5221 -0.0894 -0.6844
26477SOL    HW280010   4.216   0.014   0.772 -3.5475  0.3910  1.4518
26478SOL     OW80011   8.450   1.892   1.815 -0.4070 -0.0394  0.3031
26478SOL    HW180012   8.416   1.898   1.725  0.9819 -0.4135 -0.2725
26478SOL    HW280013   8.425   1.975   1.855 -2.4083 -0.4850  0.0860
26479SOL     OW80014   3.362   5.421   6.978  0.6283  0.5513  0.2508
26479SOL    HW180015   3.311   5.382   6.908 -0.7235  2.2295  0.2320
26479SOL    HW280016   3.432   5.469   6.933  0.5951  0.4836  0.1284
26480SOL     OW80017   0.205   3.558   9.317  0.3826 -0.4464  0.4833
26480SOL    HW180018   0.224   3.564   9.224  0.3919 -1.2815  0.4163
26480SOL    HW280019   0.212   3.464   9.337 -1.3737 -0.5204  0.9459
26481SOL     OW80020   3.341   7.644   4.360  0.4562 -0.2688  0.5834
26481SOL    HW180021   3.273   7.582   4.332 -0.3059  0.3816  0.9745
26481SOL    HW280022   3.342   7.637   4.455  0.5775  0.0958  0.6093
26482SOL     OW80023   0.278   6.564   1.669  0.0961 -0.4005 -0.2240
26482SOL    HW180024   0.347   6.630   1.667 -0.3970  0.1619  0.8898
26482SOL    HW280025   0.285   6.524   1.755  0.8480 -2.3378 -1.1173
26483SOL     OW80026   2.055   8.422   1.085  0.2113  0.5350  0.0132
26483SOL    HW180027   2.139   8.389   1.055  1.2229  1.4935  1.6400
26483SOL    HW280028   1.995   8.347   1.078  1.7095 -0.8026  0.7985
26484SOL     OW80029   2.653   6.208   1.092  0.2062  0.0137  0.7555
26484SOL    HW180030   2.707   6.224   1.169 -1.6993  0.9187  1.9641
26484SOL    HW280031   2.677   6.120   1.064  1.4510 -0.0521  1.9369
26485SOL     OW80032   3.550   0.063   4.327 -0.1282  0.6019  0.1204
26485SOL    HW180033   3.531   0.064   4.421  1.0647  1.5838  0.3734
26485SOL    HW280034   3.465   0.070   4.285 -0.8904 -1.7576  1.0696
26486SOL     OW80035   5.799   3.720   8.665  0.2931 -0.6508 -0.1768
26486SOL    HW180036   5.811   3.713   8.760 -2.5198 -1.8270  0.1896
26486SOL    HW280037   5.818   3.812   8.645 -1.2779  0.2218  1.9480
26487SOL     OW80038   5.403   6.815   9.943 -0.2999 -0.3046  0.1058
26487SOL    HW180039   5.417   6.905   9.913 -0.9078 -0.8361 -1.8760
26487SOL    HW280040   5.319   6.790   9.905 -0.2525 -1.6537  0.8374
26488SOL     OW80041   7.404   0.174   6.097 -0.0662  0.0146  0.8226
26488SOL    HW180042   7.475   0.199   6.037  1.7110 -1.5985  2.1281
26488SOL    HW280043   7.333   0.146   6.040 -0.0409  2.4858 -0.5613
26489SOL     OW80044   4.518   3.215   7.004 -0.1082 -0.0893  0.0799
26489SOL    HW180045   4.597   3.260   7.033  0.3619  0.7500 -2.2542
26489SOL    HW280046   4.446   3.267   7.042  0.3980 -0.6941  1.9832
26490SOL     OW80047   9.498   7.578   7.356 -0.2063  0.7664 -0.1178
26490SOL    HW180048   9.519   7.621   7.273 -0.5324 -1.2277 -1.2986
26490SOL    HW280049   9.406   7.553   7.348 -0.2750  0.6513  0.8929
26491SOL     OW80050   5.960   0.439   7.429 -0.0719  0.4917 -0.4548
26491SOL    HW180051   5.973   0.429   7.335  0.2350 -0.0306 -0.3583
26491SOL    HW280052   5.886   0.500   7.436 -0.3827  0.1966 -1.0395
26492SOL     OW80053   5.781   6.092   5.122 -0.5742  0.0581  0.0191
26492SOL    HW180054   5.778   6.156   5.051 -1.9663 -2.5307 -2.5067
26492SOL    HW280055   5.874   6.079   5.138 -0.2570  2.1302  0.1029
26493SOL     OW80056   6.749   3.076   3.867 -0.2492 -0.1515 -0.3372
26493SOL    HW180057   6.667   3.092   3.821  0.9254  0.9510 -2.2012
26493SOL    HW280058   6.737   2.991   3.908 -2.0743 -0.3366 -1.1230
26494SOL     OW80059   4.592   8.874   2.600  0.4272  0.1555 -0.5117
26494SOL    HW180060   4.633   8.819   2.533  0.8556 -1.0733  0.7092
26494SOL    HW280061   4.651   8.949   2.608  1.6918 -0.8648  0.1559
26495SOL     OW80062   1.116   2.185   7.154 -0.2521  0.3243  0.3342
26495SOL    HW180063   1.080   2.153   7.071 -1.5573  1.5318  0.3958
26495SOL    HW280064   1.093   2.117   7.218  0.7297 -0.5951 -0.2639
26496SOL     OW80065   0.801   1.645   4.283 -0.1535 -0.0499 -0.0912
26496SOL    HW180066   0.729   1.584   4.298 -0.6485  0.6870  0.5557
26496SOL    HW280067   0.760   1.720   4.241  0.6210 -0.5594 -1.8799
26497SOL     OW80068   6.353   2.433   2.261 -0.0463  0.5843  0.2607
26497SOL    HW180069   6.414   2.466   2.196 -1.0935 -1.0232 -1.6358
26497SOL    HW280070   6.305   2.364   2.216 -0.0216 -1.4491  3.0889
26498SOL     OW80071   9.692   7.731   8.006  0.1488  0.4646 -0.1571
26498SOL    HW180072   9.651   7.656   8.049  2.0264  0.4255  1.6969
26498SOL    HW280073   9.735   7.779   8.076 -2.8321  4.6762 -0.8614
26499SOL     OW80074   9.150   1.428   8.674 -0.2163 -0.6228  0.4637
26499SOL    HW180075   9.198   1.504   8.707 -0.4659 -1.1968  2.2335
26499SOL    HW280076   9.170   1.358   8.736 -0.9443 -1.6865 -0.4671
26500SOL     OW80077   6.620   0.250   4.036 -0.3277  0.2003  0.2649
26500SOL    HW180078   6.709   0.243   4.001 -0.1098  0.9418  0.6458
26500SOL    HW280079   6.624   0.326   4.094 -1.3356  0.5362 -0.0895
26501SOL     OW80080   5.779   6.039   5.874  0.0542 -0.0468 -0.2770
26501SOL    HW180081   5.872   6.018   5.870 -0.1412 -0.8881 -0.6775
26501SOL    HW280082   5.747   5.991   5.951 -0.0222  0.3457 -0.0625
26502SOL     OW80083   8.144   6.722   9.666 -0.6022 -0.4588 -0.0368
26502SOL    HW180084   8.080   6.693   9.601 -0.0568 -1.0851 -0.3058
26502SOL    HW280085   8.211   6.654   9.666 -0.5969 -0.4739  1.1978
26503SOL     OW80086   7.143   6.614   0.616 -0.2495 -0.5185 -0.4708
26503SOL    HW180087   7.123   6.521   0.625 -0.6055 -0.3631  0.3934
26503SOL    HW280088   7.064   6.659   0.647 -0.1141  0.0741 -0.9553
26504SOL     OW80089   6.033   7.080   0.244 -0.1907 -0.3575 -0.2926
26504SOL    HW180090   6.092   7.147   0.207  1.4846 -1.8390 -0.4597
26504SOL    HW280091   6.064   7.069   0.334  1.2373 -2.5982 -0.9726
26505SOL     OW80092   0.068   7.281   3.688  0.0482  0.6299 -0.0553
26505SOL    HW180093  -0.004   7.284   3.751 -0.8841 -0.4498 -1.0304
26505SOL    HW280094   0.031   7.316   3.607  0.8773  0.8488 -0.3531
26506SOL     OW80095   6.339   2.500   2.769 -0.0687 -0.0147  0.0017
26506SOL    HW180096   6.253   2.524   2.735  0.5721  2.3511 -0.1509
26506SOL    HW280097   6.375   2.441   2.703 -1.9711 -2.0345  0.6441
26507SOL     OW80098   8.284   9.549   7.570  0.0296 -0.1688  0.0064
26507SOL    HW180099   8.218   9.491   7.606  0.5909 -0.4051  0.6837
26507SOL    HW280100   8.368   9.508   7.593  0.4391 -1.1226 -2.8407
26508SOL     OW80101   9.194   4.960   3.017 -0.0183  0.0431 -0.0196
26508SOL    HW180102   9.232   4.896   3.077  0.2280 -0.6542 -0.8986
26508SOL    HW280103   9.108   4.924   2.994  1.1725 -1.4134 -2.6068
26509SOL     OW80104   5.987   8.102   6.936  0.3079  0.2410 -0.4236
26509SOL    HW180105   6.040   8.169   6.893 -0.0456  0.8524  0.0770
26509SOL    HW280106   5.929   8.151   6.995  0.1227 -0.5104  0.0361
26510SOL     OW80107   3.080   5.253   1.671  0.0901  0.0217 -0.3452
26510SOL    HW180108   3.124   5.231   1.753 -0.5978 -1.4680 -0.3447
26510SOL    HW280109   3.094   5.347   1.661 -0.2861  0.3543  1.7638
26511SOL     OW80110   3.542   7.202   9.768 -0.1114  0.2209  0.4186
26511SOL    HW180111   3.619   7.223   9.821  0.2035 -0.4696  0.2504
26511SOL    HW280112   3.482   7.159   9.829 -0.5639  1.1555  0.6563
26512SOL     OW80113   2.557   9.823   9.248 -0.4645  0.6995  0.4276
26512SOL    HW180114   2.512   9.843   9.166  0.3519 -0.0451 -0.2209
26512SOL    HW280115   2.630   9.885   9.251 -1.2477  1.6148  1.2627
26513SOL     OW80116   5.380   6.676   9.258  1.1503  0.1060 -0.8606
26513SOL    HW180117   5.417   6.591   9.235  1.7869  0.5501 -1.5171
26513SOL    HW280118   5.316   6.694   9.190  0.4672 -0.1777 -0.3094
26514SOL     OW80119   8.401   6.169   0.197  0.1227  0.0293 -0.0691
26514SOL    HW180120   8.461   6.188   0.269  0.3229 -1.1709  0.1150
26514SOL    HW280121   8.458   6.154   0.122 -0.1070  1.7466 -0.6225
26515SOL     OW80122   7.466   3.733   3.421  0.2671  0.2262 -0.2038
26515SOL    HW180123   7.451   3.823   3.450 -0.4427  2.2032 -5.5135
26515SOL    HW280124   7.541   3.739   3.362 -0.1700 -2.5600 -1.1884
26516SOL     OW80125   4.194   8.852   7.662 -0.1047 -0.0674  0.3410
26516SOL    HW180126   4.144   8.877   7.739 -2.6320  0.0302 -1.2451
26516SOL    HW280127   4.208   8.758   7.672 -0.9480 -0.1671  0.6482
26517SOL     OW80128   6.147   0.012   9.289 -0.0674  0.3500  0.0709
26517SOL    HW180129   6.146   0.082   9.224  1.9235  1.0551  0.7295
26517SOL    HW280130   6.150   0.058   9.373  2.1635 -0.4517  0.4937
26518SOL     OW80131   4.538   3.402   3.396  0.1890  0.2503  0.1959
26518SOL    HW180132   4.571   3.456   3.469  0.8249  1.7468 -1.1375
26518SOL    HW280133   4.614   3.351   3.369  0.4866  1.1003 -0.6140
26519SOL     OW80134   7.321   5.150   2.066  0.0568 -0.1030 -0.2317
26519SOL    HW180135   7.361   5.227   2.105  1.1263 -0.5238 -0.4766
26519SOL    HW280136   7.251   5.185   2.010 -0.4884  0.5831  0.8382
26520SOL     OW80137   1.286   1.857   7.158 -0.4972 -0.2244  0.0965
26520SOL    HW180138   1.250   1.868   7.070 -1.3759 -2.3194  0.1474
26520SOL    HW280139   1.378   1.882   7.150 -1.1659  2.3937 -0.7176
26521SOL     OW80140   2.205   2.066   9.770  0.5606 -0.4294  0.3528
26521SOL    HW180141   2.266   1.992   9.770 -1.8618 -2.5733 -0.2139
26521SOL    HW280142   2.163   2.062   9.684  0.6743  1.9403  0.1277
26522SOL     OW80143   2.849   0.676   7.890  0.2676  0.1758  0.4942
26522SOL    HW180144   2.880   0.588   7.865 -1.6221  0.1901 -2.3691
26522SOL    HW280145   2.755   0.665   7.903 -0.4624  2.0763 -2.2237
26523SOL     OW80146   3.383   7.959   0.370  0.4030 -0.0992 -0.2823
26523SOL    HW180147   3.384   7.904   0.448 -0.7428  0.1348 -0.0873
26523SOL    HW280148   3.372   7.898   0.297  1.5716 -0.3261 -0.2907
26524SOL     OW80149   3.602   9.364   4.551 -0.0810  0.3188 -0.3657
26524SOL    HW180150   3.531   9.388   4.491  1.1164 -1.0670 -2.4765
26524SOL    HW280151   3.671   9.428   4.534 -0.3718  1.0173  0.9147
26525SOL     OW80152   2.308   6.211   4.322  0.3465 -0.4238  0.3534
26525SOL    HW180153   2.315   6.273   4.250  0.3688  0.4047  1.0616
26525SOL    HW280154   2.365   6.138   4.297  2.0074  0.7811  0.4719
26526SOL     OW80155   5.354   0.045   8.258  0.1397 -0.1690  0.3727
26526SOL    HW180156   5.311  -0.038   8.238  0.0032 -0.1263  0.4879
26526SOL    HW280157   5.448   0.026   8.248  0.0716 -0.1347 -0.3359
26527SOL     OW80158   8.814   7.822   1.140 -0.4379  0.3626  0.0881
26527SOL    HW180159   8.804   7.816   1.235  0.8778 -2.0183  0.1674
26527SOL    HW280160   8.732   7.860   1.110 -1.6095 -0.4449  2.0454
26528SOL     OW80161   2.362   9.698   4.420  0.3231 -0.8240  0.7301
26528SOL    HW180162   2.286   9.647   4.391  0.3868 -1.6115  1.8787
26528SOL    HW280163   2.376   9.671   4.511  0.4749  1.1309  1.3411
26529SOL     OW80164   1.914   8.727   0.588  0.2962  0.4694 -0.1078
26529SOL    HW180165   1.925   8.726   0.683  0.6568  0.3705 -0.1513
26529SOL    HW280166   1.824   8.698   0.574  0.6863 -0.9314  0.1362
26530SOL     OW80167   0.915   9.212  -0.000  0.5404  0.5150 -0.2558
26530SOL    HW180168   0.995   9.236   0.047  0.5100  1.1194 -0.4978
26530SOL    HW280169   0.844   9.242   0.056  0.4085 -1.6938  0.8590
26531SOL     OW80170   7.939   2.801   9.282  0.1097  0.0689 -0.4124
26531SOL    HW180171   7.849   2.807   9.250  0.3318  0.8741 -0.9200
26531SOL    HW280172   7.957   2.888   9.317  0.8672  0.0785 -0.8156
26532SOL     OW80173   6.136   4.525   2.425  0.0890  0.0200  0.3663
26532SOL    HW180174   6.069   4.583   2.391  1.1077  0.3474 -1.2281
26532SOL    HW280175   6.198   4.583   2.469  0.6461  0.0708 -0.4521
26533SOL     OW80176   7.168   5.108   1.719  0.2743  0.1724  0.6797
26533SOL    HW180177   7.093   5.100   1.778 -0.4215  0.9864 -0.0667
26533SOL    HW280178   7.129   5.132   1.634  1.0763 -2.6476 -0.5961
26534SOL     OW80179   1.446   0.749   5.493  1.7949 -0.5320  0.3626
26534SOL    HW180180   1.508   0.822   5.491  1.5312 -0.2979  0.5155
26534SOL    HW280181   1.390   0.768   5.569  0.5465  0.0980 -0.6606
26535SOL     OW80182   6.304   3.860   1.398 -0.1451 -0.1977  0.3616
26535SOL    HW180183   6.261   3.789   1.445 -0.6730  0.3225  0.6826
26535SOL    HW280184   6.330   3.822   1.314 -1.6189 -0.4231 -0.0227
26536SOL     OW80185   5.938   2.860   0.916 -0.6911  0.1509  0.2550
26536SOL    HW180186   5.993   2.800   0.965 -2.0938  0.0984  1.8514
26536SOL    HW280187   5.999   2.914   0.865  0.7531 -0.4345  1.3257
26537SOL     OW80188   3.140   2.809   1.520  0.4141 -0.2445  0.0357
26537SOL    HW180189   3.236   2.810   1.514  0.3664  0.3094 -0.9074
26537SOL    HW280190   3.111   2.817   1.429 -0.5194  1.4017  0.4477
26538SOL     OW80191   5.388   5.532   8.592  0.0579 -0.2131  0.3026
26538SOL    HW180192   5.438   5.602   8.548  0.3359  0.1095  1.1142
26538SOL    HW280193   5.378   5.465   8.525  1.5384 -0.2556  0.0872
26539SOL     OW80194   8.533   7.675   6.811 -0.0366  0.7138 -0.6193
26539SOL    HW180195   8.601   7.619   6.849 -1.2672 -0.0116  0.6046
26539SOL    HW280196   8.490   7.716   6.886  0.4436  2.9125 -1.4602
26540SOL     OW80197   7.819   8.902   7.901  0.5876  0.1679 -0.1607
26540SOL    HW180198   7.877   8.968   7.940 -0.2456  0.5418  0.4610
26540SOL    HW280199   7.748   8.952   7.862  0.0014 -0.3607  0.2200
26541SOL     OW80200   4.559   6.703   0.488 -0.3479  0.0363 -0.2257
26541SOL    HW180201   4.559   6.646   0.565 -1.5788 -0.1550 -0.3474
26541SOL    HW280202   4.651   6.727   0.476 -0.0536 -0.4360  0.9254
26542SOL     OW80203   4.603   7.178   1.768 -0.6527  0.3113  0.0420
26542SOL    HW180204   4.588   7.116   1.840 -2.9919  0.6056 -0.1236
26542SOL    HW280205   4.643   7.254   1.810 -0.5656 -0.1167  0.7570
26543SOL     OW80206   9.435   9.803   0.905 -0.7137 -0.1676  0.0372
26543SOL    HW180207   9.350   9.830   0.939 -0.3435  0.2510  0.6235
26543SOL    HW280208   9.499   9.845   0.961 -0.1133 -0.9944 -0.0012
26544SOL     OW80209   0.371   2.763   2.411 -0.4102 -0.6500  0.2613
26544SOL    HW180210   0.458   2.753   2.372 -0.2289 -0.8790  0.7221
26544SOL    HW280211   0.373   2.707   2.488 -0.5680  0.2576  0.9286
26545SOL     OW80212   3.065   9.200   4.493 -0.0139 -0.0587  0.4757
26545SOL    HW180213   3.153   9.173   4.467 -0.7890  0.1793 -2.9552
26545SOL    HW280214   3.070   9.296   4.498 -0.2495  0.0389 -0.7647
26546SOL     OW80215   4.847  -0.035   7.806 -0.4530 -0.2677 -0.3071
26546SOL    HW180216   4.903   0.015   7.746  1.8018 -0.2222  1.6716
26546SOL    HW280217   4.794   0.031   7.850 -1.5895 -0.2353 -1.6588
26547SOL     OW80218   5.194   1.612   4.977  0.4125 -0.0769 -0.1608
26547SOL    HW180219   5.101   1.591   4.962  0.6570 -0.6549 -0.9211
26547SOL    HW280220   5.226   1.642   4.892  1.1793 -0.8643 -0.1626
26548SOL     OW80221   4.687   3.940   0.563  0.2622  0.4759  0.0798
26548SOL    HW180222   4.699   3.848   0.540 -0.6942  1.0541 -3.2684
26548SOL    HW280223   4.651   3.938   0.651  0.4554 -2.3321  0.1819
26549SOL     OW80224   7.762   3.218   1.537 -0.5781 -0.2468  0.3381
26549SOL    HW180225   7.707   3.209   1.615 -1.2274  2.4524  0.2871
26549SOL    HW280226   7.836   3.273   1.565 -1.1755  1.3650 -1.0233
26550SOL     OW80227   2.321   0.124   0.918 -0.1094  0.6703  0.4794
26550SOL    HW180228   2.331   0.138   1.013 -1.6769  0.0324  0.7744
26550SOL    HW280229   2.377   0.049   0.899  1.3727  1.7102  0.5916
26551SOL     OW80230   8.093   9.797   4.552 -0.0947  0.0341  0.5266
26551SOL    HW180231   8.142   9.833   4.626  0.5842 -0.5289  0.3739
26551SOL    HW280232   8.013   9.763   4.591 -0.0622  0.3679  0.8973
26552SOL     OW80233   7.018   4.837   3.198  0.0367 -0.0520 -0.2139
26552SOL    HW180234   7.064   4.893   3.135  1.0845  0.8908  1.3130
26552SOL    HW280235   7.040   4.874   3.283  0.2646 -2.4751  0.8500
26553SOL     OW80236   8.446   7.830   4.566 -0.0208 -0.9023 -0.1173
26553SOL    HW180237   8.500   7.891   4.615 -0.5171 -1.1406  0.7325
26553SOL    HW280238   8.357   7.863   4.575 -0.0710 -0.6729 -1.2720
26554SOL     OW80239   3.290   2.577   5.452 -0.8080 -0.2464  0.2268
26554SOL    HW180240   3.325   2.499   5.496  2.0096 -0.2982 -1.8081
26554SOL    HW280241   3.207   2.548   5.415 -0.5486 -1.8520  0.8020
26555SOL     OW80242   5.957   9.167   4.312 -0.2534  0.2719  0.3233
26555SOL    HW180243   5.959   9.078   4.276  0.7821  0.4921 -0.2179
26555SOL    HW280244   6.049   9.194   4.313 -0.3627  0.6898  2.1589
26556SOL     OW80245   5.861   0.470   9.611 -0.3926  0.3623 -0.1245
26556SOL    HW180246   5.837   0.488   9.702 -1.1772 -0.2106 -0.2023
26556SOL    HW280247   5.956   0.466   9.612 -0.4132 -1.3473  1.0398
26557SOL     OW80248   4.581   5.868   0.297 -0.0059  0.2563 -0.2936
26557SOL    HW180249   4.613   5.952   0.330 -0.3266  0.0835  0.4726
26557SOL    HW280250   4.656   5.831   0.250  0.7875  0.0866  1.0505
26558SOL     OW80251   2.969   5.023   1.127 -0.2422  0.1809 -0.2777
26558SOL    HW180252   3.043   4.964   1.135 -0.7488 -0.4920 -0.5376
26558SOL    HW280253   2.925   5.018   1.213 -0.7921 -0.5109 -0.5900
26559SOL     OW80254   8.217   6.497   4.470  0.0334  0.0055 -0.3726
26559SOL    HW180255   8.272   6.419   4.467  0.0500 -0.0293  0.5362
26559SOL    HW280256   8.278   6.571   4.472  0.0214  0.0349 -0.9977
26560SOL     OW80257   1.064   7.822   2.687 -0.2773  0.4702 -0.4770
26560SOL    HW180258   1.000   7.890   2.710 -1.3587 -0.2536 -1.2824
26560SOL    HW280259   1.056   7.757   2.757 -0.1417  0.5587 -0.3777
26561SOL     OW80260   2.988   5.040   4.012 -0.4178  0.0994  0.1547
26561SOL    HW180261   2.970   5.076   3.925 -1.2617  0.2316  0.3758
26561SOL    HW280262   3.070   4.991   4.001 -2.2288 -2.8430 -1.5788
26562SOL     OW80263   1.807   7.209   4.208 -0.0463 -0.0986  0.3458
26562SOL    HW180264   1.774   7.152   4.138  2.3122 -2.6591  1.1916
26562SOL    HW280265   1.737   7.211   4.273 -0.2398 -1.9607  0.2242
26563SOL     OW80266   9.912   5.655   6.348  0.5319 -0.1126 -0.9704
26563SOL    HW180267   9.931   5.718   6.418 -0.6898 -0.7301 -0.0538
26563SOL    HW280268   9.998   5.634   6.311  1.6101 -1.9716  2.2394
26564SOL     OW80269   2.711   6.740   5.789  0.7230  0.3795 -0.7256
26564SOL    HW180270   2.668   6.658   5.813  1.1092  0.5360  0.5664
26564SOL    HW280271   2.642   6.793   5.751 -0.0720  0.3369  0.6013
26565SOL     OW80272   3.171   0.128   2.190  0.0440 -0.0156 -0.0998
26565SOL    HW180273   3.084   0.136   2.228  0.4399 -3.6042  2.0018
26565SOL    HW280274   3.156   0.098   2.101 -0.8076  1.9281 -0.6644
26566SOL     OW80275   8.847   0.894   1.619  0.0715 -0.3480  0.2418
26566SOL    HW180276   8.817   0.985   1.618  0.5785 -0.1713 -1.1834
26566SOL    HW280277   8.767   0.842   1.626 -0.1784  0.1915  1.8639
26567SOL     OW80278   3.017   6.685   4.957 -0.1620  0.5844 -0.5145
26567SOL    HW180279   3.062   6.616   5.006 -0.5020  0.5495 -0.2440
26567SOL    HW280280   2.984   6.744   5.025 -1.5077  0.0010 -0.6272
26568SOL     OW80281   2.702   3.191   6.290 -0.3380 -0.1456  0.5469
26568SOL    HW180282   2.784   3.151   6.261 -1.0003  0.2478 -2.0569
26568SOL    HW280283   2.655   3.119   6.333 -0.8008 -1.8731 -2.5759
26569SOL     OW80284   4.622   3.899   5.437  0.0392 -0.0091 -0.4176
26569SOL    HW180285   4.533   3.934   5.434  0.4381  1.0736 -0.1022
26569SOL    HW280286   4.667   3.956   5.499  0.4770 -1.6764  0.8448
26570SOL     OW80287   7.303   8.119   0.639 -0.0953  0.4007 -0.3285
26570SOL    HW180288   7.328   8.123   0.732 -2.0920  1.8695  0.2229
26570SOL    HW280289   7.299   8.211   0.612 -0.7472  0.0306 -1.5139
26571SOL     OW80290   1.006   5.890   0.519 -0.4155 -0.8798  0.4029
26571SOL    HW180291   1.033   5.881   0.428 -0.4158  1.1715  0.1503
26571SOL    HW280292   1.073   5.843   0.569 -0.2634 -1.7827 -0.6214
26572SOL     OW80293   6.464   7.086   4.109  0.2034 -0.1169 -0.0479
26572SOL    HW180294   6.550   7.126   4.120 -0.0349  0.7947 -1.2611
26572SOL    HW280295   6.432   7.073   4.198  1.0035  0.8587  0.4040
26573SOL     OW80296   4.224   2.004   7.885  0.4846  0.0774 -0.7618
26573SOL    HW180297   4.163   2.069   7.920 -0.9316 -2.5927  2.2053
26573SOL    HW280298   4.308   2.029   7.922  0.9741  2.5089 -3.1181
26574SOL     OW80299   6.335   5.747   1.309  0.2778 -0.4051 -0.0287
26574SOL    HW180300   6.417   5.728   1.354  0.0681  1.7062  1.4298
26574SOL    HW280301   6.270   5.751   1.379 -0.7016 -0.1764 -0.9274
26575SOL     OW80302   6.881   2.476   8.762 -0.4548 -0.4713  0.4279
26575SOL    HW180303   6.860   2.383   8.756  0.0952 -0.5364 -0.7371
26575SOL    HW280304   6.833   2.516   8.689 -0.0334  0.0303  0.4228
26576SOL     OW80305   8.480   5.199   6.500 -0.8621  0.0749  0.6156
26576SOL    HW180306   8.430   5.279   6.512  0.1718  0.8601 -0.1791
26576SOL    HW280307   8.569   5.221   6.526 -0.1053 -0.1779 -1.5132
26577SOL     OW80308   4.292   4.992   1.734 -0.2556  0.2803 -0.0590
26577SOL    HW180309   4.361   4.933   1.765  0.5981  1.5286  0.4544
26577SOL    HW280310   4.221   4.980   1.797  0.2438  0.4199  0.5407
26578SOL     OW80311   5.092   1.962   3.258  0.1927 -0.6246  0.3392
26578SOL    HW180312   5.012   2.004   3.226  0.5236 -0.4334 -0.2617
26578SOL    HW280313   5.064   1.909   3.332 -0.2508  0.5637  1.0394
26579SOL     OW80314   9.642   0.949   7.783 -0.3523 -0.4124  0.1997
26579SOL    HW180315   9.656   0.896   7.704 -0.8363  0.5393 -0.5513
26579SOL    HW280316   9.729   0.979   7.807 -0.1660 -0.9305  0.1970
26580SOL     OW80317   3.420   6.047   8.373 -0.4344  0.0545 -0.3958
26580SOL    HW180318   3.499   6.027   8.423  0.4649 -0.0975 -1.7904
26580SOL    HW280319   3.453   6.074   8.287 -1.8799  0.9178 -0.7097
26581SOL     OW80320   5.305   0.772   3.242 -0.4389 -0.4876 -0.1988
26581SOL    HW180321   5.246   0.699   3.262 -1.1003  0.2764  0.7448
26581SOL    HW280322   5.267   0.813   3.165  1.0033 -2.2465 -1.9478
26582SOL     OW80323   4.776   6.245   6.671  0.3759 -0.5854 -0.0956
26582SOL    HW180324   4.731   6.208   6.747  1.0584  1.1047  1.2154
26582SOL    HW280325   4.823   6.171   6.633  0.2177 -1.4437  1.2887
26583SOL     OW80326   4.076   3.214   8.482  0.2550 -0.5741  0.0117
26583SOL    HW180327   4.137   3.229   8.554 -0.2982 -0.3777  0.4515
26583SOL    HW280328   4.034   3.131   8.502 -1.0681  0.2395  0.7955
26584SOL     OW80329   1.190   4.452   7.017 -0.0548  0.5587  0.0723
26584SOL    HW180330   1.207   4.518   7.084 -2.4371  1.1370  0.1819
26584SOL    HW280331   1.135   4.496   6.953  0.1531 -0.7013 -1.0234
26585SOL     OW80332   7.992   1.901   3.751 -0.1259 -0.4322 -0.2615
26585SOL    HW180333   7.934   1.832   3.716  0.1397 -1.2891  0.9421
26585SOL    HW280334   8.077   1.882   3.713 -0.0996 -0.6300 -0.1008
26586SOL     OW80335   0.127   9.091   3.503  0.2693  0.1597 -0.2929
26586SOL    HW180336   0.176   9.086   3.421  0.2897  1.2894 -0.3607
26586SOL    HW280337   0.051   9.034   3.488  1.8807 -2.2270  0.0898
26587SOL     OW80338   6.545   8.549   0.506 -0.0986 -0.1059 -0.2094
26587SOL    HW180339   6.465   8.600   0.497 -0.5234 -0.8574 -0.8222
26587SOL    HW280340   6.548   8.494   0.427 -0.9116 -2.7404  1.4448
26588SOL     OW80341   4.627   1.327   8.828 -0.6560 -0.5688  0.0006
26588SOL    HW180342   4.680   1.406   8.825  0.9304 -1.6081 -1.6228
26588SOL    HW280343   4.559   1.340   8.762 -0.1189 -0.7252 -0.5903
26589SOL     OW80344   8.405   6.141   2.791  0.8433  0.4887  0.0235
26589SOL    HW180345   8.424   6.167   2.701  0.6882 -0.7918 -0.3961
26589SOL    HW280346   8.374   6.221   2.834 -1.5897  0.5810 -1.7407
26590SOL     OW80347   1.480   7.657   4.995 -0.4399 -0.4381  0.2374
26590SOL    HW180348   1.467   7.724   4.928  1.9558  1.5122  1.5221
26590SOL    HW280349   1.467   7.703   5.078  3.6497 -0.7152  1.2616
26591SOL     OW80350   8.843   6.219   4.963 -0.7141 -0.1892 -0.0274
26591SOL    HW180351   8.778   6.189   5.027 -2.1088  2.6248  0.0386
26591SOL    HW280352   8.791   6.242   4.885 -0.0302  2.8720  0.2899
26592SOL     OW80353   3.785   8.299   1.773 -0.1672  0.3612 -0.6238
26592SOL    HW180354   3.713   8.291   1.836  0.1669  0.3881 -0.2334
26592SOL    HW280355   3.854   8.344   1.822  0.2483  0.0056 -0.8781
26593SOL     OW80356   7.923   2.481   1.606 -0.4419  0.2837 -0.0335
26593SOL    HW180357   8.014   2.480   1.637 -1.2020 -0.5951  2.2970
26593SOL    HW280358   7.871   2.452   1.680 -2.6427  0.4485 -1.4172
26594SOL     OW80359   4.741   7.176   9.837  0.1713  0.3194  0.0102
26594SOL    HW180360   4.828   7.158   9.872  0.1266  0.9519  0.4591
26594SOL    HW280361   4.758   7.222   9.755  0.2590  0.1116 -0.0893
26595SOL     OW80362   3.499   3.131   6.259  0.1986 -0.1111  0.2607
26595SOL    HW180363   3.471   3.200   6.319  0.7258 -0.6774  1.1642
26595SOL    HW280364   3.564   3.081   6.307 -0.9778 -1.9436  0.0647
26596SOL     OW80365   1.546   6.105   8.574  0.0213 -0.3761  0.1799
26596SOL    HW180366   1.593   6.084   8.655 -0.0357  2.1053  0.9167
26596SOL    HW280367   1.487   6.176   8.598 -1.0957 -0.5937 -1.7282
26597SOL     OW80368   5.879   9.959   8.877 -0.2250  0.1324  0.1097
26597SOL    HW180369   5.814  10.009   8.926 -0.7307 -1.0738  0.7116
26597SOL    HW280370   5.952   9.948   8.939 -0.9614 -1.5952  0.7432
26598SOL     OW80371   8.781   7.346   7.719  0.1657 -0.0242  0.0011
26598SOL    HW180372   8.697   7.304   7.738  0.1607 -0.1698 -0.3332
26598SOL    HW280373   8.795   7.331   7.625  0.9333 -0.6654  0.2075
26599SOL     OW80374   1.876   7.397   3.663 -0.0452  0.3753  0.9054
26599SOL    HW180375   1.912   7.310   3.643 -0.7753 -0.2056  2.0473
26599SOL    HW280376   1.795   7.402   3.612  1.5294  1.7206 -1.7384
26600SOL     OW80377   4.743   6.511   8.206  0.0632  0.0770  0.7231
26600SOL    HW180378   4.656   6.504   8.244  0.6886  1.3519  2.5832
26600SOL    HW280379   4.797   6.452   8.259  0.6994  0.7869  0.8763
26601SOL     OW80380   5.708   5.143   4.967  0.0297  0.0981 -0.7212
26601SOL    HW180381   5.762   5.075   4.926 -1.8064 -3.0805  1.6565
26601SOL    HW280382   5.760   5.172   5.042 -0.5233 -1.1969  0.1850
26602SOL     OW80383   4.948   6.065   3.592  0.2088  0.3305 -0.3492
26602SOL    HW180384   4.998   6.039   3.515  2.4912  0.5171  0.9625
26602SOL    HW280385   4.877   6.001   3.598  0.7510 -0.4483 -1.8810
26603SOL     OW80386   5.911   0.465   6.782 -0.2253 -0.4076  0.1196
26603SOL    HW180387   5.908   0.537   6.845  0.2168 -1.3982  1.3114
26603SOL    HW280388   5.847   0.489   6.715  0.5322  1.4967  0.0264
26604SOL     OW80389   9.587   9.889   2.559  0.7355  0.2210 -0.0755
26604SOL    HW180390   9.496   9.911   2.577  0.1267 -0.8599 -1.5748
26604SOL    HW280391   9.637   9.965   2.589 -0.8214  1.6639 -0.9613
26605SOL     OW80392   4.712   1.190   7.965  0.0529  0.0424  0.0576
26605SOL    HW180393   4.699   1.180   7.870 -0.7342 -1.0395  0.2597
26605SOL    HW280394   4.807   1.188   7.977  0.2308  1.4423 -0.8170
26606SOL     OW80395   5.161   5.576   8.730 -0.5559  0.2964 -0.4213
26606SOL    HW180396   5.234   5.536   8.683 -1.3575 -0.9607 -0.6461
26606SOL    HW280397   5.195   5.659   8.762  1.1598 -0.5265 -0.0056
26607SOL     OW80398   5.023   1.416   2.333  0.4632 -0.3634 -0.0499
26607SOL    HW180399   5.115   1.390   2.324  1.0525  1.2397  0.9273
26607SOL    HW280400   4.977   1.363   2.268  1.9199 -1.9569  0.1300
26608SOL     OW80401   8.188   6.142   4.840  0.4621 -0.0012  0.0859
26608SOL    HW180402   8.110   6.119   4.789  0.5843  2.0706 -1.0999
26608SOL    HW280403   8.158   6.211   4.900  0.4343 -2.0369  2.6296
26609SOL     OW80404   9.439   5.642   9.326  0.3603  0.4459 -0.3610
26609SOL    HW180405   9.430   5.682   9.239  1.0656 -3.3485 -2.3751
26609SOL    HW280406   9.533   5.625   9.334  0.2022  0.0884  0.8506
26610SOL     OW80407   6.972   8.697   3.528 -0.4342 -0.6903 -0.3645
26610SOL    HW180408   7.011   8.784   3.534 -0.7397 -0.6464  2.4096
26610SOL    HW280409   7.040   8.638   3.562 -1.2376 -1.1420  0.5091
26611SOL     OW80410   6.901   8.120   1.602 -0.2273  0.1446 -0.2207
26611SOL    HW180411   6.840   8.170   1.657  0.4348  1.1633 -0.3731
26611SOL    HW280412   6.880   8.147   1.513  0.1671  0.2007 -0.3002
26612SOL     OW80413   6.163   7.248   9.624 -0.3591 -0.0907  0.6997
26612SOL    HW180414   6.220   7.323   9.641  0.5677 -0.7503  0.5787
26612SOL    HW280415   6.182   7.225   9.533 -1.9696  0.6340  0.1470
26613SOL     OW80416   6.096   0.694   2.661 -0.1011  0.1958  0.7149
26613SOL    HW180417   6.189   0.719   2.661 -0.0697  0.2719  2.5985
26613SOL    HW280418   6.073   0.690   2.754 -2.2261  0.9926  0.2681
26614SOL     OW80419   1.358   4.010   3.935  0.3747  0.1502 -0.1792
26614SOL    HW180420   1.364   3.955   3.857  2.7642  1.3621 -0.9296
26614SOL    HW280421   1.318   4.091   3.905 -0.4698 -0.0739  0.3043
26615SOL     OW80422   8.944   1.971   4.310 -0.6508 -0.4158 -0.2640
26615SOL    HW180423   8.896   2.035   4.363  0.6752  1.8454 -1.6249
26615SOL    HW280424   9.029   1.963   4.352 -0.9906 -1.7742  0.2116
26616SOL     OW80425   5.713   1.034   1.967 -0.0951  0.0929  0.2648
26616SOL    HW180426   5.663   1.000   1.893  0.0875  1.4276 -0.5044
26616SOL    HW280427   5.776   0.965   1.986 -0.1675 -0.3010 -0.8101
26617SOL     OW80428   6.398   5.384   0.770  0.2190  0.0179 -0.2995
26617SOL    HW180429   6.418   5.386   0.677 -0.2318 -1.6124 -0.4593
26617SOL    HW280430   6.410   5.474   0.799  0.2517  0.5740 -1.9497
26618SOL     OW80431   8.137   3.843   7.692  0.3293  0.2791 -0.0418
26618SOL    HW180432   8.163   3.930   7.661  0.9009  0.0796 -0.1192
26618SOL    HW280433   8.204   3.784   7.659  1.1632  0.0920  1.8631
26619SOL     OW80434   5.211   7.126   0.523 -0.1869 -0.4308  0.1013
26619SOL    HW180435   5.245   7.204   0.479  3.5960 -1.6089  0.5595
26619SOL    HW280436   5.170   7.159   0.603 -1.1533  1.2294 -1.0316
26620SOL     OW80437   1.048   9.164   4.003  0.1082 -0.5142  0.7195
26620SOL    HW180438   1.087   9.244   4.040  0.5361 -0.1292 -0.5065
26620SOL    HW280439   1.081   9.162   3.913 -2.4529 -0.3614 -0.2803
26621SOL     OW80440   7.034   3.792   2.905 -0.4586  0.3336 -0.4320
26621SOL    HW180441   6.955   3.809   2.853 -0.3952 -0.6750 -0.8890
26621SOL    HW280442   7.099   3.762   2.841 -0.4063 -1.0116  0.2136
26622SOL     OW80443   8.566   8.517   0.355  0.0589  0.2100 -0.4028
26622SOL    HW180444   8.528   8.541   0.440  1.8243 -0.5374  0.6449
26622SOL    HW280445   8.658   8.499   0.374  0.0338 -2.0797 -2.0849
26623SOL     OW80446   4.566   8.609   5.606  0.2549 -0.5851  1.1501
26623SOL    HW180447   4.548   8.665   5.682  1.0867 -0.7543  1.4859
26623SOL    HW280448   4.601   8.528   5.644  0.2432 -0.8468  0.6100
26624SOL     OW80449   2.029   7.155   3.628  0.1161  0.2895 -0.6599
26624SOL    HW180450   2.025   7.090   3.559 -3.4312 -0.4932  0.1022
26624SOL    HW280451   2.051   7.106   3.707  0.9323  0.6423 -0.6569
26625SOL     OW80452   6.580   1.125   7.915  0.3135  0.3565  0.2186
26625SOL    HW180453   6.620   1.211   7.899  0.7343  0.4792  1.7651
26625SOL    HW280454   6.608   1.102   8.004 -0.9424 -0.7431  0.3550
26626SOL     OW80455   1.999   7.663   5.435  0.2422 -0.1653  0.5508
26626SOL    HW180456   2.033   7.636   5.520 -1.0043  0.2416  1.2047
26626SOL    HW280457   2.028   7.753   5.424 -1.4451  0.5491  1.5997
26627SOL     OW80458   2.720   1.163   7.166  0.1006  0.0286  0.1996
26627SOL    HW180459   2.762   1.118   7.240  0.4913  0.2477  0.1098
26627SOL    HW280460   2.791   1.185   7.107 -0.3385 -1.2895 -0.8767
26628SOL     OW80461   4.393   2.859   9.885  1.0933  0.0165 -0.3430
26628SOL    HW180462   4.435   2.826   9.965  2.0032  1.6191 -0.1058
26628SOL    HW280463   4.321   2.798   9.868  1.6436 -1.0591  0.9965
26629SOL     OW80464   4.758   7.024   0.734 -0.2069 -0.0533 -0.3058
26629SOL    HW180465   4.774   6.990   0.646 -0.9329 -0.1695 -0.4056
26629SOL    HW280466   4.820   6.977   0.789 -0.8732 -1.2372 -0.5119
26630SOL     OW80467   9.068   9.190   5.750  0.5095  0.1916 -0.1235
26630SOL    HW180468   9.115   9.268   5.780  1.7118  0.3097 -2.1252
26630SOL    HW280469   9.002   9.174   5.818  0.6927  2.5183  0.7002
26631SOL     OW80470   6.425   3.039   7.153 -0.0470  0.2895 -0.1086
26631SOL    HW180471   6.425   2.990   7.236  0.6715  1.5092  0.6399
26631SOL    HW280472   6.516   3.037   7.124 -0.2107  0.2791 -0.6246
26632SOL     OW80473   0.390   4.239   1.640 -0.1240  0.3081  0.1201
26632SOL    HW180474   0.304   4.279   1.653  0.7968  1.7052  2.8217
26632SOL    HW280475   0.404   4.185   1.718  1.1711 -0.4484 -0.5949
26633SOL     OW80476   8.559   9.560   6.711  0.3299  0.1619 -0.1984
26633SOL    HW180477   8.575   9.612   6.633 -0.0807 -0.0115 -0.4004
26633SOL    HW280478   8.615   9.600   6.778  0.1714  0.7338 -0.4013
26634SOL     OW80479   2.496   6.805   8.758 -0.1398 -0.5215 -0.2753
26634SOL    HW180480   2.547   6.846   8.828 -1.5066 -2.2616  1.8164
26634SOL    HW280481   2.488   6.875   8.692 -0.1703  1.7339  1.9502
26635SOL     OW80482   6.167   2.942   1.493 -0.1548  0.3685 -0.3104
26635SOL    HW180483   6.134   2.873   1.551  2.3171 -0.5231  0.1350
26635SOL    HW280484   6.195   2.896   1.415  1.5325  0.8271 -0.0089
26636SOL     OW80485   9.987   2.838   0.970 -0.4750 -0.6201 -0.2491
26636SOL    HW180486   9.993   2.912   1.031 -2.0575  1.1642 -2.0719
26636SOL    HW280487   9.918   2.783   1.007  0.1056 -0.7531  0.6773
26637SOL     OW80488   4.103   9.739   4.862 -0.3339 -0.4091 -0.4230
26637SOL    HW180489   4.041   9.799   4.905  0.5864  0.0797  0.2416
26637SOL    HW280490   4.052   9.700   4.790 -0.5951  2.1783 -1.7484
26638SOL     OW80491   8.174   5.370   7.189 -0.3070 -0.2715 -0.3587
26638SOL    HW180492   8.127   5.453   7.188  0.1835  0.1123  2.4284
26638SOL    HW280493   8.237   5.379   7.260 -0.3913 -3.1280  0.1633
26639SOL     OW80494   6.737   4.183   0.154  0.3264 -0.3967  0.2701
26639SOL    HW180495   6.693   4.228   0.227 -0.0161  0.6351 -0.5444
26639SOL    HW280496   6.683   4.203   0.078  1.0410 -0.9169 -0.3875
26640SOL     OW80497   8.671   3.901   0.047 -0.4284  0.0002 -0.5615
26640SOL    HW180498   8.743   3.840   0.032  0.0314  0.1985  0.6650
26640SOL    HW280499   8.641   3.881   0.136  1.0818  2.8408  0.7167
26641SOL     OW80500   8.097   3.489   8.257 -0.1809 -0.4847 -0.8093
26641SOL    HW180501   8.037   3.564   8.245 -1.0523 -0.9576  0.4269
26641SOL    HW280502   8.182   3.530   8.273 -0.7198  0.2922  0.2812
26642SOL     OW80503   6.940   0.361   4.667 -0.4047  0.0105 -0.9452
26642SOL    HW180504   6.921   0.273   4.635 -1.5325 -0.0312 -0.2142
26642SOL    HW280505   6.934   0.416   4.589 -0.4195 -0.4562 -1.2804
26643SOL     OW80506   6.263   0.488   5.139 -0.6554  0.3108 -0.4038
26643SOL    HW180507   6.288   0.579   5.119  0.3960  1.1390  3.7125
26643SOL    HW280508   6.331   0.435   5.097  0.3056  1.6444 -0.6169
26644SOL     OW80509   6.669   9.987   1.214 -0.2168 -0.2154  0.5004
26644SOL    HW180510   6.729   9.918   1.185  0.0488  0.2099  0.0234
26644SOL    HW280511   6.707  10.018   1.296  0.1219 -0.0645  0.2875
26645SOL     OW80512   9.044   3.749   2.935  0.3098 -0.1818  0.0441
26645SOL    HW180513   8.980   3.704   2.990 -0.3392  1.6708  0.8837
26645SOL    HW280514   9.129   3.726   2.973  0.0076 -0.7428  0.3923
26646SOL     OW80515   7.646   7.285   1.414 -0.2059 -0.2189  0.1617
26646SOL    HW180516   7.659   7.375   1.385 -0.8063  0.7705  2.7095
26646SOL    HW280517   7.725   7.265   1.465  0.0016 -1.2319 -0.5198
26647SOL     OW80518   6.454   1.904   6.160 -0.0910  0.2227  0.0867
26647SOL    HW180519   6.529   1.849   6.139 -1.0027 -0.7477 -0.7369
26647SOL    HW280520   6.389   1.882   6.094 -1.7148 -0.2208  1.7300
26648SOL     OW80521   6.940   6.101   4.915  0.1153  0.2893 -0.1598
26648SOL    HW180522   6.908   6.023   4.960 -0.7044 -0.0212 -1.2366
26648SOL    HW280523   6.861   6.152   4.897  0.3937  0.2717 -1.4758
26649SOL     OW80524   1.795   9.657   5.899 -0.4766  0.1777  0.5322
26649SOL    HW180525   1.790   9.731   5.839 -0.4659  0.0533  0.3757
26649SOL    HW280526   1.862   9.600   5.862  1.3172  1.2501  1.9782
26650SOL     OW80527   4.001   1.053   6.490  0.1243  0.5802  0.9603
26650SOL    HW180528   3.916   1.060   6.535  0.2029 -0.1377  1.2306
26650SOL    HW280529   4.034   1.143   6.488 -0.1254  0.7001  1.8720
26651SOL     OW80530   0.317   8.851   6.252  0.6576 -0.4808 -0.0198
26651SOL    HW180531   0.334   8.816   6.339  0.7046  2.9103  1.4837
26651SOL    HW280532   0.228   8.821   6.231  0.4832 -1.0088  1.3601
26652SOL     OW80533   3.292   4.817   5.547  0.6097 -0.4420  0.1173
26652SOL    HW180534   3.301   4.726   5.575  3.2056 -0.4248 -0.4248
26652SOL    HW280535   3.349   4.867   5.606  0.4215  0.6180 -0.5628
26653SOL     OW80536   5.399   6.625   9.580 -0.6836 -0.1763 -0.2426
26653SOL    HW180537   5.366   6.536   9.593  1.3013 -0.9361 -0.0523
26653SOL    HW280538   5.387   6.642   9.487  2.5464 -2.2810 -1.1848
26654SOL     OW80539   4.514   2.547   6.041 -0.1324 -0.0619  0.6472
26654SOL    HW180540   4.446   2.510   5.985  0.6641  0.1734 -0.5156
26654SOL    HW280541   4.474   2.553   6.128 -1.6897  0.3624 -0.0792
26655SOL     OW80542   2.891   4.455   5.918 -0.3424  0.1123  0.9908
26655SOL    HW180543   2.859   4.370   5.891 -1.8979  0.8810  0.2637
26655SOL    HW280544   2.825   4.517   5.886  0.6975  1.5804  1.5582
26656SOL     OW80545   6.283   1.362   2.226  0.2291 -0.3861  0.2918
26656SOL    HW180546   6.275   1.312   2.307  0.6813 -0.1948  0.4593
26656SOL    HW280547   6.290   1.295   2.158 -1.2785 -0.5562  0.2724
26657SOL     OW80548   8.217   2.281   3.035 -0.0889 -0.0587 -0.5750
26657SOL    HW180549   8.238   2.252   2.947  2.2954  0.4906 -0.2617
26657SOL    HW280550   8.269   2.361   3.047 -0.4769 -0.0342  1.2704
26658SOL     OW80551   2.035   0.818   2.650  0.4441 -0.0588 -0.0615
26658SOL    HW180552   1.971   0.889   2.640  0.0842 -0.2264  0.9452
26658SOL    HW280553   2.099   0.834   2.581  0.8064  1.7248  0.6285
26659SOL     OW80554   2.794   4.076   4.607 -0.0043  0.1007  0.4948
26659SOL    HW180555   2.782   4.009   4.540 -2.1623 -0.5794  1.4988
26659SOL    HW280556   2.858   4.038   4.667  0.3340 -0.1773 -0.0312
26660SOL     OW80557   0.798   4.059   3.332 -0.1048 -0.4990  0.3016
26660SOL    HW180558   0.821   3.989   3.271  0.0134 -0.9350  0.8325
26660SOL    HW280559   0.882   4.085   3.371  0.4210  2.3686 -2.3673
26661SOL     OW80560   0.859   2.198   7.401  0.2179 -0.1494 -0.3979
26661SOL    HW180561   0.859   2.141   7.478  0.8127  0.0295 -0.2586
26661SOL    HW280562   0.805   2.273   7.427 -2.4353 -1.5906 -1.3336
26662SOL     OW80563   7.626   8.285   8.958  0.1893 -0.7059  0.3008
26662SOL    HW180564   7.539   8.295   8.918  1.1302 -0.8090 -1.8996
26662SOL    HW280565   7.677   8.236   8.894  2.1172 -0.0141  1.2108
26663SOL     OW80566   9.086   3.850   1.145  0.3965  0.0669 -0.3507
26663SOL    HW180567   9.124   3.787   1.206  1.5025  0.5547 -0.5184
26663SOL    HW280568   9.112   3.936   1.180 -2.0944  0.5369  0.5753
26664SOL     OW80569   8.728   9.373   3.545  0.0805 -0.3826 -0.3689
26664SOL    HW180570   8.782   9.383   3.624 -1.1846  0.5924  0.4121
26664SOL    HW280571   8.786   9.397   3.473  0.6075  0.9464  0.4652
26665SOL     OW80572   0.182   4.113   8.020  0.6329  0.3659 -0.2567
26665SOL    HW180573   0.179   4.176   7.948  0.7831  0.8857  0.1870
26665SOL    HW280574   0.098   4.068   8.016 -1.2501  3.3336  1.8566
26666SOL     OW80575   4.832   7.105   6.583 -0.1296  0.3481 -0.1710
26666SOL    HW180576   4.909   7.093   6.527 -0.1849 -1.6670  0.1170
26666SOL    HW280577   4.866   7.154   6.659  1.4602 -2.3713  1.0037
26667SOL     OW80578   9.211   8.392   0.048  0.3760  0.2600  0.0027
26667SOL    HW180579   9.143   8.402   0.114  0.7400  2.2687  0.1243
26667SOL    HW280580   9.273   8.330   0.087 -1.4822 -1.8916 -0.2594
26668SOL     OW80581   7.802   1.406   5.727 -0.4596  0.1882 -0.5961
26668SOL    HW180582   7.727   1.437   5.778  0.6468  2.1839 -0.0728
26668SOL    HW280583   7.808   1.467   5.654  1.7908  1.3959  0.4611
26669SOL     OW80584   6.853   2.033   8.557  0.5090  0.1385 -0.3092
26669SOL    HW180585   6.770   1.989   8.571  1.3661 -0.8504  2.2398
26669SOL    HW280586   6.919   1.969   8.583  2.2270  0.3646 -3.6196
26670SOL     OW80587   2.629   1.375   5.066  0.2621  0.3880  0.6030
26670SOL    HW180588   2.678   1.444   5.023  0.4508  1.3170  2.2128
26670SOL    HW280589   2.603   1.413   5.151 -3.8320  0.2322 -0.3568
26671SOL     OW80590   8.041   7.730   6.228 -0.2994  0.2980 -0.2425
26671SOL    HW180591   8.080   7.774   6.304 -1.6161  1.1365 -0.0207
26671SOL    HW280592   8.009   7.647   6.263  1.2325 -0.4065 -0.4296
26672SOL     OW80593   4.623   1.930   4.283 -0.2480 -0.6082  0.0177
26672SOL    HW180594   4.659   1.876   4.353 -0.9746  0.6548  1.4246
26672SOL    HW280595   4.573   1.868   4.229  1.6948 -1.8881 -0.3886
26673SOL     OW80596   8.488   8.088   8.350 -0.6266 -0.2331  0.1373
26673SOL    HW180597   8.523   8.027   8.415  0.2681  0.9607  0.8322
26673SOL    HW280598   8.485   8.172   8.395  0.8204  0.8275 -1.5848
26674SOL     OW80599   7.650   8.947   7.341  0.3962  0.2621 -0.6851
26674SOL    HW180600   7.558   8.942   7.366  0.5005  1.4374 -0.0008
26674SOL    HW280601   7.657   8.888   7.266 -1.0505  0.6258 -1.1437
26675SOL     OW80602   9.643   2.296   0.926 -0.5505 -0.1639 -0.0284
26675SOL    HW180603   9.696   2.241   0.983 -0.8594  1.3005  1.7651
26675SOL    HW280604   9.553   2.264   0.939 -0.4144 -1.1120 -1.2603
26676SOL     OW80605   1.960   0.204   0.226  0.2042  0.0381  0.1037
26676SOL    HW180606   1.903   0.275   0.255 -0.0633  0.1949 -0.7566
26676SOL    HW280607   1.962   0.143   0.299 -1.6892 -0.3466 -0.1025
26677SOL     OW80608   4.243   6.079   9.498  0.0617  0.5624 -0.2454
26677SOL    HW180609   4.312   6.053   9.559 -0.3515  1.0855  0.4608
26677SOL    HW280610   4.163   6.040   9.534 -0.1412  0.6302 -0.6167
26678SOL     OW80611   5.307   3.691   0.382 -0.2315  0.6619 -0.7464
26678SOL    HW180612   5.332   3.759   0.445  1.4091  1.0025 -1.6910
26678SOL    HW280613   5.261   3.626   0.434  2.2479  0.2705  1.1511
26679SOL     OW80614   7.799   3.168   0.882  0.1360  0.0944 -0.6428
26679SOL    HW180615   7.882   3.132   0.851 -0.2816 -0.1430 -1.5180
26679SOL    HW280616   7.748   3.181   0.802 -1.2526 -1.2097  0.0016
26680SOL     OW80617   1.010   0.939   5.591  0.3124 -0.5343  0.3206
26680SOL    HW180618   0.963   0.872   5.541 -1.0735  0.3072  0.4424
26680SOL    HW280619   0.991   1.021   5.545 -0.8928  0.2491  2.0982
26681SOL     OW80620   6.295   3.700   5.708 -0.2528 -0.1456 -0.2285
26681SOL    HW180621   6.325   3.622   5.754 -0.6524 -0.2473 -0.1399
26681SOL    HW280622   6.207   3.716   5.741  0.3829  1.2397  0.8992
26682SOL     OW80623   6.526   5.678   4.956  0.0428 -0.1784  0.4625
26682SOL    HW180624   6.533   5.727   4.874  0.7765  1.1697  1.2891
26682SOL    HW280625   6.438   5.698   4.987  0.6517  1.4654  1.2620
26683SOL     OW80626   2.701   1.813   5.144  0.3764 -0.0257  0.2104
26683SOL    HW180627   2.618   1.851   5.117  0.2733 -0.2009  0.2761
26683SOL    HW280628   2.745   1.883   5.192 -0.7128 -0.6086  2.1590
26684SOL     OW80629   7.118   5.923   9.836  0.0061 -0.1590 -0.4891
26684SOL    HW180630   7.044   5.972   9.872  0.2122  0.0591 -0.3562
26684SOL    HW280631   7.092   5.832   9.841  1.1751 -0.4397  3.0185
26685SOL     OW80632   1.794   4.811   8.823 -0.1723  0.2750  0.0222
26685SOL    HW180633   1.806   4.734   8.767 -2.6071  0.7950 -1.3374
26685SOL    HW280634   1.883   4.843   8.838  0.6909 -1.0149 -1.9333
26686SOL     OW80635   2.658   6.824   6.111  0.2266  0.5535  0.1410
26686SOL    HW180636   2.722   6.871   6.057 -1.1860  1.8466 -0.4983
26686SOL    HW280637   2.701   6.741   6.133  2.5760  1.8529  0.7884
26687SOL     OW80638   3.837   0.327   7.909 -0.2704 -0.0951 -0.0139
26687SOL    HW180639   3.833   0.341   7.814  0.4585  2.1433  0.2400
26687SOL    HW280640   3.770   0.384   7.945  0.7025  0.4963  0.9233
26688SOL     OW80641   5.758   8.431   3.769  0.2794 -0.0053  0.2542
26688SOL    HW180642   5.713   8.400   3.690 -0.4983 -1.0166  1.0629
26688SOL    HW280643   5.849   8.441   3.742  0.2582 -1.4695 -0.4812
26689SOL     OW80644   0.249   8.889   2.851  0.1239  0.3842  0.4668
26689SOL    HW180645   0.256   8.803   2.893  0.8235 -0.7374 -1.8179
26689SOL    HW280646   0.291   8.949   2.913  0.4905 -1.0634  1.6798
26690SOL     OW80647   8.830   4.801   7.022 -0.1666 -0.5500 -0.3363
26690SOL    HW180648   8.832   4.752   6.940 -0.9621 -1.3364  0.0873
26690SOL    HW280649   8.758   4.864   7.011  0.4916  0.1472 -0.6729
26691SOL     OW80650   3.414   7.964   4.560 -0.4691  0.0494  0.0506
26691SOL    HW180651   3.356   7.983   4.634 -4.2770 -3.0631 -1.7878
26691SOL    HW280652   3.436   7.872   4.570  0.3751  0.0223 -1.7643
26692SOL     OW80653   8.799   4.114   9.877 -0.3866 -0.2840  0.1117
26692SOL    HW180654   8.846   4.066   9.809 -2.0971 -1.8090 -0.0813
26692SOL    HW280655   8.754   4.046   9.927 -0.2703  0.9063  1.9305
26693SOL     OW80656   6.675   5.909   6.840  0.3567  0.8204  0.7299
26693SOL    HW180657   6.592   5.946   6.870  0.8506  1.9398  0.7604
26693SOL    HW280658   6.651   5.823   6.805 -0.6116  0.5755  1.9204
26694SOL     OW80659   6.421   6.601   4.071  0.0974 -0.1544 -0.2956
26694SOL    HW180660   6.330   6.606   4.099  0.5024  0.8199  0.8913
26694SOL    HW280661   6.462   6.680   4.105  1.2032 -0.1498 -1.5483
26695SOL     OW80662   6.146   2.388   7.416 -0.1674  0.3215  0.4338
26695SOL    HW180663   6.212   2.455   7.401  0.1160  0.3204  1.5823
26695SOL    HW280664   6.122   2.358   7.328  0.9864  0.6685 -0.0214
26696SOL     OW80665   9.408   6.296   1.213 -0.2862 -0.2838 -0.5705
26696SOL    HW180666   9.445   6.289   1.125  0.1509  0.0315 -0.4169
26696SOL    HW280667   9.329   6.242   1.211 -1.6244  1.5835 -1.8548
26697SOL     OW80668   2.576   5.197   8.933 -0.4830 -0.0026 -0.0171
26697SOL    HW180669   2.634   5.126   8.960 -1.1879 -0.6784 -0.2123
26697SOL    HW280670   2.598   5.213   8.841 -0.9552 -0.6292 -0.2479
26698SOL     OW80671   9.591   6.327   7.389 -0.8783 -0.5525  1.0864
26698SOL    HW180672   9.656   6.314   7.320 -2.9384  2.3726 -1.6951
26698SOL    HW280673   9.582   6.241   7.430  2.0070 -1.9270 -0.8227
26699SOL     OW80674   7.599   8.482   5.383 -0.0358 -0.4211  0.3319
26699SOL    HW180675   7.648   8.427   5.444  0.1755 -0.4525  0.1326
26699SOL    HW280676   7.537   8.530   5.439 -2.2348 -2.9250  0.2511
26700SOL     OW80677   3.433   7.155   7.796 -0.0402  0.1815  0.0503
26700SOL    HW180678   3.424   7.250   7.810  0.8134  0.3565 -0.4898
26700SOL    HW280679   3.459   7.121   7.881  1.2118  0.6760 -0.0978
26701SOL     OW80680   6.831   4.379   9.477  0.6290  0.2109 -0.4635
26701SOL    HW180681   6.851   4.363   9.569 -1.4578 -0.4398 -0.0606
26701SOL    HW280682   6.888   4.451   9.452  1.8971 -0.2069  1.0711
26702SOL     OW80683   9.811   7.790   2.253 -0.5746 -0.1089  0.0475
26702SOL    HW180684   9.820   7.881   2.223  1.4256 -0.1905  0.3136
26702SOL    HW280685   9.716   7.777   2.259 -1.0484  0.9419 -3.0874
26703SOL     OW80686   5.173   2.409   1.415 -0.4741  0.5204  0.2105
26703SOL    HW180687   5.173   2.365   1.330  2.1891  0.1684  0.3228
26703SOL    HW280688   5.136   2.496   1.397 -1.2252 -0.0293 -1.0142
26704SOL     OW80689   5.554   3.600   7.475  0.0558  0.6165  0.0853
26704SOL    HW180690   5.559   3.577   7.382 -2.6555 -2.8444  0.5838
26704SOL    HW280691   5.562   3.695   7.476  1.0683  0.7348 -3.5777
26705SOL     OW80692   3.598   8.868   6.079  0.1954  0.4454  0.1018
26705SOL    HW180693   3.564   8.864   5.989 -0.7293 -1.7338  0.4962
26705SOL    HW280694   3.684   8.825   6.074 -0.3664 -0.7627  0.4346
26706SOL     OW80695   0.330   2.164   1.221  0.1097 -0.1704 -0.0342
26706SOL    HW180696   0.290   2.134   1.303  1.2131  0.6567  0.8400
26706SOL    HW280697   0.420   2.134   1.226  1.0857  2.5432  0.5742
26707SOL     OW80698   0.672   3.302   6.434 -0.4068 -1.0455  0.0755
26707SOL    HW180699   0.616   3.374   6.405 -1.0961 -2.0482 -1.1859
26707SOL    HW280700   0.749   3.345   6.471 -0.8711  0.3417 -0.5042
26708SOL     OW80701   8.971   1.763   9.249 -0.1797 -0.0663 -0.0996
26708SOL    HW180702   8.986   1.805   9.164 -0.5888 -0.1384 -0.2111
26708SOL    HW280703   8.927   1.830   9.301  3.4458  1.3929  1.4076
26709SOL     OW80704   6.682   7.224   0.098 -0.3301 -0.2666 -0.0823
26709SOL    HW180705   6.744   7.174   0.150 -0.6509 -0.0513  0.5146
26709SOL    HW280706   6.643   7.286   0.159 -0.2541  0.4272 -0.7211
26710SOL     OW80707   8.132   1.109   2.930 -0.0470  0.3111  0.0497
26710SOL    HW180708   8.141   1.175   2.861 -0.6849 -2.0207 -2.4536
26710SOL    HW280709   8.037   1.100   2.942  0.0364 -0.0702  0.4212
26711SOL     OW80710   2.772   8.260   2.569 -0.1846  0.5977 -0.4628
26711SOL    HW180711   2.687   8.231   2.603 -1.1892  1.4895 -2.1177
26711SOL    HW280712   2.758   8.350   2.541  1.4044  0.8656 -0.5058
26712SOL     OW80713   0.733   2.739   2.715 -0.4234  0.9316  0.0268
26712SOL    HW180714   0.802   2.740   2.781 -0.8073  1.4481  0.4311
26712SOL    HW280715   0.752   2.813   2.658  0.3146  0.0648 -0.8882
26713SOL     OW80716   0.946   6.326   4.330 -0.2457 -0.1389  0.5647
26713SOL    HW180717   0.878   6.275   4.286 -1.7282  1.4557  0.8990
26713SOL    HW280718   0.904   6.409   4.351  1.2825  0.2410  2.4088
26714SOL     OW80719   3.970   3.946   1.553  0.2230 -0.0253 -0.4084
26714SOL    HW180720   3.999   3.921   1.641  0.6259  0.6063 -0.3547
26714SOL    HW280721   4.042   3.999   1.519 -0.8351  1.5632 -0.2857
26715SOL     OW80722   1.138   1.046   3.081  0.6095 -0.1127  0.0494
26715SOL    HW180723   1.087   0.966   3.069 -2.9355  2.1155 -1.2776
26715SOL    HW280724   1.130   1.067   3.174 -2.0223  0.7187 -0.2797
26716SOL     OW80725   0.727   7.857   0.620 -0.5644 -0.2496  0.1038
26716SOL    HW180726   0.759   7.885   0.705 -0.2232 -0.2744 -0.0135
26716SOL    HW280727   0.776   7.909   0.557 -0.1864 -0.8428 -0.1040
26717SOL     OW80728   0.965   4.217   4.808  0.6884 -0.5049  1.0743
26717SOL    HW180729   1.044   4.235   4.757  0.0135 -2.6633 -0.8910
26717SOL    HW280730   0.985   4.136   4.856  0.1739 -0.2332  1.7790
26718SOL     OW80731   6.229   0.429   6.434 -0.1319 -0.2561 -0.5868
26718SOL    HW180732   6.235   0.392   6.522 -0.4268  0.4290 -0.2681
26718SOL    HW280733   6.270   0.364   6.377  0.9500 -0.2668  0.1870
26719SOL     OW80734   6.824   3.199   3.628  0.3679 -0.3673 -0.5232
26719SOL    HW180735   6.741   3.246   3.620 -0.0023 -0.8758  0.1970
26719SOL    HW280736   6.820   3.158   3.715  0.8533 -1.3803 -0.9651
26720SOL     OW80737   8.678   6.686   3.910  0.0774  0.2979  0.6123
26720SOL    HW180738   8.620   6.716   3.980  0.3936 -1.1452  1.5387
26720SOL    HW280739   8.620   6.646   3.846  0.0123 -1.2801  1.6101
26721SOL     OW80740   3.576   5.287   3.580  0.3966 -0.1345  0.2150
26721SOL    HW180741   3.529   5.272   3.498  0.1279 -4.5314  0.9221
26721SOL    HW280742   3.668   5.273   3.558  0.6108  1.0598  0.2742
26722SOL     OW80743   5.452   6.445   1.365  0.2210 -0.1014  0.2022
26722SOL    HW180744   5.442   6.464   1.272  1.2939 -0.2837  0.0407
26722SOL    HW280745   5.426   6.353   1.374 -0.0656 -0.0306  0.1247
26723SOL     OW80746   9.970   1.470   8.133 -0.0042  1.0927  0.0318
26723SOL    HW180747  10.028   1.403   8.169 -1.4935  0.8558  2.1569
26723SOL    HW280748   9.886   1.425   8.120 -0.1994  1.8209 -1.4300
26724SOL     OW80749   3.136   4.021   5.204 -0.2865  0.2472  0.2684
26724SOL    HW180750   3.185   3.943   5.231  0.6084  1.0543  1.0196
26724SOL    HW280751   3.194   4.068   5.145 -0.3894  0.9001  0.6747
26725SOL     OW80752   3.431   2.346   0.136 -0.1392  0.1409 -0.3930
26725SOL    HW180753   3.382   2.358   0.055 -0.0300  1.6097 -0.2793
26725SOL    HW280754   3.458   2.254   0.135 -1.8698 -0.3968 -1.0205
26726SOL     OW80755   1.911   3.405   7.101  0.4225 -0.6871 -0.1302
26726SOL    HW180756   1.987   3.355   7.072  2.3786  1.2477  1.3318
26726SOL    HW280757   1.871   3.351   7.170  0.5447 -1.6279 -0.7742
26727SOL     OW80758   9.718   3.265   9.922 -0.0159  0.0458  0.0715
26727SOL    HW180759   9.642   3.229   9.969 -0.1396  0.2914  0.0593
26727SOL    HW280760   9.793   3.240   9.977 -0.0474 -0.6953 -0.2086
26728SOL     OW80761   0.994   0.804   3.053  0.8720  0.1544  0.0907
26728SOL    HW180762   0.972   0.713   3.071  3.5898 -0.2231  2.0866
26728SOL    HW280763   1.000   0.809   2.958 -0.1332 -1.5145 -0.1003
26729SOL     OW80764   8.461   9.330   9.057  0.4929  0.3666  0.4491
26729SOL    HW180765   8.393   9.395   9.036  1.7132  1.5821  0.1147
26729SOL    HW280766   8.414   9.261   9.103 -1.2416  0.4453 -1.0874
26730SOL     OW80767   5.212   9.029   1.899 -0.2507  0.0443 -1.0573
26730SOL    HW180768   5.210   8.939   1.867 -0.1800 -0.7818  1.1386
26730SOL    HW280769   5.294   9.065   1.865  2.5384 -2.4877  2.3102
26731SOL     OW80770   4.397   8.879   3.659  0.2501 -0.2373 -0.4911
26731SOL    HW180771   4.324   8.940   3.668 -0.6898 -1.3771 -0.0717
26731SOL    HW280772   4.356   8.794   3.646  1.4934 -1.0335  0.4898
26732SOL     OW80773   7.669   8.449   9.647 -0.2191  0.6672 -0.9616
26732SOL    HW180774   7.714   8.509   9.588  0.0212  1.5293  0.0668
26732SOL    HW280775   7.583   8.436   9.607 -0.4405  2.0613 -0.9756
26733SOL     OW80776   1.033   0.901   4.742  0.5855  0.1608 -0.3791
26733SOL    HW180777   1.092   0.968   4.776 -0.6048  0.8198  0.4897
26733SOL    HW280778   0.998   0.858   4.821 -0.4336  0.1095 -0.8389
26734SOL     OW80779   2.391   8.427   2.814 -0.3956  0.4528  0.5193
26734SOL    HW180780   2.307   8.397   2.781 -0.3860  1.2105 -0.2396
26734SOL    HW280781   2.376   8.516   2.843 -0.5825 -0.4367  3.3963
26735SOL     OW80782   0.592   4.815   4.647 -0.0859  0.0970  0.2189
26735SOL    HW180783   0.561   4.874   4.578  0.0099  0.6938  0.6770
26735SOL    HW280784   0.669   4.860   4.683  0.0951 -0.3975  0.4560
26736SOL     OW80785   0.238   1.088   1.358 -0.1977 -0.0284 -0.3358
26736SOL    HW180786   0.251   1.050   1.270 -0.1906 -0.7042 -0.0487
26736SOL    HW280787   0.168   1.036   1.396 -0.5459  0.5894 -0.1170
26737SOL     OW80788   1.081   6.411   1.770 -1.1109 -0.0084  0.2062
26737SOL    HW180789   1.068   6.460   1.851  0.3232  0.7202  0.0190
26737SOL    HW280790   1.132   6.334   1.796 -1.5005 -0.2898  0.1487
26738SOL     OW80791   1.564   0.206   8.608 -0.1182  0.3068  0.6983
26738SOL    HW180792   1.587   0.113   8.614  0.1977  0.4846  2.6969
26738SOL    HW280793   1.469   0.208   8.618 -0.2540  0.1423 -0.4084
26739SOL     OW80794   1.350   8.868   7.535  0.5818 -0.0587 -0.3916
26739SOL    HW180795   1.422   8.830   7.485  0.1936 -0.8939 -0.3458
26739SOL    HW280796   1.335   8.954   7.495  0.6181 -0.4944 -1.3814
26740SOL     OW80797   1.808   3.102   0.138  0.0535  0.4938  0.9247
26740SOL    HW180798   1.887   3.140   0.176 -0.4225  1.6602  0.8010
26740SOL    HW280799   1.737   3.137   0.191 -0.5156  1.0517 -0.1739
26741SOL     OW80800   5.504   3.347   7.025  0.3833  0.4030 -0.4314
26741SOL    HW180801   5.491   3.319   6.934  0.9296 -0.2567 -0.3139
26741SOL    HW280802   5.416   3.365   7.057  0.1219 -0.0385 -0.8776
26742SOL     OW80803   3.330   1.603   4.773  0.3870  0.5390 -0.2081
26742SOL    HW180804   3.238   1.612   4.748  0.2974  0.8202  0.2170
26742SOL    HW280805   3.369   1.688   4.753  0.5737  0.4003 -0.4469
26743SOL     OW80806   0.912   4.563   2.788 -0.2791 -0.1278 -0.0552
26743SOL    HW180807   0.860   4.642   2.802  1.3295  0.9404  0.2425
26743SOL    HW280808   0.868   4.517   2.717 -0.2234  2.0054 -1.5609
26744SOL     OW80809   4.831   0.591   0.046  0.4093 -0.0791 -0.7039
26744SOL    HW180810   4.786   0.510   0.025  0.3519 -0.4258  0.6641
26744SOL    HW280811   4.847   0.632  -0.039  1.8859 -2.2769 -1.5848
26745SOL     OW80812   4.737   2.390   6.663  0.1907  0.2092 -0.5108
26745SOL    HW180813   4.698   2.477   6.674  0.9091  0.2584  2.4474
26745SOL    HW280814   4.825   2.407   6.630 -0.0090  0.5272 -0.8887
26746SOL     OW80815   7.433   3.845   4.109 -0.1405 -0.0179  0.2122
26746SOL    HW180816   7.357   3.805   4.067 -0.2782  0.4020  0.0546
26746SOL    HW280817   7.463   3.780   4.173  0.9019 -1.2343 -1.4480
26747SOL     OW80818   6.326   9.123   6.792 -0.2647  0.6751 -0.0760
26747SOL    HW180819   6.232   9.111   6.803  0.0390 -0.2511  2.1495
26747SOL    HW280820   6.339   9.218   6.792 -1.4597  1.0350 -4.2547
26748SOL     OW80821   0.310   5.480   8.023 -0.0570 -0.5934 -0.0725
26748SOL    HW180822   0.365   5.424   7.968  1.3762  0.9694 -0.3230
26748SOL    HW280823   0.340   5.463   8.112  0.3207 -0.3123 -0.1412
26749SOL     OW80824   1.316   9.437   4.350  0.5569 -0.7112  0.2567
26749SOL    HW180825   1.279   9.478   4.428  1.8207  0.6314  0.2060
26749SOL    HW280826   1.259   9.363   4.332 -0.0348 -0.7909  2.1902
26750SOL     OW80827   5.672   5.744   7.081 -0.5709  0.1794 -0.6007
26750SOL    HW180828   5.647   5.826   7.125 -1.5307 -0.3971 -0.0335
26750SOL    HW280829   5.704   5.772   6.995 -4.1085  1.0070 -1.8215
26751SOL     OW80830   5.147   5.455   5.424 -0.2609  0.2408 -0.0819
26751SOL    HW180831   5.176   5.368   5.452  0.4944  0.6923  0.5792
26751SOL    HW280832   5.075   5.438   5.364  0.7592 -0.8822 -1.0291
26752SOL     OW80833   6.180   6.249   9.193  0.2140  0.0366  0.0760
26752SOL    HW180834   6.275   6.258   9.197  0.5210 -1.6326 -2.1616
26752SOL    HW280835   6.147   6.332   9.230  2.5276  1.2495 -0.3919
26753SOL     OW80836   6.897   1.963   2.685  0.1785  0.2519  0.0164
26753SOL    HW180837   6.822   1.909   2.712  1.1115 -1.7722 -1.2003
26753SOL    HW280838   6.909   2.025   2.757 -1.7832 -0.2844  0.8777
26754SOL     OW80839   1.091   7.709   4.871  0.6905 -0.3030 -0.5400
26754SOL    HW180840   1.135   7.778   4.920 -1.7950  1.0815 -0.0693
26754SOL    HW280841   1.123   7.718   4.781  2.2723 -0.2205  0.0140
26755SOL     OW80842   9.521   8.862   3.330 -0.1063  0.1598  0.1032
26755SOL    HW180843   9.434   8.825   3.350  0.6995 -1.0960  1.5666
26755SOL    HW280844   9.550   8.815   3.253 -0.1327 -0.5030  0.4875
26756SOL     OW80845   1.447   3.021   2.968 -0.1487  0.0544 -0.2817
26756SOL    HW180846   1.445   3.063   3.053 -0.4873  0.3662 -0.4412
26756SOL    HW280847   1.357   3.028   2.935 -0.1784 -0.6689 -0.3696
26757SOL     OW80848   4.923   9.459   4.166  0.5634 -0.7208 -0.4629
26757SOL    HW180849   4.938   9.430   4.076  0.0208 -2.6818  0.0047
26757SOL    HW280850   4.995   9.518   4.186  1.8120 -1.8234 -1.5438
26758SOL     OW80851   0.401   9.168   8.294 -0.1758  0.0362 -0.1425
26758SOL    HW180852   0.364   9.196   8.210 -1.6382 -2.2484 -0.3431
26758SOL    HW280853   0.380   9.240   8.354  0.7927  1.6563 -1.6518
26759SOL     OW80854   3.204   4.207   4.723  0.0031  0.3861 -0.3656
26759SOL    HW180855   3.199   4.174   4.633  2.5235 -0.6023 -0.2244
26759SOL    HW280856   3.254   4.289   4.715  0.3088  0.2532  0.1519
26760SOL     OW80857   9.463   9.306   3.726  0.1020  0.1639 -0.0764
26760SOL    HW180858   9.489   9.322   3.635  1.3909 -1.8708 -0.1368
26760SOL    HW280859   9.370   9.284   3.721  0.4566 -1.2123 -1.1049
26761SOL     OW80860   4.655   0.228   8.508 -0.2867  0.2316 -0.1753
26761SOL    HW180861   4.652   0.133   8.515 -0.0726  0.0733 -1.7556
26761SOL    HW280862   4.657   0.245   8.414  1.5761  1.7227  0.0607
26762SOL     OW80863   7.940   0.283   6.835  0.0262 -0.2365  0.2097
26762SOL    HW180864   7.862   0.241   6.870 -0.1467 -1.1943 -1.2484
26762SOL    HW280865   8.003   0.212   6.824  1.0724  0.5005  1.2223
26763SOL     OW80866   7.653   8.071   1.879  0.4090 -0.4623 -0.3395
26763SOL    HW180867   7.572   8.120   1.870  0.0480 -0.7261  1.1312
26763SOL    HW280868   7.674   8.042   1.790  0.1673  1.5706 -1.1139
26764SOL     OW80869   2.617   4.823   4.178  0.3897 -0.0827  0.0319
26764SOL    HW180870   2.579   4.784   4.257  0.1591 -0.3315 -0.2014
26764SOL    HW280871   2.669   4.897   4.211  1.3207 -0.9424  0.5251
26765SOL     OW80872   5.365   3.706   9.714  0.1115 -0.1856 -0.2572
26765SOL    HW180873   5.361   3.775   9.781 -0.4383 -1.1425  0.7279
26765SOL    HW280874   5.368   3.624   9.764 -0.9974 -0.9660 -1.4119
26766SOL     OW80875   9.681   1.957   7.351 -0.1680  0.5444  0.1428
26766SOL    HW180876   9.700   2.038   7.397 -0.4273  1.4315 -1.2647
26766SOL    HW280877   9.761   1.936   7.304  0.1770 -0.4866  1.1331
26767SOL     OW80878   6.366   1.851   8.634 -0.3786 -0.3196  0.3836
26767SOL    HW180879   6.354   1.945   8.647 -0.8975 -0.2315 -0.6505
26767SOL    HW280880   6.305   1.829   8.563  1.3777 -1.0014 -0.9613
26768SOL     OW80881   3.991   0.747   4.937 -0.3159  0.4252  0.0124
26768SOL    HW180882   3.932   0.799   4.882  0.0296  1.9076  0.9845
26768SOL    HW280883   4.078   0.765   4.903  0.0173  2.2343  1.6372
26769SOL     OW80884   9.782   8.730   2.232  0.3388 -0.1384  0.2647
26769SOL    HW180885   9.727   8.798   2.192  1.4164 -0.4369 -1.8593
26769SOL    HW280886   9.872   8.760   2.217  0.8155 -0.8910  1.4487
26770SOL     OW80887   0.813   7.107   0.634  0.6966  0.0354  0.0291
26770SOL    HW180888   0.884   7.172   0.628  0.3607  0.4588  0.5724
26770SOL    HW280889   0.858   7.023   0.640  1.1417  0.1092 -1.6424
26771SOL     OW80890   7.648   8.882   2.639  0.1317  0.0207 -0.8487
26771SOL    HW180891   7.597   8.807   2.670  0.1680  1.1716  2.3347
26771SOL    HW280892   7.701   8.847   2.568 -0.9942 -2.5748 -0.5177
26772SOL     OW80893   6.135   2.255   8.767 -0.1822 -0.5664 -0.1832
26772SOL    HW180894   6.199   2.325   8.778 -0.5232  0.4246 -3.5365
26772SOL    HW280895   6.055   2.289   8.807 -0.0466  0.4998 -0.7889
26773SOL     OW80896   6.306   4.043   6.866  0.5073 -0.0543  0.2287
26773SOL    HW180897   6.215   4.059   6.892  0.2787 -0.6265 -0.2012
26773SOL    HW280898   6.321   4.105   6.795  0.2235 -0.4462 -0.1766
26774SOL     OW80899   1.302   8.546   1.704 -0.3924 -0.4087  0.2586
26774SOL    HW180900   1.371   8.599   1.662 -0.5877 -0.4127 -0.0685
26774SOL    HW280901   1.350   8.475   1.747 -0.3109 -1.5130 -1.5603
26775SOL     OW80902   1.652   0.770   3.901 -0.1891  0.7100  0.2413
26775SOL    HW180903   1.716   0.837   3.922 -0.7107  0.4481  3.0963
26775SOL    HW280904   1.620   0.739   3.986 -2.1497 -1.0506 -1.0119
26776SOL     OW80905   4.989   5.461   2.291  0.3264 -0.8845  0.2856
26776SOL    HW180906   5.018   5.530   2.352  2.2122  0.1370 -1.6511
26776SOL    HW280907   4.933   5.507   2.229  0.4556 -1.3762 -0.1938
26777SOL     OW80908   6.433   7.491   6.996 -0.0778  0.1108 -0.5255
26777SOL    HW180909   6.406   7.479   7.087  0.0117 -1.1771 -0.6525
26777SOL    HW280910   6.354   7.519   6.950 -1.2014 -3.1672 -0.8082
26778SOL     OW80911   8.563   7.441   8.747  0.3628  0.4726 -0.0709
26778SOL    HW180912   8.613   7.391   8.811  0.2262  1.4996  0.8624
26778SOL    HW280913   8.538   7.377   8.681 -0.5333 -0.9045  1.5239
26779SOL     OW80914   7.202   6.406   0.195 -0.7258  0.4284  0.0459
26779SOL    HW180915   7.270   6.354   0.238 -0.8322  0.7495  0.6006
26779SOL    HW280916   7.249   6.479   0.155 -0.3462 -0.8998 -2.1047
26780SOL     OW80917   5.687   9.352   2.674  0.0564 -0.4882  0.0243
26780SOL    HW180918   5.652   9.440   2.659 -0.2711 -0.6096  0.0599
26780SOL    HW280919   5.645   9.322   2.754 -0.2129 -0.8685 -0.2538
26781SOL     OW80920   1.516   6.103   5.231  0.4398 -0.0984 -0.0127
26781SOL    HW180921   1.498   6.014   5.262 -0.7033  0.2326  0.3437
26781SOL    HW280922   1.505   6.098   5.136 -2.9731  0.3052  0.2354
26782SOL     OW80923   7.477   9.060   9.611  0.5484  0.7226  0.0440
26782SOL    HW180924   7.477   8.993   9.543 -0.1618  2.5076 -1.8116
26782SOL    HW280925   7.390   9.054   9.651  0.1634  1.0678 -0.7137
26783SOL     OW80926  -0.003   3.749   7.283 -0.4748  0.5837 -0.7828
26783SOL    HW180927  -0.004   3.840   7.254  1.2735  0.9387  0.1469
26783SOL    HW280928   0.052   3.704   7.218 -2.1267 -0.0670 -1.8055
26784SOL     OW80929   6.735   2.682   6.573  0.2780  0.2380  0.4407
26784SOL    HW180930   6.745   2.654   6.482  0.5278  1.1125  0.1888
26784SOL    HW280931   6.661   2.743   6.571 -0.3376 -0.4826  0.9955
26785SOL     OW80932   1.067   2.781   1.190 -0.3356 -0.4599 -0.0231
26785SOL    HW180933   1.038   2.820   1.107  0.3188  0.4110  0.1488
26785SOL    HW280934   1.048   2.688   1.180 -0.3633 -0.3511 -1.1068
26786SOL     OW80935   6.811   6.593   9.908  0.5160 -0.3155 -0.4644
26786SOL    HW180936   6.898   6.615   9.942  0.7569 -0.4710 -0.9731
26786SOL    HW280937   6.781   6.520   9.962 -0.0195  0.8099  0.8290
26787SOL     OW80938   6.219  10.004   6.041 -0.2265  0.2957  0.2069
26787SOL    HW180939   6.145  10.014   5.981  0.2738  0.9851 -0.3204
26787SOL    HW280940   6.239   9.910   6.040  0.1272  0.3677 -1.1550
26788SOL     OW80941   1.299   7.051   0.285 -0.2679 -0.9415  0.7531
26788SOL    HW180942   1.356   7.102   0.226 -1.2708  0.3229  0.8331
26788SOL    HW280943   1.210   7.071   0.255 -0.7577 -4.7526 -0.9236
26789SOL     OW80944   3.875   1.177   0.764  0.1475  0.3646 -0.3424
26789SOL    HW180945   3.851   1.144   0.851  2.0048 -0.6427 -0.1507
26789SOL    HW280946   3.798   1.225   0.734 -1.6666 -1.8017  0.5702
26790SOL     OW80947   9.106   3.557   3.894 -0.2394 -0.0714  0.2325
26790SOL    HW180948   9.133   3.472   3.860  0.3621  0.7990 -1.6564
26790SOL    HW280949   9.040   3.537   3.961 -0.1377 -2.0001 -0.1814
26791SOL     OW80950   6.964   9.218   6.166 -0.1649  0.4417  0.4143
26791SOL    HW180951   7.040   9.161   6.171 -0.4667 -0.2498 -1.7907
26791SOL    HW280952   6.956   9.239   6.074 -0.8706  3.0194  0.9930
26792SOL     OW80953   1.160   9.277   4.747  0.1755 -0.1155 -0.2423
26792SOL    HW180954   1.066   9.281   4.763  0.1065 -0.7445 -0.4670
26792SOL    HW280955   1.186   9.190   4.777  0.7934  0.2732  0.3641
26793SOL     OW80956   5.772   0.838   5.258  0.0070  0.0383  0.2121
26793SOL    HW180957   5.866   0.844   5.241 -0.0585 -1.3901 -0.8880
26793SOL    HW280958   5.755   0.744   5.262 -1.6621  0.1996 -1.5061
26794SOL     OW80959   3.027   7.347   6.903 -0.5226  0.9130 -1.0243
26794SOL    HW180960   2.935   7.346   6.928 -0.0846  3.6930  1.2479
26794SOL    HW280961   3.057   7.436   6.924  3.0805 -0.3546  0.0100
26795SOL     OW80962   8.310   9.196   5.149 -0.4114  0.7272  0.8933
26795SOL    HW180963   8.351   9.187   5.063 -0.7943  1.4785  0.6126
26795SOL    HW280964   8.235   9.136   5.146  0.5029 -0.4551  1.3154
26796SOL     OW80965   8.852   7.449   9.308  0.3284  0.1212  0.2718
26796SOL    HW180966   8.941   7.473   9.334 -0.2265  1.2816  1.1635
26796SOL    HW280967   8.863   7.411   9.221  1.6002  1.1064 -0.0371
26797SOL     OW80968   6.323   3.237   3.547 -0.1093  0.1339  0.0839
26797SOL    HW180969   6.313   3.322   3.590  2.7024  0.2532  0.7089
26797SOL    HW280970   6.274   3.245   3.466 -0.5444  2.0848  0.4824
26798SOL     OW80971   7.438   8.947   2.806  0.2844 -0.2579 -0.1613
26798SOL    HW180972   7.504   8.972   2.741  0.2078  0.8653  0.1632
26798SOL    HW280973   7.487   8.898   2.872  0.5230 -0.6451 -0.6169
26799SOL     OW80974   3.711   3.031   6.454  0.0523 -0.0739 -0.7384
26799SOL    HW180975   3.699   2.944   6.416 -2.2021 -0.4195  0.5560
26799SOL    HW280976   3.798   3.028   6.494  0.6360 -1.1850 -2.0230
26800SOL     OW80977   0.163   4.349   2.634 -0.0502 -0.6799 -0.0465
26800SOL    HW180978   0.070   4.368   2.650 -0.5541 -2.4078 -0.6979
26800SOL    HW280979   0.209   4.428   2.662 -1.6753  0.0219  0.7632
26801SOL     OW80980   0.457   0.551   4.274  0.3095  0.3597  0.0961
26801SOL    HW180981   0.435   0.548   4.181 -1.6630  0.4113  0.5236
26801SOL    HW280982   0.513   0.628   4.283 -0.0066  0.7275 -0.9460
26802SOL     OW80983   3.397   7.324   0.146 -0.4161 -0.0868 -0.5627
26802SOL    HW180984   3.448   7.263   0.092  0.8578  0.3151  0.1612
26802SOL    HW280985   3.453   7.401   0.156 -1.4071  0.6120 -0.2280
26803SOL     OW80986   9.506   7.294   5.005 -0.0284  0.2758 -0.6725
26803SOL    HW180987   9.592   7.334   5.019  0.9187 -1.6350 -0.7766
26803SOL    HW280988   9.524   7.202   4.988 -2.1016 -0.1576 -0.8347
26804SOL     OW80989   3.987   1.824   4.849 -0.0112  0.0666 -0.1598
26804SOL    HW180990   4.078   1.854   4.843  0.4355 -1.0676  0.6393
26804SOL    HW280991   3.941   1.875   4.782  0.9895  1.4296  0.1538
26805SOL     OW80992   6.683   2.886   6.322 -0.1274 -0.1902  0.7153
26805SOL    HW180993   6.612   2.905   6.383 -1.1894  0.1358 -0.5690
26805SOL    HW280994   6.665   2.797   6.292  0.2320 -0.2475  0.6648
26806SOL     OW80995   7.800   7.596   7.255 -0.6579  0.5363 -0.2493
26806SOL    HW180996   7.718   7.638   7.283 -1.3356 -0.3356 -0.8511
26806SOL    HW280997   7.773   7.535   7.186  0.4932  0.1586 -0.3893
26807SOL     OW80998   5.206   1.159   7.967 -0.4156  0.6194 -0.2391
26807SOL    HW180999   5.279   1.110   8.005 -1.3489  1.2951  2.6495
26807SOL    HW281000   5.248   1.225   7.911  1.0218 -0.6035 -0.6856
26808SOL     OW81001   0.774   4.861   1.721 -0.4630  0.7206  0.3709
26808SOL    HW181002   0.755   4.937   1.666 -0.9147 -0.9465 -1.9379
26808SOL    HW281003   0.739   4.884   1.807 -0.2113  3.2392 -0.1178
26809SOL     OW81004   2.886   5.326   7.095 -0.2801 -0.3067  0.3861
26809SOL    HW181005   2.923   5.250   7.051 -0.3080 -0.5179  0.7250
26809SOL    HW281006   2.910   5.400   7.039  2.2981 -0.1800  1.5373
26810SOL     OW81007   3.072   7.888   0.330 -0.1291 -0.0701  0.0587
26810SOL    HW181008   2.992   7.869   0.377  0.3000  0.9404  1.2439
26810SOL    HW281009   3.118   7.951   0.385  0.6637  0.7124 -1.4446
26811SOL     OW81010   2.788   0.044   8.557 -0.2064  0.6354 -0.0822
26811SOL    HW181011   2.872   0.002   8.534  0.7027  2.4242 -0.1803
26811SOL    HW281012   2.804   0.138   8.547 -1.8055  1.1146  1.3202
26812SOL     OW81013   9.824   9.722   4.603  0.7360 -0.1633 -0.3023
26812SOL    HW181014   9.889   9.788   4.579 -1.0601  2.1913  0.9627
26812SOL    HW281015   9.762   9.768   4.659 -1.1529 -2.7180 -0.1174
26813SOL     OW81016   9.591   7.692   1.149 -0.1553  0.3737 -0.2689
26813SOL    HW181017   9.501   7.664   1.163 -0.7580  0.9913 -2.4506
26813SOL    HW281018   9.597   7.777   1.193 -0.6138  0.2850 -0.0338
26814SOL     OW81019   8.314   8.290   4.817  0.0795 -0.4733 -0.0433
26814SOL    HW181020   8.305   8.268   4.909 -0.6731 -1.4311 -0.3338
26814SOL    HW281021   8.236   8.255   4.776 -0.6225  1.7504 -0.7386
26815SOL     OW81022   5.497   5.631   9.356 -0.3624 -0.0494 -0.0436
26815SOL    HW181023   5.417   5.659   9.401  0.4447  2.5602 -0.0799
26815SOL    HW281024   5.568   5.651   9.417  0.5864  1.8082 -1.6243
26816SOL     OW81025   0.895   2.543   4.685 -0.0489  0.2604  0.3976
26816SOL    HW181026   0.845   2.625   4.684  0.1605  0.3859 -0.3933
26816SOL    HW281027   0.901   2.517   4.593  2.6398  1.0423  0.2528
26817SOL     OW81028   6.091   3.318   1.072 -0.7390  0.1671  0.1930
26817SOL    HW181029   6.185   3.309   1.058 -0.9615 -1.6617 -0.4092
26817SOL    HW281030   6.083   3.344   1.164  0.3622  1.4197 -0.0372
26818SOL     OW81031   8.506   6.398   0.735 -0.2083  0.6828  0.2750
26818SOL    HW181032   8.572   6.462   0.758 -0.6961  1.7808 -1.2209
26818SOL    HW281033   8.450   6.442   0.671 -2.9707  0.1417  2.1107
26819SOL     OW81034   5.998   0.835   8.356 -0.2479  0.0965  0.1129
26819SOL    HW181035   6.048   0.891   8.415 -1.8702 -0.5968  2.2825
26819SOL    HW281036   5.971   0.893   8.285  0.6671  1.2985  0.7148
26820SOL     OW81037   9.007   4.945   7.778  0.1060 -0.0656 -0.7303
26820SOL    HW181038   9.018   5.015   7.842 -0.1404 -0.7579  0.0795
26820SOL    HW281039   8.928   4.898   7.806  1.6187 -2.1748  0.1850
26821SOL     OW81040   1.906   4.232   9.504  0.3292 -0.4674 -0.2945
26821SOL    HW181041   1.946   4.258   9.421 -1.2164  1.2431 -0.5635
26821SOL    HW281042   1.856   4.308   9.532 -0.6966 -1.6435  1.2910
26822SOL     OW81043   8.022   1.869   2.835  0.6010 -0.4059 -0.0177
26822SOL    HW181044   7.940   1.864   2.884  0.9260  1.0251  0.7354
26822SOL    HW281045   8.016   1.952   2.786  0.8189 -1.1979 -1.4473
26823SOL     OW81046   4.575   8.262   4.356 -0.6355  0.1983 -0.0731
26823SOL    HW181047   4.601   8.198   4.422  0.9857 -0.1820 -1.0342
26823SOL    HW281048   4.641   8.254   4.287  0.7846  4.1627  0.5466
26824SOL     OW81049   3.989   2.540   9.822  0.3381 -0.3936 -0.0478
26824SOL    HW181050   4.030   2.462   9.859  1.3557  0.5171  0.8173
26824SOL    HW281051   3.906   2.549   9.869 -0.1854 -1.4067 -0.7475
26825SOL     OW81052   4.465   2.778   7.174 -0.2204 -0.1552 -0.3142
26825SOL    HW181053   4.397   2.755   7.111  0.1871 -0.7755 -0.5364
26825SOL    HW281054   4.420   2.831   7.240 -0.6908  0.3337 -1.0218
26826SOL     OW81055   7.959   1.407   3.816  0.2532 -0.1551 -0.3177
26826SOL    HW181056   7.904   1.419   3.894  2.1751  0.5434  1.0181
26826SOL    HW281057   7.930   1.324   3.778 -1.0451 -0.2811  0.8738
26827SOL     OW81058   6.460   0.966   1.871 -0.2516  0.2058  1.0287
26827SOL    HW181059   6.392   0.927   1.816 -0.5815  0.0074  1.5691
26827SOL    HW281060   6.416   0.982   1.955  0.4540 -0.2462  1.4947
26828SOL     OW81061   3.340   6.605   9.106  0.6484 -0.3628  0.2633
26828SOL    HW181062   3.285   6.652   9.168  0.0457 -0.0375 -0.5130
26828SOL    HW281063   3.409   6.667   9.083 -0.6917  0.5462 -1.5133
26829SOL     OW81064   9.310   4.001   9.408 -0.3838 -0.2921  0.3350
26829SOL    HW181065   9.290   3.989   9.501 -1.2313 -0.1132  0.1902
26829SOL    HW281066   9.354   4.086   9.403  3.0667 -1.8951  1.0156
26830SOL     OW81067   5.815   7.708   4.361 -0.1529 -0.0027  0.6789
26830SOL    HW181068   5.864   7.715   4.279  0.3821 -2.4903  0.6896
26830SOL    HW281069   5.878   7.735   4.428  0.0622  0.1316  0.4269
26831SOL     OW81070   2.742   2.481   9.776 -0.1291 -0.8261  0.1572
26831SOL    HW181071   2.733   2.416   9.706  0.8861 -0.2196 -0.5541
26831SOL    HW281072   2.755   2.430   9.855  0.3952 -1.4954 -0.3569
26832SOL     OW81073   3.207   7.027   5.635 -1.5555  0.0295 -0.1196
26832SOL    HW181074   3.273   7.010   5.703 -0.9537 -0.4221 -0.8092
26832SOL    HW281075   3.241   6.983   5.557 -2.7091 -0.2534 -0.4688
26833SOL     OW81076   5.348   9.195   5.716  0.0084 -0.2234  0.3962
26833SOL    HW181077   5.305   9.159   5.639  0.3848  0.2604 -0.0481
26833SOL    HW281078   5.361   9.287   5.695  2.4256 -0.5952 -0.0519
26834SOL     OW81079   1.752   6.022   1.841 -0.2738 -0.2150 -0.3420
26834SOL    HW181080   1.713   6.050   1.758 -1.5131  0.3250  0.3962
26834SOL    HW281081   1.810   5.950   1.817  0.0788  0.5140 -1.7909
26835SOL     OW81082   1.092   7.214   0.244 -0.6193  0.1597  0.1294
26835SOL    HW181083   1.113   7.301   0.279 -0.7204 -0.7789  2.7353
26835SOL    HW281084   1.008   7.192   0.284 -1.5271 -0.4089 -1.9821
26836SOL     OW81085   7.509   8.408   4.864  0.1524  0.1874  0.6126
26836SOL    HW181086   7.427   8.376   4.902  0.1449 -1.0782 -0.3954
26836SOL    HW281087   7.493   8.411   4.770  1.1054  0.3955  0.4393
26837SOL     OW81088   2.267   4.628   3.308  0.0116 -0.0839 -0.0089
26837SOL    HW181089   2.270   4.536   3.282  1.6222 -0.1203  0.2162
26837SOL    HW281090   2.216   4.627   3.389 -0.7260 -0.6460 -0.4635
26838SOL     OW81091   0.095   8.697   3.830 -0.0996  0.7165  0.3686
26838SOL    HW181092   0.116   8.720   3.921  1.2248  2.0075 -0.2215
26838SOL    HW281093   0.104   8.779   3.782  0.3791 -0.1775 -1.1289
26839SOL     OW81094   3.918   8.879   3.262 -1.1686  0.2053 -0.5761
26839SOL    HW181095   3.978   8.869   3.189 -1.7191 -2.5088 -0.7880
26839SOL    HW281096   3.835   8.845   3.230 -0.9949 -2.9008  1.6839
26840SOL     OW81097   8.752   5.860   0.943 -0.2141 -0.1793 -0.0226
26840SOL    HW181098   8.825   5.806   0.974 -0.4141  0.0609  0.9036
26840SOL    HW281099   8.737   5.923   1.013 -0.4228  0.6667 -0.8053
26841SOL     OW81100   7.864   2.147   5.602 -0.0175  0.3513 -0.5715
26841SOL    HW181101   7.953   2.118   5.621  0.3269 -0.0991 -2.6293
26841SOL    HW281102   7.819   2.070   5.568 -0.5303  1.0724 -1.5928
26842SOL     OW81103   8.699   8.628   3.519 -0.5734 -0.2095 -0.0188
26842SOL    HW181104   8.740   8.549   3.484  2.7966  1.5408 -0.4886
26842SOL    HW281105   8.705   8.692   3.448  1.5217  1.8693  1.8183
26843SOL     OW81106   1.845   6.190   9.091  0.3472  0.8691 -0.9522
26843SOL    HW181107   1.753   6.203   9.070  0.4703  1.8388 -0.9329
26843SOL    HW281108   1.890   6.188   9.007 -0.1500 -4.2979 -1.4092
26844SOL     OW81109   1.657   6.668   0.607 -0.0727 -0.3626 -0.5041
26844SOL    HW181110   1.743   6.655   0.649 -0.0539 -2.8935 -1.1288
26844SOL    HW281111   1.643   6.587   0.558 -2.2269  0.5744 -1.5357
26845SOL     OW81112   4.996   5.778   2.360  0.3054 -0.1988  0.1318
26845SOL    HW181113   5.055   5.838   2.314 -0.5487  0.7388  0.2322
26845SOL    HW281114   4.911   5.791   2.319  0.3438 -2.3361 -0.7569
26846SOL     OW81115   6.987   6.846   3.551  0.0457  0.0176 -0.4755
26846SOL    HW181116   6.986   6.856   3.646 -0.4978 -0.5957 -0.4096
26846SOL    HW281117   7.069   6.887   3.524 -1.2637  3.1450 -0.0984
26847SOL     OW81118   4.607   8.482   1.544  0.0742 -0.1174 -0.2869
26847SOL    HW181119   4.640   8.509   1.629 -1.2882 -0.9737  0.5457
26847SOL    HW281120   4.658   8.533   1.481  0.2535  1.4453  1.0697
26848SOL     OW81121   0.373   5.532   6.459  0.6518  0.1954  0.0416
26848SOL    HW181122   0.388   5.448   6.501  0.4358 -0.4966 -1.2076
26848SOL    HW281123   0.449   5.545   6.402 -0.0838  0.0269 -1.0212
26849SOL     OW81124   0.363   8.711   4.690 -0.0119  0.5096 -0.4209
26849SOL    HW181125   0.417   8.632   4.697  0.4133  0.6698 -1.7161
26849SOL    HW281126   0.422   8.783   4.709  0.1899  0.6677 -1.5914
26850SOL     OW81127   7.094   5.472   7.772 -0.0477 -0.2104  0.3000
26850SOL    HW181128   7.009   5.428   7.779 -1.1299  1.6170 -0.6494
26850SOL    HW281129   7.086   5.549   7.829  1.1235 -0.2126  0.4875
26851SOL     OW81130   9.403   3.225   4.600 -0.4365 -0.7409  0.2297
26851SOL    HW181131   9.379   3.195   4.513  0.2266 -0.9667  0.1172
26851SOL    HW281132   9.496   3.202   4.609 -0.5523 -0.9278  1.0770
26852SOL     OW81133   1.363   2.162   5.670 -0.3027  0.5343 -0.2336
26852SOL    HW181134   1.400   2.250   5.667 -1.1273  0.9461  1.1113
26852SOL    HW281135   1.330   2.146   5.581 -0.4383  1.7007 -0.4003
26853SOL     OW81136   3.395   8.386   1.598  0.4542  0.0956 -0.3935
26853SOL    HW181137   3.330   8.451   1.571  1.7607  0.6159 -2.4623
26853SOL    HW281138   3.460   8.387   1.529  0.8259 -3.0555 -0.2101
26854SOL     OW81139   7.685   4.247   7.391 -0.0276  0.1245 -0.0492
26854SOL    HW181140   7.670   4.299   7.470 -0.4325  0.8518 -0.5846
26854SOL    HW281141   7.766   4.199   7.409 -0.0524  0.3608  0.7579
26855SOL     OW81142   1.608   4.556   2.832 -0.1139  0.4757 -0.3804
26855SOL    HW181143   1.666   4.481   2.823 -0.9663 -0.4405  1.3906
26855SOL    HW281144   1.619   4.585   2.923 -2.4242  0.2268  0.0447
26856SOL     OW81145   4.151   5.354   7.898 -0.4472 -0.1571  0.3644
26856SOL    HW181146   4.172   5.294   7.826  0.9882  1.0228 -0.2563
26856SOL    HW281147   4.194   5.316   7.974 -0.5060 -0.5006  0.2297
26857SOL     OW81148   4.081   0.096   4.875 -0.3602 -0.3459  0.3988
26857SOL    HW181149   4.094   0.187   4.898 -0.3824 -0.2546  0.0520
26857SOL    HW281150   4.001   0.071   4.921  0.4849 -0.6431  1.7705
26858SOL     OW81151   0.916   9.518   2.633  0.3047 -0.5722 -0.2461
26858SOL    HW181152   0.930   9.448   2.569 -0.1373  0.3962 -1.4407
26858SOL    HW281153   1.001   9.561   2.640  0.9222 -1.9577  1.4451
26859SOL     OW81154   7.521   8.338   1.077 -0.4118  0.0881 -0.3391
26859SOL    HW181155   7.468   8.406   1.118 -1.6132 -1.5804  0.9935
26859SOL    HW281156   7.597   8.329   1.134 -1.1996 -0.9802  0.5819
26860SOL     OW81157   0.827   6.235   4.944 -0.1567 -0.3024 -0.2141
26860SOL    HW181158   0.785   6.159   4.983  1.0779 -2.2069 -2.3691
26860SOL    HW281159   0.901   6.254   5.003 -1.0138 -0.0976  0.8428
26861SOL     OW81160   5.699   6.029   7.318  0.5283 -0.6931  0.1336
26861SOL    HW181161   5.794   6.032   7.311  1.0013 -1.6697  3.9600
26861SOL    HW281162   5.674   6.118   7.339  0.6257 -0.5487 -0.3407
26862SOL     OW81163   0.196   6.968   3.951  0.2504  0.0490  0.0649
26862SOL    HW181164   0.195   7.053   3.995  0.6302  0.2030 -0.2200
26862SOL    HW281165   0.104   6.949   3.933 -0.0207 -0.5002  1.8539
26863SOL     OW81166   9.369   6.603   4.452 -0.6287 -0.5612  0.0945
26863SOL    HW181167   9.415   6.540   4.397 -0.8369 -1.9019  1.4146
26863SOL    HW281168   9.426   6.614   4.528  0.1044  1.9702 -0.7192
26864SOL     OW81169   2.871   1.761   3.507 -0.1896 -0.0394  0.3280
26864SOL    HW181170   2.837   1.701   3.573  1.2380 -0.6348  0.5506
26864SOL    HW281171   2.806   1.832   3.504 -1.4706 -1.1522  0.6555
26865SOL     OW81172   4.744   4.589   5.623 -0.1322 -0.3783 -0.3027
26865SOL    HW181173   4.720   4.643   5.699 -0.2886 -2.1398  0.9673
26865SOL    HW281174   4.819   4.635   5.584 -0.6292  1.0558  0.3554
26866SOL     OW81175   9.795   1.828   2.383  0.3845 -0.3095  0.9049
26866SOL    HW181176   9.880   1.871   2.373  0.7714 -1.1860  0.3408
26866SOL    HW281177   9.732   1.900   2.384  1.1165  0.3369  1.1257
26867SOL     OW81178   0.897   0.770   1.371  0.0074 -0.1161 -0.0025
26867SOL    HW181179   0.841   0.806   1.439  0.7702  0.3117  0.4004
26867SOL    HW281180   0.955   0.841   1.346 -0.6194 -0.0788 -1.5168
26868SOL     OW81181   8.007   9.005   3.898  0.3362 -0.2733  0.2159
26868SOL    HW181182   8.003   8.909   3.903 -0.7505 -0.2898 -0.6420
26868SOL    HW281183   7.942   9.035   3.962 -0.4243 -0.1555 -0.5894
26869SOL     OW81184   1.681   1.209   9.954  0.1147  0.2895  0.0437
26869SOL    HW181185   1.754   1.264   9.926  0.3323  0.4923  0.9873
26869SOL    HW281186   1.702   1.185  10.044 -0.4518 -0.5502 -0.0352
26870SOL     OW81187   3.874   9.683   4.700 -0.5722 -0.3721 -0.4716
26870SOL    HW181188   3.836   9.667   4.614 -0.9736 -0.7312 -0.2323
26870SOL    HW281189   3.856   9.603   4.750 -0.2266 -0.2219 -0.0942
26871SOL     OW81190   5.717   6.554   4.242  0.4419  0.2678 -0.0437
26871SOL    HW181191   5.769   6.477   4.265  0.7333  0.2880 -0.6230
26871SOL    HW281192   5.653   6.561   4.313 -0.4597 -1.2978 -0.6455
26872SOL     OW81193   1.710   5.196   7.832 -0.3322 -0.7386 -0.1132
26872SOL    HW181194   1.622   5.158   7.842 -0.7548  0.6011  1.9286
26872SOL    HW281195   1.698   5.267   7.770 -0.7779 -0.3446  0.4160
26873SOL     OW81196   2.698   5.685   4.432 -0.1755 -0.1693  0.0912
26873SOL    HW181197   2.661   5.637   4.506 -1.8164  1.5123  0.4312
26873SOL    HW281198   2.704   5.775   4.462  0.6002  0.2805 -1.3229
26874SOL     OW81199   2.138   2.356   5.569  0.6413  0.0671  0.5613
26874SOL    HW181200   2.167   2.266   5.552  1.9011  0.8497 -1.7714
26874SOL    HW281201   2.042   2.350   5.572  0.7219 -1.4892  1.6547
26875SOL     OW81202   3.205   8.408   7.345 -0.2560  0.3244 -0.0854
26875SOL    HW181203   3.146   8.473   7.384 -0.4259  0.1688 -0.0819
26875SOL    HW281204   3.151   8.329   7.336  0.5734 -0.5564  2.0733
26876SOL     OW81205   2.132   6.569   0.418 -0.0453 -0.4878  0.5250
26876SOL    HW181206   2.064   6.545   0.480 -0.9396 -1.0137 -0.6109
26876SOL    HW281207   2.155   6.659   0.440 -2.9129  0.6305 -0.5667
26877SOL     OW81208   9.951   7.129   7.584  0.0299 -0.0831  0.1302
26877SOL    HW181209   9.873   7.103   7.634  0.2521  2.4273  1.9385
26877SOL    HW281210   9.917   7.148   7.496 -1.0120 -0.9746  0.3118
26878SOL     OW81211   3.140   4.117   7.463  0.2963 -0.9897 -0.1305
26878SOL    HW181212   3.200   4.056   7.507  0.9913 -0.5498 -0.4697
26878SOL    HW281213   3.062   4.117   7.519  0.0925 -2.5541 -0.3653
26879SOL     OW81214   0.739   3.997   6.472  0.4166  0.1518  0.1287
26879SOL    HW181215   0.786   3.957   6.399  0.3482 -0.0394  0.1891
26879SOL    HW281216   0.802   4.057   6.512  0.5004  0.1485  0.0013
26880SOL     OW81217   6.792   1.292   3.636 -0.1547  0.4787  0.0988
26880SOL    HW181218   6.718   1.330   3.588  0.2839  0.2739 -0.7492
26880SOL    HW281219   6.857   1.362   3.639  0.2057  0.1726 -0.4740
26881SOL     OW81220   2.397   6.019   2.912  0.5374 -0.0382  0.0507
26881SOL    HW181221   2.487   6.044   2.892  0.6551 -0.7253 -0.2844
26881SOL    HW281222   2.386   5.933   2.873 -0.6959  0.6029 -1.1158
26882SOL     OW81223   4.778   8.966   8.837 -0.1264  0.2169 -0.0963
26882SOL    HW181224   4.727   9.045   8.854 -1.7059 -0.2080 -2.3436
26882SOL    HW281225   4.721   8.913   8.780  0.2012 -3.2677  2.4992
26883SOL     OW81226   9.406   4.685   1.050 -0.0644  0.3804 -0.7671
26883SOL    HW181227   9.330   4.743   1.041 -0.2253  0.7012  1.9794
26883SOL    HW281228   9.473   4.740   1.091  0.5951 -0.7260 -0.3432
26884SOL     OW81229   9.587   1.102   9.205  0.7024 -0.1980 -0.4760
26884SOL    HW181230   9.651   1.041   9.241  2.0440  1.0145 -0.7119
26884SOL    HW281231   9.553   1.149   9.282 -0.0826 -0.9616 -0.3319
26885SOL     OW81232   3.137   8.769   9.400  0.4687 -0.3291 -0.7811
26885SOL    HW181233   3.051   8.758   9.440 -0.0916 -1.4152 -2.2028
26885SOL    HW281234   3.119   8.777   9.307  1.8021  1.1930 -0.9542
26886SOL     OW81235   8.406   5.151   3.721 -0.1054 -0.1875 -0.4426
26886SOL    HW181236   8.355   5.076   3.750  0.9118 -0.9573 -0.5922
26886SOL    HW281237   8.496   5.131   3.748  0.1750  1.0002 -0.4432
26887SOL     OW81238   4.030   4.600   4.901 -0.1015  0.3836 -0.1413
26887SOL    HW181239   4.030   4.517   4.949  0.0997 -0.7278 -1.9618
26887SOL    HW281240   4.118   4.634   4.912  0.0761 -0.0819 -0.0966
26888SOL     OW81241   2.440   6.619   4.494 -0.0437  0.2925  0.4031
26888SOL    HW181242   2.361   6.566   4.479 -0.1543  0.1877  1.2796
26888SOL    HW281243   2.407   6.706   4.514  0.1120  0.5242 -0.3415
26889SOL     OW81244   4.261   3.816   8.167  0.0542 -0.4525 -0.1739
26889SOL    HW181245   4.170   3.798   8.144  0.2535 -1.2046 -0.4078
26889SOL    HW281246   4.263   3.812   8.263 -0.3304  0.4616 -0.1178
26890SOL     OW81247   2.211   0.419   7.258  0.9298 -0.7642 -0.0263
26890SOL    HW181248   2.244   0.338   7.220 -3.1673 -2.5201 -0.3061
26890SOL    HW281249   2.176   0.468   7.184  0.0655 -0.4982  0.5447
26891SOL     OW81250   9.935   3.342   3.470 -0.0016  0.4351  0.0884
26891SOL    HW181251   9.905   3.365   3.382 -0.1077 -0.2364 -0.0598
26891SOL    HW281252  10.024   3.308   3.457  0.0084  0.3972  0.2483
26892SOL     OW81253   2.724   5.648   9.184 -0.1681 -0.0539 -0.1423
26892SOL    HW181254   2.726   5.557   9.213  0.1753  0.1148  0.3712
26892SOL    HW281255   2.642   5.683   9.220  0.4901  0.2933  1.0918
26893SOL     OW81256   8.096   1.932   3.441 -0.7676  0.0147 -0.2497
26893SOL    HW181257   8.026   1.996   3.430 -0.2484  0.7484  0.6005
26893SOL    HW281258   8.158   1.951   3.371 -0.2345  0.9742  0.4575
26894SOL     OW81259   1.892   3.117   2.840 -0.1244 -0.1434  0.2632
26894SOL    HW181260   1.845   3.165   2.909  2.5050  0.2995  1.8552
26894SOL    HW281261   1.981   3.149   2.844  1.3142 -3.6616 -0.0157
26895SOL     OW81262   8.641   3.534   4.397 -0.7085 -0.1741  0.1755
26895SOL    HW181263   8.608   3.455   4.439  3.4691 -1.5967  1.3344
26895SOL    HW281264   8.590   3.543   4.317 -2.0711 -3.4394  0.5378
26896SOL     OW81265   6.145   5.466   1.005  0.6846 -0.1510  0.1007
26896SOL    HW181266   6.234   5.487   1.033  0.7166 -0.9277  0.5926
26896SOL    HW281267   6.122   5.387   1.054 -0.6596  0.6238  0.7893
26897SOL     OW81268   0.402   8.742   6.510 -0.3224  0.1159 -0.3423
26897SOL    HW181269   0.407   8.655   6.550  0.1215  0.2284 -0.1488
26897SOL    HW281270   0.320   8.779   6.544 -1.5174 -0.9517 -1.9199
26898SOL     OW81271   5.153   7.700   0.374  0.1077  0.2660 -0.0133
26898SOL    HW181272   5.099   7.657   0.441 -1.8078  2.6105  0.1205
26898SOL    HW281273   5.092   7.760   0.330  2.3146  2.0795 -0.7948
26899SOL     OW81274   0.415   3.492   6.385 -0.0925  0.5179 -0.2909
26899SOL    HW181275   0.362   3.426   6.340 -0.4288  0.1065  0.6679
26899SOL    HW281276   0.355   3.565   6.397 -0.5451 -0.0339  0.9954
26900SOL     OW81277   7.360   0.269   5.402  0.4293  0.0240  0.1997
26900SOL    HW181278   7.369   0.192   5.346 -0.6766 -2.0210  2.6040
26900SOL    HW281279   7.290   0.320   5.361  0.6637 -0.6074 -1.0438
26901SOL     OW81280   7.152   9.883   8.024 -0.0626  0.1295  0.2140
26901SOL    HW181281   7.082   9.900   7.962 -0.7932 -0.0152  0.9839
26901SOL    HW281282   7.180   9.969   8.054 -0.4636  0.1571  0.5089
26902SOL     OW81283   1.135   9.881   1.854 -0.0211  0.1799  0.2001
26902SOL    HW181284   1.104   9.953   1.798  0.7034  1.5982  1.5362
26902SOL    HW281285   1.194   9.924   1.917  1.2236 -1.7470  0.4305
26903SOL     OW81286   5.205   8.248   1.258  0.6472 -0.5674 -0.4570
26903SOL    HW181287   5.182   8.203   1.177  1.5815  0.7636 -1.4955
26903SOL    HW281288   5.133   8.310   1.273  0.1463 -1.2719  0.1128
26904SOL     OW81289   9.267   4.633   1.954 -0.1451  0.2605 -0.2948
26904SOL    HW181290   9.185   4.643   2.003  0.6118 -0.1371  1.1000
26904SOL    HW281291   9.265   4.542   1.923  0.1299 -0.0118  0.4564
26905SOL     OW81292   3.317   0.059   4.150 -0.2209  0.4061  0.6038
26905SOL    HW181293   3.255  -0.013   4.136 -0.5832  0.6352  0.9782
26905SOL    HW281294   3.347   0.082   4.062 -1.6573  1.1311  0.2534
26906SOL     OW81295   9.040   4.805   0.482  0.4528  0.0049 -0.5920
26906SOL    HW181296   9.092   4.802   0.563 -0.2224  0.8816 -0.1070
26906SOL    HW281297   8.989   4.725   0.483 -0.7870  0.7565  0.7264
26907SOL     OW81298   3.761   2.055   7.596 -0.5935  0.3649 -0.4382
26907SOL    HW181299   3.736   2.136   7.640 -0.5535  0.0876  0.1015
26907SOL    HW281300   3.732   1.985   7.655 -1.7824 -0.0689 -1.4725
26908SOL     OW81301   2.971   0.161   4.298 -0.1597 -0.0888  0.1412
26908SOL    HW181302   2.990   0.253   4.276  2.0914 -0.1312  1.5460
26908SOL    HW281303   2.937   0.124   4.216  2.9295  1.0010 -1.8430
26909SOL     OW81304   0.539   9.702   9.104 -0.4968  1.2957 -0.3185
26909SOL    HW181305   0.568   9.611   9.095 -1.7196  0.6661  1.4933
26909SOL    HW281306   0.472   9.713   9.036 -1.5531  0.2750  0.5167
26910SOL     OW81307   3.443   7.128   8.281 -0.0761  0.2304 -0.3907
26910SOL    HW181308   3.385   7.052   8.277  0.1253 -0.0344  1.1041
26910SOL    HW281309   3.385   7.201   8.302 -0.3758  0.6531 -2.5355
26911SOL     OW81310   5.616   7.602   6.162  0.0581  0.2767  0.0438
26911SOL    HW181311   5.656   7.547   6.095  0.2776  0.4227  0.0534
26911SOL    HW281312   5.597   7.542   6.234 -2.1624 -0.3100 -0.9672
26912SOL     OW81313   6.746   7.612   7.611  0.3782  0.1776  0.0022
26912SOL    HW181314   6.668   7.558   7.628 -0.6506  1.2968 -1.0114
26912SOL    HW281315   6.815   7.549   7.590 -0.5492 -0.7889 -0.2163
26913SOL     OW81316   1.331   7.535   1.885 -0.7505 -0.0453  0.0777
26913SOL    HW181317   1.371   7.448   1.889 -0.8664 -0.1089 -0.1632
26913SOL    HW281318   1.253   7.523   1.831 -0.3627  0.3700 -0.5719
26914SOL     OW81319   6.063   9.158   1.708  0.3107 -0.7976  0.0195
26914SOL    HW181320   6.072   9.070   1.745  1.7710 -0.1277  1.4016
26914SOL    HW281321   6.123   9.159   1.633  0.3605 -0.9648  0.0573
26915SOL     OW81322   3.518   0.836   0.292  0.0317  0.0579  0.1755
26915SOL    HW181323   3.558   0.865   0.210  1.2517 -1.1848  0.2971
26915SOL    HW281324   3.427   0.865   0.286  0.6986  2.2192 -0.4899
26916SOL     OW81325   8.521   0.716   8.095 -0.3742 -0.1698 -0.1069
26916SOL    HW181326   8.449   0.748   8.040  1.5706  2.1973 -1.4904
26916SOL    HW281327   8.530   0.624   8.072 -0.3651  0.4710 -3.0317
26917SOL     OW81328   4.627   8.002   5.378 -0.4064 -0.1429 -0.2125
26917SOL    HW181329   4.650   7.942   5.308  0.3528 -0.2081  0.0794
26917SOL    HW281330   4.668   8.085   5.353 -0.0754 -0.1838  0.1800
26918SOL     OW81331   9.057   7.595   4.390 -0.4866  0.1027 -0.1924
26918SOL    HW181332   9.126   7.530   4.382 -1.4869 -1.3640  2.0206
26918SOL    HW281333   9.103   7.676   4.413  0.6908 -0.0038 -1.9436
26919SOL     OW81334   6.428   3.343   7.819 -0.6904 -0.4078  0.3790
26919SOL    HW181335   6.375   3.386   7.887 -1.7958  0.0736 -0.7523
26919SOL    HW281336   6.473   3.415   7.775  0.8012 -0.7955  1.1923
26920SOL     OW81337   9.888   0.674   1.250 -0.0940  0.6280 -0.1936
26920SOL    HW181338   9.833   0.747   1.277 -2.9415 -1.6187  0.5775
26920SOL    HW281339   9.868   0.662   1.157  0.6321  1.0212 -0.4051
26921SOL     OW81340   3.623   8.119   3.403  0.2054  0.6454  0.1790
26921SOL    HW181341   3.674   8.192   3.368 -0.4539  1.7541  1.4415
26921SOL    HW281342   3.684   8.075   3.462  0.0429  1.3613  0.9035
26922SOL     OW81343   1.393   2.984   8.762  0.7392 -0.7025  0.3896
26922SOL    HW181344   1.361   2.913   8.707 -1.7391 -0.4861  1.3944
26922SOL    HW281345   1.384   2.951   8.852  0.9035  0.3455  0.8082
26923SOL     OW81346   2.465   9.792   4.025 -0.5493  0.4827 -0.1467
26923SOL    HW181347   2.434   9.823   4.110 -1.7369  2.2213 -1.1655
26923SOL    HW281348   2.393   9.738   3.992 -1.8797  3.0327 -1.7104
26924SOL     OW81349   4.746   2.946   3.582  0.0386 -0.0754  0.7802
26924SOL    HW181350   4.813   2.913   3.642 -0.5190 -0.2476  1.3188
26924SOL    HW281351   4.681   2.875   3.577 -0.4253  0.3432  0.7688
26925SOL     OW81352   7.966   4.537   4.429  0.4205  0.4292  0.5701
26925SOL    HW181353   8.038   4.579   4.476  0.3087 -0.8419  1.9756
26925SOL    HW281354   7.889   4.554   4.484 -0.4578  1.9882 -1.0336
26926SOL     OW81355   2.410   8.846   1.999 -0.1694 -0.3528  0.0469
26926SOL    HW181356   2.502   8.867   2.014 -0.8961  2.3561  1.2835
26926SOL    HW281357   2.411   8.755   1.968  2.7588 -1.0002  1.6823
26927SOL     OW81358   8.789   6.404   8.555 -0.1793 -0.2245 -0.0418
26927SOL    HW181359   8.853   6.334   8.547  0.1465 -0.4732  3.3894
26927SOL    HW281360   8.706   6.363   8.530  0.6358 -0.3266 -2.9739
26928SOL     OW81361   0.800   8.574   1.418 -0.6613 -0.2400  0.4057
26928SOL    HW181362   0.709   8.568   1.448 -0.0640  1.9330  3.1473
26928SOL    HW281363   0.809   8.664   1.388  0.9623  0.1825  1.9501
26929SOL     OW81364   2.377   2.776   4.776 -0.3738 -0.1062 -0.4615
26929SOL    HW181365   2.328   2.788   4.695 -2.1680 -2.2506  0.1897
26929SOL    HW281366   2.328   2.827   4.841 -0.5252 -0.5445 -0.2254
26930SOL     OW81367   7.703   7.451   5.506  0.6196  0.1493 -0.1380
26930SOL    HW181368   7.656   7.497   5.575  0.1060  0.0757 -0.4322
26930SOL    HW281369   7.679   7.498   5.426 -0.8048 -1.2842 -0.6007
26931SOL     OW81370   9.637   9.274   5.922  0.0275  0.5795 -0.4645
26931SOL    HW181371   9.609   9.365   5.929  1.8119  1.1043  0.8715
26931SOL    HW281372   9.732   9.279   5.909 -0.2196 -1.0545 -4.1031
26932SOL     OW81373   6.666   7.879   6.814 -0.3920  0.0941 -0.2750
26932SOL    HW181374   6.664   7.786   6.837 -0.4143  0.4184  1.1037
26932SOL    HW281375   6.746   7.890   6.763 -0.7024 -0.7880 -0.9803
26933SOL     OW81376   2.672   8.409   3.264 -0.7945  0.1264  0.1907
26933SOL    HW181377   2.649   8.380   3.352 -2.3412  1.9410  0.4481
26933SOL    HW281378   2.607   8.368   3.207 -1.0460  0.5508  0.1660
26934SOL     OW81379   4.360   8.407   4.121 -0.4231 -0.3424 -0.2122
26934SOL    HW181380   4.390   8.448   4.202 -2.0732 -0.0286  0.2858
26934SOL    HW281381   4.415   8.329   4.111 -0.3080 -0.4842  1.3170
26935SOL     OW81382   1.212   1.737   0.690 -0.0632 -0.3535  0.3007
26935SOL    HW181383   1.158   1.814   0.708 -0.9865 -1.1612  1.1078
26935SOL    HW281384   1.234   1.745   0.597 -0.2365  0.8136  0.3412
26936SOL     OW81385   1.039   3.023   6.227 -0.3611  0.2232  0.3989
26936SOL    HW181386   1.049   3.012   6.132 -0.7413  0.0257  0.3853
26936SOL    HW281387   1.049   3.118   6.240  0.8523  0.1262  0.2987
26937SOL     OW81388   0.137   6.957   1.775 -0.1470  0.4934  0.3962
26937SOL    HW181389   0.123   6.994   1.688 -0.6282  1.3297  0.8282
26937SOL    HW281390   0.093   6.872   1.773  1.3711 -0.3264 -0.7551
26938SOL     OW81391   0.862   1.232   1.737 -0.2123 -0.1021  0.4730
26938SOL    HW181392   0.873   1.325   1.716  0.8391 -0.0880  0.9868
26938SOL    HW281393   0.774   1.210   1.707  0.9695 -0.0108 -3.6388
26939SOL     OW81394   2.403   4.827   7.683 -0.4719  0.5466  0.1301
26939SOL    HW181395   2.359   4.743   7.668 -0.9630  0.6654  0.8431
26939SOL    HW281396   2.471   4.807   7.747 -0.6940  0.7121  0.4242
26940SOL     OW81397   3.269   8.495   8.750  0.4712  0.8379 -0.2609
26940SOL    HW181398   3.226   8.463   8.829  0.6757  0.0350 -0.4643
26940SOL    HW281399   3.243   8.433   8.682  3.1695 -0.6411 -0.0779
26941SOL     OW81400   8.033   0.144   7.528 -0.3695  0.1557 -0.0022
26941SOL    HW181401   8.002   0.064   7.570  2.5432  0.2231  2.5349
26941SOL    HW281402   8.017   0.213   7.592  0.2472  1.0487 -0.7826
26942SOL     OW81403   7.157   7.143   3.910  0.2902 -0.2415  0.4912
26942SOL    HW181404   7.156   7.096   3.994  0.8788 -1.1595 -0.0087
26942SOL    HW281405   7.222   7.098   3.857 -0.1133  0.2923 -0.4946
26943SOL     OW81406   5.359   8.288   0.837  0.4007 -0.0061 -0.6037
26943SOL    HW181407   5.279   8.323   0.798 -0.2439  0.7806  1.2753
26943SOL    HW281408   5.330   8.212   0.887  0.8014  0.2752  0.0832
26944SOL     OW81409   1.735   6.308   6.433  0.1884 -0.5068  0.2608
26944SOL    HW181410   1.758   6.219   6.406  0.2396 -0.0294 -1.3895
26944SOL    HW281411   1.800   6.364   6.390 -0.8116  0.4468 -0.0732
26945SOL     OW81412   6.503   6.722   2.989 -0.3579  0.8540  0.0654
26945SOL    HW181413   6.580   6.775   3.007 -0.7341  0.9427  1.4953
26945SOL    HW281414   6.537   6.633   2.976  0.1252  1.1682 -0.8928
26946SOL     OW81415   7.826   3.235   0.616  0.0313 -0.0957  0.4543
26946SOL    HW181416   7.905   3.222   0.564 -0.9224 -0.7580 -0.8649
26946SOL    HW281417   7.807   3.328   0.607 -0.4709 -0.3113 -0.9318
26947SOL     OW81418   4.503   5.474   9.152 -0.2038 -0.1669 -0.9283
26947SOL    HW181419   4.569   5.405   9.145  1.2168  1.1506 -0.9149
26947SOL    HW281420   4.531   5.528   9.226 -1.6290  0.0876 -0.5464
26948SOL     OW81421   2.347   5.052   9.007  0.2311  0.3148 -0.2159
26948SOL    HW181422   2.300   5.122   9.052  1.6080  0.9166  0.3501
26948SOL    HW281423   2.424   5.095   8.970  1.2940 -0.9547  0.4599
26949SOL     OW81424   8.085   0.784   3.546  0.1929 -0.5092  0.6285
26949SOL    HW181425   8.142   0.856   3.521 -0.4105 -0.1453  0.2628
26949SOL    HW281426   8.002   0.826   3.569 -0.3332 -1.1178 -0.0850
26950SOL     OW81427   9.703   2.452   7.256  0.0277 -0.0245 -0.0478
26950SOL    HW181428   9.744   2.469   7.172  1.1982 -0.9617  0.3188
26950SOL    HW281429   9.651   2.531   7.273 -0.5390  0.0143 -1.8008
26951SOL     OW81430   3.273   6.665   4.751 -0.4328  0.7596 -0.5422
26951SOL    HW181431   3.188   6.709   4.742 -0.5511  0.3177 -1.7709
26951SOL    HW281432   3.334   6.723   4.705 -0.2968  0.4607 -0.7414
26952SOL     OW81433   1.673   4.130   7.130  0.4288  0.2451 -0.4418
26952SOL    HW181434   1.712   4.043   7.137  1.2721  0.5060 -1.5467
26952SOL    HW281435   1.733   4.187   7.177  0.1243  0.3109 -0.1258
26953SOL     OW81436   6.297   7.431   1.896  0.0216 -0.0647  0.0396
26953SOL    HW181437   6.328   7.480   1.820 -1.2532 -0.5601 -0.8300
26953SOL    HW281438   6.319   7.340   1.877  0.0482 -0.1461  0.4459
26954SOL     OW81439   4.998   4.183   2.971  0.1141 -0.0659 -0.3680
26954SOL    HW181440   4.908   4.183   3.004 -0.6926 -1.5064 -2.3738
26954SOL    HW281441   4.988   4.194   2.876  2.0592 -0.3645 -0.6367
26955SOL     OW81442   6.932   1.557   9.503  0.3213  0.5005  0.0637
26955SOL    HW181443   6.963   1.647   9.512 -1.1235  1.1121 -0.6561
26955SOL    HW281444   6.936   1.521   9.591 -1.9827  2.3042  1.0081
26956SOL     OW81445   5.292   2.125   9.770 -0.0084  0.2175  0.4921
26956SOL    HW181446   5.291   2.143   9.676  1.3981 -0.6620  0.2904
26956SOL    HW281447   5.302   2.030   9.777 -1.6505  0.0678  1.5523
26957SOL     OW81448   9.752   7.640   9.868  0.2420  1.0944 -0.0866
26957SOL    HW181449   9.801   7.693   9.805 -1.2355 -0.1451 -2.4393
26957SOL    HW281450   9.742   7.697   9.945 -1.0566  4.2246 -2.3467
26958SOL     OW81451   3.212   5.358   6.747  0.1860 -0.6170  0.2230
26958SOL    HW181452   3.272   5.294   6.708  1.1811  0.3808  0.0706
26958SOL    HW281453   3.243   5.443   6.715  0.2076  0.1271  2.0878
26959SOL     OW81454   9.963   2.116   0.138  0.0529 -0.2847 -0.3343
26959SOL    HW181455  10.002   2.107   0.225 -0.9201 -1.3786  0.0151
26959SOL    HW281456   9.869   2.115   0.154 -0.1572 -1.5194 -1.4729
26960SOL     OW81457   5.693   0.571   5.280 -0.2152 -0.2785  0.0051
26960SOL    HW181458   5.619   0.550   5.223 -1.5023 -0.6438  1.7029
26960SOL    HW281459   5.679   0.516   5.358  2.3482 -1.0285  0.0255
26961SOL     OW81460   9.280   0.597   8.057 -0.2067 -0.3941 -0.4039
26961SOL    HW181461   9.364   0.583   8.012 -0.2803 -3.3347  0.1739
26961SOL    HW281462   9.304   0.633   8.142  0.4622 -0.8446 -0.3901
26962SOL     OW81463   9.252   1.234   7.600 -0.3248 -0.1127  0.4680
26962SOL    HW181464   9.336   1.248   7.644 -0.5874 -0.2046  1.0176
26962SOL    HW281465   9.225   1.146   7.627 -1.2571  0.4415  1.4499
26963SOL     OW81466   0.027   3.154   9.109 -0.3905 -0.3551 -0.8246
26963SOL    HW181467   0.100   3.144   9.048  0.5167  1.2548 -0.0759
26963SOL    HW281468  -0.017   3.235   9.081 -1.7117 -1.1223 -1.0572
26964SOL     OW81469   9.191   3.427   6.442  0.3027  0.3256 -0.1045
26964SOL    HW181470   9.203   3.521   6.461  0.9937  0.0659  0.8695
26964SOL    HW281471   9.281   3.393   6.435  0.0583 -0.1261 -1.2421
26965SOL     OW81472   8.282   0.416   0.009  0.0025  0.1280  0.2141
26965SOL    HW181473   8.271   0.454   0.096 -2.7384  0.2821 -0.1230
26965SOL    HW281474   8.228   0.337   0.011 -0.9767  0.7086 -1.6474
26966SOL     OW81475   8.082   0.399   4.155  0.1934  0.5685  0.0237
26966SOL    HW181476   8.173   0.377   4.137 -0.3662 -1.9927  0.0186
26966SOL    HW281477   8.073   0.390   4.250  0.0487  1.3770  0.0996
26967SOL     OW81478   9.245   1.088   4.280  0.2922  0.3766 -0.4055
26967SOL    HW181479   9.253   1.160   4.342  0.6409  0.2960 -0.3530
26967SOL    HW281480   9.221   1.129   4.197  2.9883  0.8802 -1.0487
26968SOL     OW81481   0.878   0.359   3.193 -0.3877 -0.5160  0.5627
26968SOL    HW181482   0.943   0.339   3.261 -0.4548 -2.1783  0.1670
26968SOL    HW281483   0.805   0.398   3.240  0.3973  0.2730  1.1641
26969SOL     OW81484   1.194   2.907   1.910  0.8051  0.3107  0.3780
26969SOL    HW181485   1.273   2.959   1.922  0.4678  1.4714 -1.8261
26969SOL    HW281486   1.144   2.917   1.991  1.4434  2.2422  0.5670
26970SOL     OW81487   2.035   6.924   2.916  0.0923  0.0158  0.0603
26970SOL    HW181488   2.016   7.011   2.880 -0.6760  0.1412  0.7367
26970SOL    HW281489   2.120   6.935   2.959 -0.0177  0.4449  0.1731
26971SOL     OW81490   0.919   5.380   5.723  0.1533  0.0768 -0.1714
26971SOL    HW181491   0.889   5.399   5.634 -1.9536 -1.6330  0.0868
26971SOL    HW281492   1.003   5.335   5.711  1.6030  2.8121 -1.0589
26972SOL     OW81493   5.426   9.665   1.085  0.2905 -0.2956  0.1874
26972SOL    HW181494   5.359   9.645   1.019  0.1516 -0.4591  0.3758
26972SOL    HW281495   5.440   9.581   1.130  0.2152 -0.1295  0.5206
26973SOL     OW81496   9.147   2.709   0.834  0.4050  0.1634  0.0192
26973SOL    HW181497   9.178   2.793   0.801  0.3039  0.1597 -0.0857
26973SOL    HW281498   9.098   2.672   0.761 -0.5975  0.5607  0.4804
26974SOL     OW81499   6.857   9.764   8.505  0.2157  0.4306 -0.0127
26974SOL    HW181500   6.783   9.707   8.529  0.7575  0.0049  0.6830
26974SOL    HW281501   6.933   9.706   8.507  0.6847  1.0436  0.0844
26975SOL     OW81502   0.251   8.791   7.486  0.4288 -0.7226 -0.6504
26975SOL    HW181503   0.280   8.700   7.479 -0.2562 -1.0687  0.6390
26975SOL    HW281504   0.256   8.811   7.579  0.7514  0.6366 -0.9315
26976SOL     OW81505   2.542   2.278   4.149 -0.0341  0.0766  0.7038
26976SOL    HW181506   2.536   2.371   4.169  0.9671  0.3818 -0.3167
26976SOL    HW281507   2.634   2.262   4.131 -0.4932 -0.5779 -1.4251
26977SOL     OW81508   2.470   8.880   9.548 -0.2929  0.9470  0.0885
26977SOL    HW181509   2.404   8.903   9.613  0.5377  0.3166  1.1943
26977SOL    HW281510   2.437   8.800   9.506  0.3029 -0.0644  1.4843
26978SOL     OW81511   9.572   5.830   5.836 -0.3938  0.0577 -0.1471
26978SOL    HW181512   9.588   5.745   5.878  0.2993  0.8526  1.2543
26978SOL    HW281513   9.487   5.858   5.869  1.2348  1.8531  2.8980
26979SOL     OW81514   6.227   2.629   9.290  0.6959 -0.5104  0.0975
26979SOL    HW181515   6.160   2.603   9.227  0.2545  0.7368  0.0350
26979SOL    HW281516   6.283   2.551   9.298 -0.8798 -1.6742  0.3591
26980SOL     OW81517   3.497   6.096   1.375  0.5677  0.4011  0.3334
26980SOL    HW181518   3.404   6.086   1.355  0.9616 -0.6273 -1.1421
26980SOL    HW281519   3.542   6.076   1.293  2.1275 -0.0008  1.2392
26981SOL     OW81520   9.485   7.017   1.769  0.5369 -0.3168 -0.2437
26981SOL    HW181521   9.438   7.097   1.793  0.4996 -0.5631  0.5262
26981SOL    HW281522   9.419   6.947   1.775  0.6946 -0.4810 -0.4075
26982SOL     OW81523   5.643   9.894   7.517 -0.1437 -0.5325  0.1329
26982SOL    HW181524   5.575   9.832   7.542 -1.5743  0.1918 -1.7595
26982SOL    HW281525   5.693   9.850   7.448  0.3696 -0.4770  0.4585
26983SOL     OW81526   7.189   2.452   4.990  0.1834 -0.2806  0.1568
26983SOL    HW181527   7.145   2.417   4.913 -1.1355 -0.3517  0.9117
26983SOL    HW281528   7.157   2.543   4.996 -0.5590 -0.5935  1.1977
26984SOL     OW81529   2.370   9.374   9.982  0.1684 -0.3612  0.3515
26984SOL    HW181530   2.281   9.358  10.013 -0.0762  0.4463  0.0865
26984SOL    HW281531   2.362   9.372   9.886  0.2968  0.4249  0.3199
26985SOL     OW81532   1.161   1.549   5.104  0.2700  0.1500 -0.3863
26985SOL    HW181533   1.088   1.492   5.080  1.4685 -1.5368 -0.1934
26985SOL    HW281534   1.237   1.510   5.061  1.2214  1.3562  0.1420
26986SOL     OW81535   2.903   0.247   1.840 -0.1840 -0.2190 -0.1349
26986SOL    HW181536   2.932   0.223   1.928  1.9927  1.2179 -0.3801
26986SOL    HW281537   2.812   0.274   1.851 -0.0126 -0.2267  1.6293
26987SOL     OW81538   3.577   4.716   3.126 -0.2171  0.0975  0.3544
26987SOL    HW181539   3.668   4.690   3.114 -0.0099  0.0021  1.9945
26987SOL    HW281540   3.555   4.763   3.045  1.0737 -0.4264 -0.3260
26988SOL     OW81541   9.225   0.967   0.562 -0.1332 -0.4586  0.0525
26988SOL    HW181542   9.177   1.042   0.526 -0.2070 -1.3327 -1.7863
26988SOL    HW281543   9.166   0.929   0.627 -0.4746  0.5067  0.3334
26989SOL     OW81544   0.744   5.555   1.503 -0.0759  0.4459  0.1281
26989SOL    HW181545   0.662   5.518   1.472 -0.7091  1.2836  0.7627
26989SOL    HW281546   0.811   5.494   1.472 -1.1362 -2.1005  2.4239
26990SOL     OW81547   3.044   0.949   8.669 -0.7185  0.6043 -0.4062
26990SOL    HW181548   3.104   0.896   8.615  0.4038 -0.2755  1.5902
26990SOL    HW281549   2.957   0.924   8.638 -0.1429  1.4798 -2.9925
26991SOL     OW81550   7.617   5.480   1.999  0.2585  0.6649  0.0990
26991SOL    HW181551   7.585   5.399   1.959 -0.2521  1.7746 -1.8274
26991SOL    HW281552   7.683   5.513   1.937  0.7812  1.5093  1.0704
26992SOL     OW81553   8.325   3.173   6.108 -0.3142 -0.5091  0.3628
26992SOL    HW181554   8.393   3.235   6.135 -0.9628  0.2666  0.2823
26992SOL    HW281555   8.355   3.140   6.024  0.1409 -0.4576  0.5008
26993SOL     OW81556   8.097   2.677   0.022 -0.4620 -0.0110  0.2828
26993SOL    HW181557   8.050   2.594   0.027 -0.1791 -0.2246 -0.4394
26993SOL    HW281558   8.188   2.652   0.003 -0.5770  0.4976 -0.9869
26994SOL     OW81559   1.942   6.744   8.757  0.1316 -0.4618 -0.0157
26994SOL    HW181560   1.859   6.777   8.792 -0.1956  0.5295 -1.5899
26994SOL    HW281561   1.958   6.662   8.804  1.2035  1.9819  4.5163
26995SOL     OW81562   7.435   9.434   5.174 -0.5216  0.6860 -0.5131
26995SOL    HW181563   7.346   9.429   5.209 -0.9194  1.9946 -1.2597
26995SOL    HW281564   7.486   9.473   5.245 -0.6576  0.4450 -0.2794
26996SOL     OW81565   4.216   7.667   9.498  0.6022  0.5679  0.2290
26996SOL    HW181566   4.279   7.613   9.452  1.6803  1.1656  0.9568
26996SOL    HW281567   4.161   7.605   9.545  1.7517  0.0682  0.9695
26997SOL     OW81568   3.397   8.103   1.402  0.1702 -0.0830  0.2453
26997SOL    HW181569   3.388   8.014   1.369 -0.5673  0.5089 -1.2114
26997SOL    HW281570   3.468   8.141   1.351  0.5795  0.1444  0.9596
26998SOL     OW81571   1.088   1.702   2.722 -0.0437  0.3041  0.1033
26998SOL    HW181572   1.122   1.760   2.790 -0.8419  0.7274  0.1475
26998SOL    HW281573   1.093   1.614   2.760  0.9545  0.3533  0.1200
26999SOL     OW81574   7.831   0.808   6.047 -0.2544 -0.2934 -0.4742
26999SOL    HW181575   7.892   0.840   6.113  0.4325 -0.8741 -0.8104
26999SOL    HW281576   7.750   0.788   6.095  0.1803 -0.5508  0.1601
27000SOL     OW81577   6.977   0.362   2.570  0.6226  0.1367  0.0418
27000SOL    HW181578   6.896   0.412   2.554 -0.2508 -0.8001  1.3399
27000SOL    HW281579   6.946   0.278   2.605  2.0230 -1.4036 -2.1582
27001SOL     OW81580   4.934   3.516   8.561 -0.0463  0.0120 -0.1444
27001SOL    HW181581   5.018   3.485   8.527  0.8366  1.3019  0.7793
27001SOL    HW281582   4.920   3.466   8.641 -0.2853 -0.3725 -0.4234
27002SOL     OW81583   6.408   5.165   2.553  0.0254 -0.1440 -0.1175
27002SOL    HW181584   6.435   5.092   2.609 -0.4634 -0.8206 -0.7398
27002SOL    HW281585   6.344   5.213   2.605  0.4448 -0.0710  0.3439
27003SOL     OW81586   3.115   3.389   8.698 -0.1643  0.2679 -0.4924
27003SOL    HW181587   3.056   3.362   8.769  0.3069  1.1310  0.2439
27003SOL    HW281588   3.163   3.309   8.675  0.6039  0.2437  1.0602
27004SOL     OW81589   3.559   0.637   2.088  0.1317 -0.0387 -0.0516
27004SOL    HW181590   3.483   0.654   2.143  0.6855  1.3061  0.3501
27004SOL    HW281591   3.600   0.560   2.126 -1.0105 -0.7713 -0.2694
27005SOL     OW81592   8.992   5.603   2.402 -0.4158  0.5022  0.0573
27005SOL    HW181593   8.989   5.576   2.310 -0.5951  1.0114 -0.0919
27005SOL    HW281594   8.935   5.680   2.406  2.1194  2.5800 -0.1269
27006SOL     OW81595   6.768   5.715   3.480 -0.4874 -0.0804  0.2781
27006SOL    HW181596   6.787   5.680   3.393  0.2718 -2.2495  1.2483
27006SOL    HW281597   6.854   5.732   3.518 -0.7329 -1.0925  1.3266
27007SOL     OW81598   2.838   8.710   1.802  0.4862  0.1537 -0.3962
27007SOL    HW181599   2.779   8.722   1.728 -0.6610  1.6610  0.7107
27007SOL    HW281600   2.914   8.764   1.781  0.6933 -0.3522 -0.9885
27008SOL     OW81601   2.535   1.302   0.682 -0.1134 -0.0986 -0.6976
27008SOL    HW181602   2.582   1.240   0.626  1.2871  1.7206 -1.6431
27008SOL    HW281603   2.511   1.374   0.624 -0.4010  0.9205  0.6387
27009SOL     OW81604   8.201   3.341   8.936  0.0164  0.5224 -0.4476
27009SOL    HW181605   8.285   3.301   8.912 -0.6001 -0.6726 -0.6605
27009SOL    HW281606   8.215   3.374   9.025  0.3897 -0.6051 -0.0802
27010SOL     OW81607   2.553   8.350   7.491  0.2038  0.5815 -0.3627
27010SOL    HW181608   2.543   8.263   7.454 -2.8316  0.8306 -0.3523
27010SOL    HW281609   2.576   8.335   7.583 -1.5340 -0.3029 -0.0283
27011SOL     OW81610   2.352   4.208   8.574 -0.1812  0.1435 -0.2618
27011SOL    HW181611   2.416   4.263   8.619 -0.7838  1.9632 -1.5077
27011SOL    HW281612   2.273   4.214   8.627  0.8817 -3.2588  2.0870
27012SOL     OW81613   0.124   1.976   1.428 -0.0369  0.1628  0.1054
27012SOL    HW181614   0.100   1.898   1.377 -2.7731 -0.6726  2.3621
27012SOL    HW281615   0.192   1.945   1.487 -1.1146 -0.6228  0.9981
27013SOL     OW81616   9.082   4.631   1.121 -0.4874 -0.1398 -0.0763
27013SOL    HW181617   9.099   4.725   1.116  0.4730 -0.3269 -0.6301
27013SOL    HW281618   8.989   4.623   1.100 -1.4152  0.9284  2.9903
27014SOL     OW81619   7.759   4.852   5.701 -0.5440  0.1758  0.2017
27014SOL    HW181620   7.717   4.790   5.760 -0.2186 -0.2961 -0.0507
27014SOL    HW281621   7.795   4.797   5.631 -1.1558  0.7431 -0.5707
27015SOL     OW81622   5.854   6.229   8.228  0.1665 -0.2164 -0.4947
27015SOL    HW181623   5.894   6.256   8.145 -0.1454 -0.1184 -0.6167
27015SOL    HW281624   5.830   6.312   8.270 -0.3307 -0.2851 -0.6361
27016SOL     OW81625   5.974   3.247   4.180  0.0386 -0.2037  0.1966
27016SOL    HW181626   6.047   3.202   4.223 -0.1813 -1.2852 -0.5182
27016SOL    HW281627   5.910   3.262   4.249 -0.7500 -2.8237  0.1297
27017SOL     OW81628   4.651   1.299   9.763  0.2640  0.2167  0.1548
27017SOL    HW181629   4.729   1.309   9.708 -0.4560  1.4393 -0.6756
27017SOL    HW281630   4.680   1.243   9.835  2.1151  1.2357  0.2615
27018SOL     OW81631   8.809   4.978   2.423 -0.1468  0.4714  0.0768
27018SOL    HW181632   8.857   4.904   2.385 -0.8811  0.1970 -0.3454
27018SOL    HW281633   8.835   4.979   2.515 -0.2080 -0.3970  0.1162
27019SOL     OW81634   8.879   2.017   7.852  0.3587 -0.4093 -0.6043
27019SOL    HW181635   8.815   1.989   7.917  0.3917  0.5436 -0.1530
27019SOL    HW281636   8.947   2.062   7.903  0.6940 -0.1947 -1.2328
27020SOL     OW81637   0.258   3.982   3.602  0.4631 -0.2580  0.6727
27020SOL    HW181638   0.323   4.011   3.538 -0.9295 -0.5013 -0.8967
27020SOL    HW281639   0.262   4.048   3.671  1.4374  0.4466 -0.0294
27021SOL     OW81640   7.048   2.348   2.795 -0.2367  0.2015 -0.1886
27021SOL    HW181641   7.002   2.268   2.819  0.0460  0.3884  1.0326
27021SOL    HW281642   7.138   2.319   2.777 -0.5900 -0.0296 -1.6886
27022SOL     OW81643   3.249   6.747   5.685  0.1878  0.1109 -0.0677
27022SOL    HW181644   3.208   6.801   5.617 -1.7150 -2.2749 -0.9677
27022SOL    HW281645   3.193   6.760   5.762  0.9962  1.0146  0.3955
27023SOL     OW81646   4.766   4.774   9.190 -0.9800  0.1289  0.0474
27023SOL    HW181647   4.858   4.769   9.218 -0.8197  1.9778 -0.0365
27023SOL    HW281648   4.768   4.750   9.097 -0.6316 -0.1998  0.1361
27024SOL     OW81649   3.683   6.433   6.182  0.2068  0.6304  0.1341
27024SOL    HW181650   3.776   6.449   6.172  0.3143  1.8050  2.3299
27024SOL    HW281651   3.646   6.518   6.208 -1.0563 -0.2806  1.5633
27025SOL     OW81652   5.226   4.157   7.147  0.2713 -0.0941  0.1964
27025SOL    HW181653   5.227   4.251   7.128  0.2392 -0.1387 -0.0359
27025SOL    HW281654   5.295   4.121   7.092  0.3466 -0.1942  0.3561
27026SOL     OW81655   8.968   9.182   4.855  0.1555 -0.0595  0.8489
27026SOL    HW181656   9.033   9.184   4.784 -0.4512  0.1167  0.2933
27026SOL    HW281657   9.004   9.241   4.922  0.5409  0.0849  0.5185
27027SOL     OW81658   2.856   4.848   2.809  0.4319 -0.0461  0.1072
27027SOL    HW181659   2.943   4.810   2.818  1.0324  1.0537 -0.9308
27027SOL    HW281660   2.824   4.856   2.899  0.6345 -2.1160  0.4183
27028SOL     OW81661   0.776   0.334   3.539 -0.0069  0.3131 -0.1773
27028SOL    HW181662   0.730   0.368   3.462 -1.7509 -2.7383 -0.6609
27028SOL    HW281663   0.721   0.262   3.570  2.6342 -1.1653  1.4988
27029SOL     OW81664   8.212   8.147   1.601  0.2178 -0.5569 -0.5395
27029SOL    HW181665   8.238   8.074   1.545  0.0242  0.0096 -1.3769
27029SOL    HW281666   8.214   8.223   1.544 -0.8093 -0.0982  0.0050
27030SOL     OW81667   9.448   8.644   1.938 -0.0346 -0.1340  0.0687
27030SOL    HW181668   9.380   8.584   1.969  0.8955 -0.9804  0.5517
27030SOL    HW281669   9.528   8.590   1.935  0.4340  0.5873 -1.3805
27031SOL     OW81670   6.558   7.438   9.873 -0.0806 -0.2507 -0.3428
27031SOL    HW181671   6.654   7.442   9.866 -0.0424 -0.4299  0.0879
27031SOL    HW281672   6.541   7.408   9.962 -0.5645  1.0625  0.0289
27032SOL     OW81673   1.791   7.209   7.346  0.5090 -0.0070  0.3158
27032SOL    HW181674   1.739   7.142   7.391  0.5472 -0.3009 -0.0653
27032SOL    HW281675   1.881   7.176   7.351  0.4622 -0.2485 -0.3208
27033SOL     OW81676   8.273   1.357   9.880 -0.4904 -0.2582  0.4495
27033SOL    HW181677   8.280   1.322   9.791 -0.1585  0.3156  0.2469
27033SOL    HW281678   8.361   1.349   9.916 -0.0639  1.6034 -0.0772
27034SOL     OW81679   1.757   4.868   7.663 -0.4034 -0.5387  0.2774
27034SOL    HW181680   1.825   4.918   7.617 -1.8588 -0.7212 -2.2755
27034SOL    HW281681   1.680   4.924   7.660 -1.2610 -1.7001  0.0193
27035SOL     OW81682   6.563   1.128   1.464  0.1392  0.1595 -0.0399
27035SOL    HW181683   6.650   1.099   1.490  1.3475  1.9028 -1.7957
27035SOL    HW281684   6.549   1.209   1.513 -0.0172  0.4269 -0.5137
27036SOL     OW81685   4.845   1.746   2.905 -0.5710  0.0135  0.1662
27036SOL    HW181686   4.802   1.724   2.987 -1.5254  2.1015  0.2993
27036SOL    HW281687   4.778   1.731   2.838 -1.9557  3.8321  0.4288
27037SOL     OW81688   6.608   9.007   6.865  0.1694 -0.2775  0.4020
27037SOL    HW181689   6.555   9.041   6.793 -0.4757 -1.2740  0.3924
27037SOL    HW281690   6.573   8.920   6.882  0.8386 -0.3704  1.3958
27038SOL     OW81691   4.384   8.688   1.287 -0.2933  0.3088  0.5688
27038SOL    HW181692   4.308   8.741   1.308  0.4247  0.9924  1.5265
27038SOL    HW281693   4.392   8.628   1.362  0.4769  0.6782  0.7899
27039SOL     OW81694   4.636   1.013   2.873  0.4196 -0.2642 -0.9151
27039SOL    HW181695   4.563   1.075   2.863 -0.3131 -1.2857 -2.2384
27039SOL    HW281696   4.679   1.014   2.787  0.4945 -1.4468 -0.9076
27040SOL     OW81697   9.755   2.104   9.714 -0.8789 -0.7023  0.2991
27040SOL    HW181698   9.714   2.100   9.628 -0.0418 -1.3500 -0.0856
27040SOL    HW281699   9.816   2.030   9.714  0.8352  0.6743  0.5657
27041SOL     OW81700   7.772   2.584   4.450 -0.2330  0.4761  0.0271
27041SOL    HW181701   7.860   2.564   4.418 -1.2918 -1.4704 -1.9638
27041SOL    HW281702   7.737   2.499   4.477 -1.9393  0.9745 -0.5123
27042SOL     OW81703   4.855   8.606   7.000 -0.3079 -0.1685  0.4217
27042SOL    HW181704   4.852   8.699   7.022 -2.2533  0.0205 -0.4529
27042SOL    HW281705   4.887   8.604   6.910 -1.6872 -0.2082 -0.0883
27043SOL     OW81706   4.591   0.721   8.877  0.1848  0.6978  0.6919
27043SOL    HW181707   4.631   0.797   8.920  1.1915  0.5921 -0.0041
27043SOL    HW281708   4.581   0.749   8.786  2.0261 -0.4955  0.0633
27044SOL     OW81709   1.139   5.052   3.892  0.2733 -0.5422 -0.5111
27044SOL    HW181710   1.057   5.005   3.879  1.2237 -2.5784  0.3262
27044SOL    HW281711   1.199   5.014   3.828  1.0159 -0.3034  0.0255
27045SOL     OW81712   7.706   8.333   6.823  0.5594 -0.3717  0.0157
27045SOL    HW181713   7.736   8.297   6.906 -0.1048  1.8044  1.2761
27045SOL    HW281714   7.620   8.371   6.842  1.1028  1.6552 -1.2141
27046SOL     OW81715   6.021   9.238   5.516 -0.1350 -0.1033 -0.3074
27046SOL    HW181716   6.110   9.255   5.485 -0.2771  1.8020  0.1990
27046SOL    HW281717   5.994   9.320   5.557 -1.6399 -1.0750  0.7534
27047SOL     OW81718   7.215   9.557   2.600 -0.9757  0.8123  0.1508
27047SOL    HW181719   7.141   9.616   2.616 -1.4446  0.4387 -0.6197
27047SOL    HW281720   7.252   9.542   2.687 -0.6773  2.4516  0.3470
27048SOL     OW81721   6.155   7.315   0.162  0.3824 -0.1459 -0.5544
27048SOL    HW181722   6.205   7.390   0.196  0.2972  0.1032 -0.9694
27048SOL    HW281723   6.069   7.351   0.141 -0.3842 -0.8236  1.2495
27049SOL     OW81724   2.659   4.690   4.958  0.5737 -0.0075 -0.0144
27049SOL    HW181725   2.651   4.685   4.862 -0.0720  1.0352 -0.0395
27049SOL    HW281726   2.724   4.623   4.981  0.8307 -0.1839 -1.1908
27050SOL     OW81727   8.484   3.620   6.392  0.4049 -0.0322  0.3101
27050SOL    HW181728   8.558   3.651   6.444 -0.5126  2.0581  0.4875
27050SOL    HW281729   8.473   3.687   6.324  1.0267 -2.2519 -2.1319
27051SOL     OW81730   8.761   4.346   4.222 -0.4908 -0.1832 -0.1360
27051SOL    HW181731   8.742   4.346   4.128 -1.0215  0.7805 -0.0429
27051SOL    HW281732   8.832   4.283   4.232 -1.1086 -1.0568 -1.0374
27052SOL     OW81733   0.147   6.651   1.167 -0.8350  0.2782 -0.0070
27052SOL    HW181734   0.111   6.704   1.238  0.1526 -1.1223  1.6128
27052SOL    HW281735   0.227   6.613   1.204 -1.2000 -1.8697 -1.2830
27053SOL     OW81736   0.136   4.715   7.139 -0.1499 -0.1483 -0.5140
27053SOL    HW181737   0.043   4.733   7.139 -0.6215 -2.2382 -0.4964
27053SOL    HW281738   0.167   4.745   7.224 -1.5980 -2.7057  1.0395
27054SOL     OW81739   2.407   0.543   3.964 -0.0496 -0.4140  0.3325
27054SOL    HW181740   2.355   0.516   3.889  1.2221 -0.1416 -0.6877
27054SOL    HW281741   2.344   0.556   4.034 -1.7212  2.4594 -1.5071
27055SOL     OW81742   4.909   0.612   4.892  0.2074  0.1084  0.1652
27055SOL    HW181743   4.929   0.653   4.808 -1.1630 -1.1550 -0.8098
27055SOL    HW281744   4.827   0.652   4.920  0.7977  0.7386  1.1044
27056SOL     OW81745   3.706   6.655   0.150  0.0374 -0.1117  0.2361
27056SOL    HW181746   3.731   6.745   0.129  0.3927 -0.1392  0.5383
27056SOL    HW281747   3.635   6.664   0.213  1.0027 -0.0456  1.3348
27057SOL     OW81748   9.778   6.098   0.858  0.4013 -0.5307  0.4068
27057SOL    HW181749   9.689   6.093   0.824  0.5513  2.2001 -0.7005
27057SOL    HW281750   9.768   6.107   0.952 -0.6006  0.8128  0.1977
27058SOL     OW81751   6.266   4.892   5.991 -0.5208 -0.2308 -0.4600
27058SOL    HW181752   6.306   4.976   6.014  0.6869 -0.7995 -0.3947
27058SOL    HW281753   6.183   4.915   5.949  0.5624  1.0910 -2.0237
27059SOL     OW81754   6.590   3.815   6.712 -0.3511  0.0867 -0.5958
27059SOL    HW181755   6.523   3.854   6.656  1.6450  2.5396 -1.4294
27059SOL    HW281756   6.609   3.883   6.777  1.3161 -0.5630 -0.3676
27060SOL     OW81757   1.214   2.608   2.747 -0.2610  0.4600  0.0725
27060SOL    HW181758   1.273   2.677   2.776  1.2150 -0.2670 -1.1018
27060SOL    HW281759   1.230   2.535   2.807  0.9748 -0.1633 -0.9638
27061SOL     OW81760   7.388   3.265   9.532  0.3186 -0.4495 -0.0120
27061SOL    HW181761   7.429   3.185   9.565 -0.2208 -1.2255 -1.1737
27061SOL    HW281762   7.462   3.322   9.511  0.7506 -1.0823 -0.2470
27062SOL     OW81763   7.786   8.438   0.187  0.5084 -0.4492  0.2071
27062SOL    HW181764   7.825   8.461   0.272  2.2077  1.0083 -0.8952
27062SOL    HW281765   7.789   8.342   0.185  1.4228 -0.4692  1.3467
27063SOL     OW81766   5.619   5.477   1.003 -0.3484 -0.0683 -0.5276
27063SOL    HW181767   5.644   5.550   1.059 -2.5091 -0.1255  0.6089
27063SOL    HW281768   5.685   5.476   0.933  1.5039  0.9946  1.1282
27064SOL     OW81769   1.876   3.479   0.062  0.3409  0.4393 -0.2835
27064SOL    HW181770   1.919   3.516  -0.016  1.8385 -0.2456  0.1842
27064SOL    HW281771   1.804   3.427   0.027  0.4999  0.7963 -1.1702
27065SOL     OW81772   3.744   2.815   4.306  0.1960 -0.2314 -0.0281
27065SOL    HW181773   3.674   2.752   4.285  0.5695 -0.5473 -0.3604
27065SOL    HW281774   3.722   2.892   4.254  0.0147 -0.2737 -0.0180
27066SOL     OW81775   5.423   1.717   0.729 -0.0979  0.0762 -0.3176
27066SOL    HW181776   5.433   1.765   0.811 -0.9516  1.4307 -0.9526
27066SOL    HW281777   5.343   1.754   0.690  0.0084 -0.8998 -1.5124
27067SOL     OW81778   6.953   0.226   4.285 -0.1153  0.3168 -0.3778
27067SOL    HW181779   7.045   0.213   4.309 -0.8920 -2.6694  1.6116
27067SOL    HW281780   6.937   0.162   4.215 -1.0672 -0.6630  0.6759
27068SOL     OW81781   4.285   5.360   3.243 -0.0002 -0.2942 -0.5727
27068SOL    HW181782   4.261   5.345   3.151  0.2632 -1.5964 -0.4463
27068SOL    HW281783   4.380   5.352   3.245  0.0996  0.8066 -0.3601
27069SOL     OW81784   6.486   1.207   3.865 -0.4707  0.0416 -0.2626
27069SOL    HW181785   6.439   1.186   3.946 -0.3448  0.2609 -0.1307
27069SOL    HW281786   6.503   1.301   3.871  1.8966 -0.3706  0.7344
27070SOL     OW81787   8.416   3.394   3.257  0.7988 -0.0123  0.1265
27070SOL    HW181788   8.447   3.309   3.288  1.2069  0.4159  0.9284
27070SOL    HW281789   8.352   3.373   3.189  1.7497 -0.9276 -0.5037
27071SOL     OW81790   1.064   8.998   6.547 -0.1733 -0.2732  0.5024
27071SOL    HW181791   0.982   9.044   6.567  0.1173  0.0115  1.0905
27071SOL    HW281792   1.130   9.044   6.600  0.8033  0.9996 -1.6971
27072SOL     OW81793   5.444   1.215   9.352  0.1741  0.1813 -0.0035
27072SOL    HW181794   5.478   1.207   9.441 -1.5277  0.5082  0.7059
27072SOL    HW281795   5.370   1.154   9.349 -0.3678  0.8533 -0.9034
27073SOL     OW81796   6.608   0.502   2.661  0.6650 -0.0982  0.5596
27073SOL    HW181797   6.544   0.435   2.636 -0.4296  0.9253  0.5296
27073SOL    HW281798   6.611   0.499   2.757  0.5845 -0.1586  0.5595
27074SOL     OW81799   4.202   8.752   1.621 -0.0387 -0.3587 -0.2211
27074SOL    HW181800   4.243   8.668   1.641  2.4575 -0.0778 -3.3771
27074SOL    HW281801   4.268   8.818   1.647 -0.2621  0.3667 -1.4372
27075SOL     OW81802   9.494   6.569   2.272 -0.1124  0.2028 -0.9339
27075SOL    HW181803   9.441   6.609   2.203 -2.4819 -0.8735  0.1197
27075SOL    HW281804   9.434   6.561   2.346  1.4166 -1.5635  0.2125
27076SOL     OW81805   4.203   2.151   4.486 -0.2997 -0.8901  0.4428
27076SOL    HW181806   4.175   2.118   4.401  0.7349 -0.1190 -0.2178
27076SOL    HW281807   4.295   2.124   4.493 -0.0319  0.0586  0.7844
27077SOL     OW81808   0.371   4.038   2.605 -0.0813 -0.4989  0.0292
27077SOL    HW181809   0.412   4.092   2.537  0.3470  0.3035  0.9007
27077SOL    HW281810   0.287   4.011   2.567  0.4829 -0.7144 -1.1088
27078SOL     OW81811   2.952   9.403   1.715 -0.8787 -0.4979 -0.2477
27078SOL    HW181812   2.982   9.387   1.625  0.1060  1.5696 -0.3375
27078SOL    HW281813   2.951   9.498   1.723  0.0117 -0.6422  2.2583
27079SOL     OW81814   2.449   5.925   9.025  0.0981  0.6435  0.2987
27079SOL    HW181815   2.529   5.963   9.060  0.2262 -1.2811  2.3235
27079SOL    HW281816   2.387   5.926   9.098 -1.4386  1.2273 -0.9533
27080SOL     OW81817   2.725   3.952   8.606  0.1287 -0.8395  0.1798
27080SOL    HW181818   2.644   4.000   8.622  1.3089  1.1339  0.6089
27080SOL    HW281819   2.794   4.007   8.646  1.8557 -1.5975 -1.5883
27081SOL     OW81820   8.788   8.497   9.454  0.5597 -0.3898  0.0486
27081SOL    HW181821   8.783   8.425   9.391  0.9324  0.3423 -0.8385
27081SOL    HW281822   8.697   8.519   9.472  0.4223  0.4173 -1.4553
27082SOL     OW81823   6.498   4.418   4.675 -0.2064 -0.7827 -0.4430
27082SOL    HW181824   6.457   4.340   4.712 -0.4576 -0.1719  0.5865
27082SOL    HW281825   6.427   4.465   4.632 -0.0355 -1.1542 -1.1596
27083SOL     OW81826   9.779   6.475   2.850  0.5820 -0.5436 -0.5491
27083SOL    HW181827   9.822   6.436   2.926 -0.4282  0.6233  0.6596
27083SOL    HW281828   9.692   6.435   2.849  0.7431 -0.8958 -1.3892
27084SOL     OW81829   4.096   4.346   7.795  0.9545  0.4000  0.1970
27084SOL    HW181830   4.182   4.307   7.777  1.8425  1.7077  1.4378
27084SOL    HW281831   4.094   4.425   7.741  0.5269  0.3931  0.1990
27085SOL     OW81832   6.353   7.628   2.647 -0.7517 -0.2879  0.0645
27085SOL    HW181833   6.345   7.697   2.580  0.5707 -0.3421 -0.1786
27085SOL    HW281834   6.264   7.599   2.662 -1.6495  2.8809  1.6863
27086SOL     OW81835   6.598   5.366   4.918  0.0016 -0.8917  0.1412
27086SOL    HW181836   6.636   5.453   4.907 -0.6954 -0.5260  0.5734
27086SOL    HW281837   6.596   5.351   5.013  0.6871 -1.6385  0.0470
27087SOL     OW81838   5.086   8.595   8.836 -0.6152 -0.4827  0.5732
27087SOL    HW181839   5.054   8.667   8.891 -0.2856 -0.6355  0.9681
27087SOL    HW281840   5.130   8.536   8.897  2.1310  0.6388 -0.1504
27088SOL     OW81841   9.467   5.402   7.917 -0.2733 -0.0184 -0.0215
27088SOL    HW181842   9.448   5.460   7.991 -0.3311  0.5984 -0.5190
27088SOL    HW281843   9.444   5.453   7.839 -0.6368 -0.8155 -0.4567
27089SOL     OW81844   2.009   1.372   2.242  0.7956 -0.2597 -0.0068
27089SOL    HW181845   2.079   1.352   2.305  1.3453 -0.2519 -0.6023
27089SOL    HW281846   2.056   1.398   2.162  0.1181  1.7331  0.1930
27090SOL     OW81847   3.886   3.077   3.172 -0.1048  0.4486 -0.0284
27090SOL    HW181848   3.892   2.988   3.137  0.3391  0.1630  0.7565
27090SOL    HW281849   3.887   3.134   3.094 -2.0586 -0.2787 -0.6400
27091SOL     OW81850   5.966   6.666   8.327  0.3686  0.2725 -0.5972
27091SOL    HW181851   6.014   6.629   8.401  0.6077 -1.3937 -1.5186
27091SOL    HW281852   5.887   6.613   8.321  0.0947  0.7344 -1.2007
27092SOL     OW81853   8.251   2.222   3.297  0.3383 -0.4244  0.3030
27092SOL    HW181854   8.226   2.242   3.207 -0.2500 -1.3456  0.2467
27092SOL    HW281855   8.280   2.131   3.293 -0.9507 -0.9048  1.2757
27093SOL     OW81856   4.751   4.771   2.438  0.0559 -0.3849 -0.2826
27093SOL    HW181857   4.818   4.797   2.375 -0.6721  0.8390 -0.5806
27093SOL    HW281858   4.795   4.776   2.523  0.3353  0.4996 -0.4690
27094SOL     OW81859   6.440   4.113   7.827  0.3871  0.4388 -0.3564
27094SOL    HW181860   6.514   4.126   7.887  0.1071  0.2501  0.0389
27094SOL    HW281861   6.408   4.201   7.809  1.6455  0.6459 -1.7539
27095SOL     OW81862   6.521   2.472   8.824  0.1477 -0.4553 -0.4250
27095SOL    HW181863   6.574   2.496   8.748 -1.5369  0.0565 -1.4873
27095SOL    HW281864   6.555   2.387   8.851  1.3697 -0.2268 -1.1800
27096SOL     OW81865   6.538   0.944   5.065 -0.1810 -0.1135  0.2729
27096SOL    HW181866   6.591   0.982   4.996  0.4089 -0.8636  0.2953
27096SOL    HW281867   6.562   0.992   5.144  0.9409 -0.8406  0.4024
27097SOL     OW81868   0.367   2.863   3.829  0.0507 -0.1834 -0.3701
27097SOL    HW181869   0.311   2.878   3.905  0.4558 -0.3929 -0.0184
27097SOL    HW281870   0.418   2.944   3.820  0.5737 -0.4519  0.0851
27098SOL     OW81871   9.249   0.635   1.633 -0.1210  0.0391 -0.7108
27098SOL    HW181872   9.341   0.628   1.608 -0.6090  0.9629 -2.9789
27098SOL    HW281873   9.226   0.546   1.661  1.5090 -0.1408  0.2198
27099SOL     OW81874   4.097   0.504   2.761 -0.3396 -0.1726  0.1390
27099SOL    HW181875   4.082   0.410   2.768 -1.2254 -0.0781 -0.3664
27099SOL    HW281876   4.179   0.519   2.808 -1.4391 -0.8494  2.4225
27100SOL     OW81877   7.180   1.854   7.609  0.2173 -0.3682  0.5244
27100SOL    HW181878   7.160   1.801   7.532  1.2551 -0.0008 -0.0227
27100SOL    HW281879   7.126   1.933   7.598  0.4279 -0.2764  0.1152
27101SOL     OW81880   5.204   7.797   8.584 -0.4078 -0.2445  0.4339
27101SOL    HW181881   5.238   7.870   8.635  1.0132 -0.7231  0.2300
27101SOL    HW281882   5.142   7.753   8.642 -2.8249  2.1886 -0.1016
27102SOL     OW81883   1.453   7.146   1.240  0.2914  0.4081 -0.0531
27102SOL    HW181884   1.528   7.088   1.227  0.1765  0.0814  0.6887
27102SOL    HW281885   1.491   7.234   1.245  0.5916  0.2755  0.0044
27103SOL     OW81886   8.629   2.737   9.053  0.7324  0.1912 -0.7134
27103SOL    HW181887   8.587   2.654   9.029  1.9344  0.0236 -2.4499
27103SOL    HW281888   8.714   2.712   9.089 -0.1412  0.5751  1.8701
27104SOL     OW81889   5.209   0.999   7.685 -0.3419  0.4638 -0.3069
27104SOL    HW181890   5.251   1.077   7.651  1.0018 -0.4692 -0.8741
27104SOL    HW281891   5.128   1.030   7.725 -0.0790  2.0597 -0.9736
27105SOL     OW81892   7.223   5.581   0.071  0.0475  0.5015  0.1344
27105SOL    HW181893   7.271   5.504   0.040 -0.3643  0.2130  0.2096
27105SOL    HW281894   7.268   5.606   0.152 -0.6407 -0.4840  0.8471
27106SOL     OW81895   1.794   0.430   5.431  0.1523 -0.1193 -0.6315
27106SOL    HW181896   1.776   0.403   5.521  0.4281 -1.3460 -0.9286
27106SOL    HW281897   1.753   0.362   5.377 -1.5214  1.4906 -1.4987
27107SOL     OW81898   6.372   0.192   5.320 -0.1502  0.8069  0.2117
27107SOL    HW181899   6.441   0.190   5.386 -2.3032 -1.1516  2.6246
27107SOL    HW281900   6.309   0.256   5.354 -0.9942  0.2532 -0.2776
27108SOL     OW81901   2.884   4.002   4.222 -0.2537 -0.5485  0.0732
27108SOL    HW181902   2.933   3.956   4.154 -1.6340 -1.2192 -0.5265
27108SOL    HW281903   2.844   4.076   4.177  0.2811  0.0591  0.5767
27109SOL     OW81904   5.756   0.186   7.252 -0.1590 -0.5897  0.4167
27109SOL    HW181905   5.753   0.281   7.247 -1.1360 -0.6200  0.3432
27109SOL    HW281906   5.707   0.156   7.175  0.0822 -1.1537  0.4748
27110SOL     OW81907   6.935   8.434   8.925 -0.3082  0.3690  0.4949
27110SOL    HW181908   7.024   8.435   8.888 -0.6164 -0.1113 -0.2908
27110SOL    HW281909   6.918   8.341   8.942 -0.8588  0.3975  0.1269
27111SOL     OW81910   2.893   6.452   3.564 -0.4226 -0.1924  0.2908
27111SOL    HW181911   2.988   6.469   3.562 -0.2850 -0.7719  1.3682
27111SOL    HW281912   2.882   6.386   3.632 -1.6439  0.0568  0.3485
27112SOL     OW81913   0.192   5.848   1.291 -0.2586 -0.0140  0.5380
27112SOL    HW181914   0.253   5.835   1.218 -1.3873 -0.6708 -0.3311
27112SOL    HW281915   0.108   5.863   1.249 -1.0704 -1.0825  1.7061
27113SOL     OW81916   4.748   0.364   9.155  0.6787  0.1494 -0.1133
27113SOL    HW181917   4.707   0.391   9.073  0.8053 -1.3472 -0.6787
27113SOL    HW281918   4.772   0.273   9.142  2.7791  0.5324  0.7821
27114SOL     OW81919   2.292   1.061   8.708 -0.2293  0.0534  0.1386
27114SOL    HW181920   2.280   1.073   8.614 -1.3117 -0.1889  0.2328
27114SOL    HW281921   2.348   0.983   8.716  2.0229  1.5233 -0.3353
27115SOL     OW81922   1.160   4.968   3.407 -0.2301 -0.3339 -0.1000
27115SOL    HW181923   1.190   4.886   3.368 -0.4603 -0.1534 -0.6606
27115SOL    HW281924   1.123   5.018   3.334  0.4225  0.5118  0.1385
27116SOL     OW81925   8.441   9.559   4.674  0.5733 -0.4175 -0.1113
27116SOL    HW181926   8.385   9.534   4.601  0.8757 -0.6946 -0.2515
27116SOL    HW281927   8.392   9.533   4.752  0.2950 -0.2143 -0.2184
27117SOL     OW81928   9.919   0.751   2.661  0.6692 -0.0908  0.1578
27117SOL    HW181929   9.984   0.820   2.674  0.8397 -0.3493  0.6935
27117SOL    HW281930   9.836   0.792   2.683  0.8834 -0.3457  1.5477
27118SOL     OW81931   6.281   9.842   4.540 -0.1630 -0.2073  0.4213
27118SOL    HW181932   6.270   9.937   4.532  0.4787  0.0181  1.8580
27118SOL    HW281933   6.196   9.806   4.516 -0.6049  0.7718  0.4581
27119SOL     OW81934   8.483   0.257   9.922 -0.2123  0.6441  0.3213
27119SOL    HW181935   8.458   0.172   9.958  0.7385  0.0522 -0.3568
27119SOL    HW281936   8.417   0.318   9.955 -1.1960 -0.4428  0.4107
27120SOL     OW81937   3.240   9.034   1.133 -0.3041 -0.1803 -0.2261
27120SOL    HW181938   3.251   9.058   1.041 -2.5056  0.8897 -0.2598
27120SOL    HW281939   3.252   8.939   1.134 -1.0165 -0.3175 -1.7601
27121SOL     OW81940   8.737   3.624   6.559 -0.5816  0.1410 -0.0133
27121SOL    HW181941   8.690   3.624   6.642  1.2113 -0.4020  1.0511
27121SOL    HW281942   8.767   3.715   6.549  0.6275 -0.1385  0.8231
27122SOL     OW81943   1.537   0.411   6.459 -0.1518  0.6240  0.2684
27122SOL    HW181944   1.445   0.432   6.448 -0.4756 -1.4451 -1.5324
27122SOL    HW281945   1.577   0.429   6.374  1.5690  3.1987  1.4723
27123SOL     OW81946   2.617   3.767   7.270  0.3782  0.0727  0.8972
27123SOL    HW181947   2.693   3.724   7.311  1.0182 -0.4876 -0.8038
27123SOL    HW281948   2.563   3.696   7.237  1.0862  0.4841 -1.3110
27124SOL     OW81949   4.455   0.473   3.226 -0.6276  0.5483 -0.5156
27124SOL    HW181950   4.484   0.518   3.306 -0.1343 -0.6098 -0.0127
27124SOL    HW281951   4.366   0.504   3.211 -0.7575  0.7133  0.5446
27125SOL     OW81952   9.367   0.460   6.281  0.0444  0.4266  0.5401
27125SOL    HW181953   9.411   0.542   6.300  1.3458 -0.1042 -0.0987
27125SOL    HW281954   9.364   0.414   6.365  1.3719  0.1669  0.4588
27126SOL     OW81955   1.731   2.092   2.906 -0.5851  0.0661  0.0187
27126SOL    HW181956   1.731   2.116   2.814  1.3810  0.0602 -0.0282
27126SOL    HW281957   1.665   2.149   2.946  1.4831  3.1762 -0.6623
27127SOL     OW81958   7.133   8.516   4.857  0.4643  0.3043 -0.2681
27127SOL    HW181959   7.145   8.488   4.948 -0.5738 -0.8248 -0.4514
27127SOL    HW281960   7.129   8.434   4.807 -0.3408  0.8653 -1.1495
27128SOL     OW81961   7.525   9.087   0.416 -0.1838  0.0658  0.4604
27128SOL    HW181962   7.557   9.033   0.488  1.2739  0.5255  0.1953
27128SOL    HW281963   7.565   9.172   0.430 -1.2454  0.6635  0.0327
27129SOL     OW81964   2.866   7.714   8.774  0.2696 -0.1928 -0.2347
27129SOL    HW181965   2.902   7.775   8.838  0.0535  0.2826 -0.5560
27129SOL    HW281966   2.867   7.763   8.692 -2.3062  0.3205 -0.0282
27130SOL     OW81967   1.300   6.406   3.258 -0.0493 -0.7856 -0.1436
27130SOL    HW181968   1.299   6.365   3.344  0.0401  0.7030  0.6041
27130SOL    HW281969   1.393   6.424   3.241  0.0342 -1.9276 -0.9973
27131SOL     OW81970   2.302   0.130   6.135 -0.0115  0.2381  0.5726
27131SOL    HW181971   2.277   0.155   6.046  0.2062 -0.8010  0.2044
27131SOL    HW281972   2.351   0.049   6.124  0.5474  0.4186  1.5915
27132SOL     OW81973   0.512   7.885   7.548 -0.3111 -0.0282  0.2976
27132SOL    HW181974   0.558   7.960   7.510 -0.0793 -0.6936 -0.7611
27132SOL    HW281975   0.541   7.810   7.497  0.9803 -1.1828  2.5701
27133SOL     OW81976   9.226   3.120   8.351  0.3745 -0.1083 -0.2424
27133SOL    HW181977   9.210   3.038   8.396 -0.0940 -0.8217 -1.6336
27133SOL    HW281978   9.204   3.102   8.259 -2.9622  2.3959 -0.1570
27134SOL     OW81979   4.839   0.968   3.333 -0.8634  0.3310  0.0330
27134SOL    HW181980   4.849   0.985   3.240  3.7128 -0.6859  0.0974
27134SOL    HW281981   4.904   1.025   3.375  0.1191 -2.1066  2.1144
27135SOL     OW81982   0.206   6.825   1.415 -0.2095  0.3026  0.3543
27135SOL    HW181983   0.126   6.854   1.460  0.2390  0.1325  1.2891
27135SOL    HW281984   0.236   6.750   1.467  0.6959  0.5225  0.1610
27136SOL     OW81985   4.012   5.911   1.058  0.3330 -0.2577 -0.2522
27136SOL    HW181986   3.951   5.866   0.999 -0.6388 -0.0403  0.5696
27136SOL    HW281987   4.019   6.000   1.023 -1.2353  0.2544  0.6430
27137SOL     OW81988   6.362   3.011   8.945 -0.3947  0.0194  0.5497
27137SOL    HW181989   6.315   2.940   8.989  0.0968 -0.1924  0.7425
27137SOL    HW281990   6.373   2.981   8.855  0.8164 -0.6783  0.8951
27138SOL     OW81991   1.751   8.655   2.985 -0.5876  0.0207  0.3574
27138SOL    HW181992   1.821   8.674   3.047  0.1711 -2.0427  0.2107
27138SOL    HW281993   1.762   8.562   2.963 -2.2109  0.1149 -1.1384
27139SOL     OW81994   2.275   4.178   0.613  0.2423 -0.0284  0.4063
27139SOL    HW181995   2.366   4.167   0.642  0.2481 -0.4531  0.2308
27139SOL    HW281996   2.261   4.272   0.615  1.6047  0.3312 -2.3940
27140SOL     OW81997   4.641   0.535   5.254  0.1550  0.3048 -0.2788
27140SOL    HW181998   4.562   0.548   5.306  0.6063 -0.7371  0.7356
27140SOL    HW281999   4.627   0.585   5.174 -1.3584  0.4436  0.0511
27141SOL     OW82000   4.958   7.013   1.344 -0.7202  0.2448 -0.0499
27141SOL    HW182001   4.910   7.039   1.265  0.4771 -2.1240 -1.6934
27141SOL    HW282002   5.032   7.073   1.347 -1.4399  1.1564  0.0226
27142SOL     OW82003   5.901   9.419   9.846  0.1968 -0.4566 -0.0240
27142SOL    HW182004   5.855   9.393   9.926 -2.5581 -2.6236 -2.1346
27142SOL    HW282005   5.950   9.340   9.820 -0.7728 -0.5814 -1.6067
27143SOL     OW82006   0.536   0.728   1.684  0.3624 -0.0915 -0.1641
27143SOL    HW182007   0.496   0.651   1.723 -0.2763  0.2419 -0.1383
27143SOL    HW282008   0.595   0.694   1.616  0.7574 -0.6270  0.4442
27144SOL     OW82009   0.722   7.754   2.132  0.1589  0.2196  1.0312
27144SOL    HW182010   0.634   7.757   2.096  0.5835  0.0717 -0.0669
27144SOL    HW282011   0.771   7.819   2.082  0.5767  0.6012  1.9171
27145SOL     OW82012   6.205   1.499   4.533  0.1157 -0.0110 -0.0490
27145SOL    HW182013   6.121   1.492   4.579  0.0072  5.0054  1.0763
27145SOL    HW282014   6.271   1.480   4.601  0.0066 -1.5639 -0.3269
27146SOL     OW82015   7.192   9.848   7.120  0.5028 -0.3361 -0.4702
27146SOL    HW182016   7.168   9.919   7.061  0.7657 -0.0676 -0.2583
27146SOL    HW282017   7.170   9.768   7.072 -1.0256 -0.1058 -0.1750
27147SOL     OW82018   4.271   3.059   0.960 -0.3323 -0.2043 -0.0292
27147SOL    HW182019   4.196   3.089   1.011 -1.1531 -1.8671 -0.1876
27147SOL    HW282020   4.343   3.116   0.988 -1.5391  1.1749  0.4195
27148SOL     OW82021   5.063   7.214   7.931  0.0203  0.1180 -0.2824
27148SOL    HW182022   5.063   7.126   7.892  1.4741  0.4884 -1.1937
27148SOL    HW282023   5.127   7.209   8.001 -0.9364  0.0876  0.6176
27149SOL     OW82024   6.062   7.577   2.686  0.3689  0.4039 -0.3641
27149SOL    HW182025   6.022   7.607   2.768 -1.6986  1.3286 -1.6406
27149SOL    HW282026   6.042   7.484   2.682  1.3835  0.1136  0.6268
27150SOL     OW82027   8.322   5.966   2.356 -0.6559 -0.6007 -0.2699
27150SOL    HW182028   8.334   5.887   2.304 -3.2146 -0.4209 -1.2968
27150SOL    HW282029   8.311   5.934   2.446 -0.3598 -1.3014 -0.4746
27151SOL     OW82030   4.202   0.385   2.109  0.0644  0.2701  0.2811
27151SOL    HW182031   4.277   0.440   2.089  0.5719 -1.0614 -1.8151
27151SOL    HW282032   4.227   0.338   2.188  0.8538  0.8392  0.3775
27152SOL     OW82033   9.820   7.395   8.391 -0.8168 -0.2314  0.1666
27152SOL    HW182034   9.778   7.346   8.462 -0.4885  0.7926  1.1104
27152SOL    HW282035   9.768   7.475   8.383  0.3754  0.6331  0.7219
27153SOL     OW82036   9.104   4.158   7.364 -0.1474  0.0549 -0.4308
27153SOL    HW182037   9.125   4.133   7.454  0.6948  0.5378 -0.4827
27153SOL    HW282038   9.051   4.086   7.331 -2.3090  0.8243  1.1216
27154SOL     OW82039   5.194   6.523   3.015  0.0305 -0.0882  0.6063
27154SOL    HW182040   5.163   6.434   2.998 -0.8906  0.8127 -3.3221
27154SOL    HW282041   5.118   6.568   3.052 -0.7278 -0.0720 -0.8987
27155SOL     OW82042   8.218   9.822   7.575  0.1768 -0.1614 -0.6473
27155SOL    HW182043   8.134   9.825   7.621  0.1296  0.2077 -0.7525
27155SOL    HW282044   8.237   9.729   7.567  0.5373 -0.2229  0.7376
27156SOL     OW82045   9.270   2.671   7.274  0.1845 -0.0366 -0.1586
27156SOL    HW182046   9.242   2.694   7.185  1.7461 -0.5333 -0.8029
27156SOL    HW282047   9.262   2.576   7.277 -1.1452  0.0750  0.7120
27157SOL     OW82048   2.494   5.757   4.643  0.4085  0.0588 -0.2856
27157SOL    HW182049   2.520   5.695   4.711 -1.3025  0.1886  0.5396
27157SOL    HW282050   2.488   5.841   4.688  1.5015  0.6154 -1.1297
27158SOL     OW82051   5.880   5.851   9.199  0.2906 -0.1756 -0.1165
27158SOL    HW182052   5.807   5.861   9.138  0.6439  1.0281 -0.3709
27158SOL    HW282053   5.890   5.938   9.238  0.4617 -0.7814  1.2149
27159SOL     OW82054   4.317   1.586   1.287  0.8985 -0.0452  0.3059
27159SOL    HW182055   4.364   1.524   1.343  1.8525 -0.2792 -0.7124
27159SOL    HW282056   4.367   1.586   1.204  0.2860  1.2569 -0.0890
27160SOL     OW82057   6.674   1.906   4.038  0.4972  0.3813 -0.6263
27160SOL    HW182058   6.594   1.957   4.025 -0.2140 -0.5263  0.1117
27160SOL    HW282059   6.657   1.853   4.115  1.9738  0.4649 -0.2062
27161SOL     OW82060   6.967   1.799   8.761  0.0050 -0.0687  0.4579
27161SOL    HW182061   7.049   1.849   8.763  0.3350 -0.6367  2.3400
27161SOL    HW282062   6.995   1.707   8.758 -0.5790 -0.2377  0.0426
27162SOL     OW82063   4.800   8.967   3.649  0.1340  0.1060 -0.5828
27162SOL    HW182064   4.724   8.972   3.708  1.3379 -1.1767  1.2082
27162SOL    HW282065   4.855   9.041   3.675 -0.1948  0.6325 -1.3963
27163SOL     OW82066   5.040   5.209   9.127 -0.6502 -0.0608 -0.1443
27163SOL    HW182067   5.090   5.257   9.061 -0.0773  0.6439  0.7815
27163SOL    HW282068   5.091   5.129   9.141  0.3887  0.7544  0.9591
27164SOL     OW82069   2.481   2.212   9.787  0.2597 -0.1139 -0.1096
27164SOL    HW182070   2.402   2.261   9.809 -0.7923 -1.1978 -1.2638
27164SOL    HW282071   2.492   2.227   9.693  1.7045  0.3773  0.1161
27165SOL     OW82072   4.109   4.475   8.907  0.1592  0.1656 -1.0498
27165SOL    HW182073   4.021   4.491   8.874  0.1605  0.8931 -0.7219
27165SOL    HW282074   4.166   4.523   8.847  0.2821  0.1925 -0.9110
27166SOL     OW82075   1.948   8.046   9.007  0.4669  0.0622  0.0720
27166SOL    HW182076   2.019   8.019   9.065 -0.8380 -0.4983  1.4990
27166SOL    HW282077   1.876   8.066   9.066 -0.8967 -0.3893 -1.3646
27167SOL     OW82078   0.291   7.036   5.985 -0.0384 -0.1913 -0.3685
27167SOL    HW182079   0.255   7.015   5.899  0.8729 -1.7145 -0.4259
27167SOL    HW282080   0.291   6.953   6.031  0.2981  0.4398  0.7984
27168SOL     OW82081   9.779   0.867   5.745  0.4161  0.4782 -0.1114
27168SOL    HW182082   9.709   0.916   5.703  0.4917  0.0044 -0.8013
27168SOL    HW282083   9.751   0.775   5.740  0.3604  0.4170  0.9986
27169SOL     OW82084   3.925   3.854   0.421 -0.1821  0.2017  0.3074
27169SOL    HW182085   3.856   3.856   0.355  0.4470  1.1276 -0.3391
27169SOL    HW282086   3.884   3.888   0.500  0.0423  2.7892 -0.6145
27170SOL     OW82087   7.363   9.559   9.885 -0.1626 -0.0304 -0.1948
27170SOL    HW182088   7.447   9.517   9.866  1.6479  3.0928  0.2509
27170SOL    HW282089   7.313   9.551   9.804  0.4728 -2.0170 -0.4504
27171SOL     OW82090   3.986   4.776   9.482 -0.4715  1.1091 -0.3107
27171SOL    HW182091   3.992   4.867   9.511 -0.4856  0.1123  3.2470
27171SOL    HW282092   3.895   4.751   9.498 -0.3239  0.3051 -0.6646
27172SOL     OW82093   3.403   9.953   0.248 -0.0708 -0.1134 -0.1370
27172SOL    HW182094   3.475   9.985   0.302 -0.4033 -0.6480  0.6489
27172SOL    HW282095   3.429   9.974   0.159 -0.2520  2.3230  0.3037
27173SOL     OW82096   3.137   1.534   6.156 -0.2462  0.4515 -0.1705
27173SOL    HW182097   3.119   1.487   6.238  0.4721  0.6020  0.0815
27173SOL    HW282098   3.198   1.603   6.181  0.8617 -0.1765 -1.0058
27174SOL     OW82099   2.902   2.679   9.705  0.2009  0.1182 -0.0514
27174SOL    HW182100   2.835   2.617   9.732 -0.6139  0.9321 -0.1604
27174SOL    HW282101   2.945   2.704   9.787 -0.8872  0.9997  0.2848
27175SOL     OW82102   5.572   8.239   9.892 -0.0504  0.2479  0.1684
27175SOL    HW182103   5.507   8.195   9.948  0.8224 -0.2649  0.8025
27175SOL    HW282104   5.531   8.242   9.806  0.3847 -3.2005 -0.3028
27176SOL     OW82105   8.021   6.032   3.193  0.3740 -0.2885 -0.1033
27176SOL    HW182106   8.018   5.978   3.114  1.3957 -0.5426  0.0179
27176SOL    HW282107   8.010   5.970   3.265  0.4805 -0.1992 -0.0090
27177SOL     OW82108   1.170   5.321   8.875 -0.4176  0.2854  0.1858
27177SOL    HW182109   1.108   5.255   8.906  0.3051 -0.4403  0.1240
27177SOL    HW282110   1.251   5.302   8.922 -0.0218  0.7397 -0.2954
27178SOL     OW82111   5.133   0.046   9.119  0.3952 -0.8188 -0.3562
27178SOL    HW182112   5.142   0.050   9.214 -1.1277  0.8973 -0.2290
27178SOL    HW282113   5.186   0.118   9.086 -0.2869 -0.4529 -0.6772
27179SOL     OW82114   1.265   3.796   6.207  0.1357  0.1731  0.1755
27179SOL    HW182115   1.266   3.848   6.288 -0.4277  0.6970 -0.1461
27179SOL    HW282116   1.326   3.724   6.224 -1.7767 -1.1407  1.9893
27180SOL     OW82117   8.655   4.133   6.457  0.0856  0.0981 -0.1191
27180SOL    HW182118   8.570   4.095   6.434  0.4996 -1.4752  0.8235
27180SOL    HW282119   8.709   4.118   6.379 -0.1433 -0.0324 -0.2558
27181SOL     OW82120   9.117   8.242   5.995 -0.0988  0.0476 -0.6881
27181SOL    HW182121   9.048   8.301   6.023 -0.8226 -0.7968 -0.6573
27181SOL    HW282122   9.105   8.233   5.901 -1.1451 -1.4528 -0.4503
27182SOL     OW82123   8.775   3.429   3.436  0.2935 -0.3830 -0.1824
27182SOL    HW182124   8.726   3.511   3.447  0.4924 -0.4501  1.3052
27182SOL    HW282125   8.866   3.457   3.422  0.1265 -0.3192 -1.2448
27183SOL     OW82126   6.357   3.368   0.539 -0.4841  0.2098 -0.0859
27183SOL    HW182127   6.362   3.456   0.575  1.3224 -0.0299  0.3203
27183SOL    HW282128   6.383   3.311   0.611 -1.1018 -0.6394 -0.5088
27184SOL     OW82129   8.265   0.319   9.467  0.0726 -0.8796 -0.4785
27184SOL    HW182130   8.194   0.294   9.527 -1.8337  3.3674 -0.5965
27184SOL    HW282131   8.231   0.299   9.380 -1.6090  1.9335 -0.5999
27185SOL     OW82132   2.216   8.509   5.959 -0.2492  0.1087 -0.3246
27185SOL    HW182133   2.259   8.475   5.880 -1.1000 -1.6211 -0.0840
27185SOL    HW282134   2.288   8.542   6.013  0.6929 -1.6451 -0.4313
27186SOL     OW82135   4.827   7.589   3.180  0.1146  0.0041 -0.0467
27186SOL    HW182136   4.902   7.633   3.219  0.4511 -1.0679  0.5451
27186SOL    HW282137   4.795   7.531   3.248 -0.0865 -0.9473 -0.9292
27187SOL     OW82138   6.889   6.674   0.765  0.5854  0.1251  0.4932
27187SOL    HW182139   6.863   6.764   0.784 -1.4336  0.0382 -1.3238
27187SOL    HW282140   6.820   6.642   0.706  1.3677 -2.5337  0.8890
27188SOL     OW82141   2.562   5.633   2.532  0.1911 -0.6779 -0.5513
27188SOL    HW182142   2.562   5.706   2.594  0.2430 -0.9851 -0.1907
27188SOL    HW282143   2.529   5.671   2.451  0.6775 -0.1327 -0.5038
27189SOL     OW82144   7.082   6.728   0.376  0.2316 -0.5847  0.1849
27189SOL    HW182145   7.153   6.709   0.316 -0.7682 -1.3508 -0.8110
27189SOL    HW282146   7.118   6.711   0.463  1.5644  0.1045 -0.2079
27190SOL     OW82147   6.473   7.043   5.773 -0.0276  0.1931  0.7377
27190SOL    HW182148   6.531   6.985   5.722  0.8374  0.6827  1.1435
27190SOL    HW282149   6.401   6.986   5.800 -0.9760  0.0842 -1.6993
27191SOL     OW82150   3.398   9.396   8.076 -0.1290  0.0879  0.0216
27191SOL    HW182151   3.455   9.322   8.058 -1.3977 -0.6386 -1.1598
27191SOL    HW282152   3.455   9.473   8.069  0.5950 -0.5622 -1.8691
27192SOL     OW82153   0.184   2.196   5.599 -0.2005 -0.6600  0.1679
27192SOL    HW182154   0.270   2.158   5.582 -0.3346 -0.3934 -1.1869
27192SOL    HW282155   0.148   2.142   5.669  1.7889  0.3806  2.0966
27193SOL     OW82156   5.494   9.353   6.773 -0.3737 -0.4660 -0.2686
27193SOL    HW182157   5.589   9.370   6.769 -0.5188  0.2081 -2.9353
27193SOL    HW282158   5.487   9.258   6.782  0.5627 -0.5400 -0.2160
27194SOL     OW82159   3.220   7.352   8.864  0.4095 -0.7386  0.3018
27194SOL    HW182160   3.134   7.331   8.901  0.5494 -0.9274  0.5220
27194SOL    HW282161   3.242   7.437   8.904 -0.2697 -0.0230 -0.7860
27195SOL     OW82162   1.195   2.486   2.086 -0.6833  0.1775 -0.0835
27195SOL    HW182163   1.133   2.539   2.136 -1.0248  0.1593 -0.4792
27195SOL    HW282164   1.162   2.488   1.996  1.2520  2.2402 -0.8403
27196SOL     OW82165   5.343   8.103   1.706  0.3019  0.3216  0.3515
27196SOL    HW182166   5.410   8.035   1.699  0.2975  0.4486 -1.6842
27196SOL    HW282167   5.331   8.116   1.800  1.5131 -1.2840  0.7715
27197SOL     OW82168   2.596   5.871   1.803 -0.1299 -0.4245  0.1990
27197SOL    HW182169   2.585   5.955   1.848  0.4875 -0.9101  1.2869
27197SOL    HW282170   2.658   5.889   1.732  1.4673 -0.3447  1.5725
27198SOL     OW82171   6.235   8.884   0.619 -0.2104 -0.8521  1.2422
27198SOL    HW182172   6.153   8.848   0.651 -0.9431  0.1109  0.5150
27198SOL    HW282173   6.213   8.974   0.594  1.1777 -0.4179  1.4883
27199SOL     OW82174   8.207   2.574   0.656 -0.6226  0.3293  0.4033
27199SOL    HW182175   8.153   2.653   0.653 -3.4817 -1.4549  0.3129
27199SOL    HW282176   8.224   2.552   0.564 -3.0755 -1.0556  0.1792
27200SOL     OW82177   6.342   9.215   8.006 -0.1884  0.9832  0.3828
27200SOL    HW182178   6.305   9.287   7.955 -0.3298  0.5989 -0.0667
27200SOL    HW282179   6.437   9.223   7.994 -0.2487  0.5309 -0.4530
27201SOL     OW82180   0.716   8.571   2.990 -0.1356  0.4038 -0.4034
27201SOL    HW182181   0.756   8.639   3.045 -0.6861  0.5474 -0.1720
27201SOL    HW282182   0.790   8.524   2.952  0.5126 -2.8949  4.1934
27202SOL     OW82183   4.287   1.321   9.127 -0.3137  0.7060 -0.0874
27202SOL    HW182184   4.341   1.397   9.149 -0.1427  0.9799 -1.3805
27202SOL    HW282185   4.349   1.250   9.116 -0.4563  0.4042  0.9008
27203SOL     OW82186   1.039   5.911   2.438 -0.1169  0.3922 -0.0615
27203SOL    HW182187   1.085   5.827   2.438 -2.6301 -1.0966 -0.8610
27203SOL    HW282188   0.997   5.915   2.352 -2.3094  1.0701  0.9550
27204SOL     OW82189   3.285   3.301   8.934  0.1808  0.1943 -0.1508
27204SOL    HW182190   3.212   3.359   8.955 -0.0050  0.0402 -0.3747
27204SOL    HW282191   3.360   3.360   8.922 -0.1493  0.4472 -1.0493
27205SOL     OW82192   1.376   6.358   7.149  0.3415 -0.1856  0.0334
27205SOL    HW182193   1.468   6.380   7.164  0.1809  0.9417 -0.5578
27205SOL    HW282194   1.341   6.432   7.099 -0.8554 -0.6623  0.1302
27206SOL     OW82195   8.820   2.018   7.569  0.2377  0.0592  0.1526
27206SOL    HW182196   8.844   2.012   7.661  2.0321  1.1946 -0.2036
27206SOL    HW282197   8.896   1.984   7.521  0.5382  2.1653 -0.9690
27207SOL     OW82198   8.956   6.572   8.738 -0.4951 -0.0226 -0.6516
27207SOL    HW182199   8.862   6.583   8.725 -0.6418  0.5331  0.6760
27207SOL    HW282200   8.987   6.659   8.762  0.2259 -0.3428 -0.3780
27208SOL     OW82201   2.841   9.302   0.830  0.0146 -0.6460 -0.2844
27208SOL    HW182202   2.847   9.397   0.826 -0.7694 -0.5648  0.2963
27208SOL    HW282203   2.842   9.281   0.923 -0.6862 -1.1357 -0.3805
27209SOL     OW82204   7.739   4.880   1.662 -0.3778  0.0131  0.6689
27209SOL    HW182205   7.768   4.912   1.577 -0.2217  0.3281  0.8424
27209SOL    HW282206   7.739   4.957   1.719  0.3628 -0.3575  1.1843
27210SOL     OW82207   6.347   6.611   8.221  0.2438 -0.2429 -0.6293
27210SOL    HW182208   6.441   6.627   8.229 -0.0223  0.4249  1.7376
27210SOL    HW282209   6.322   6.568   8.302 -1.2730 -1.7805 -1.8290
27211SOL     OW82210   8.685   8.287   5.533 -0.4135  0.1669  0.4248
27211SOL    HW182211   8.747   8.355   5.506 -0.6688 -0.1531 -1.0591
27211SOL    HW282212   8.740   8.216   5.565  0.0477 -0.2866 -1.2861
27212SOL     OW82213   1.135   2.702   8.092 -0.9592 -0.7410  0.3958
27212SOL    HW182214   1.122   2.774   8.153  1.8940 -1.8787  2.6025
27212SOL    HW282215   1.217   2.724   8.047  0.6030 -2.9334  1.9232
27213SOL     OW82216   2.423   0.362   6.601 -0.0836  0.4328 -0.1099
27213SOL    HW182217   2.401   0.376   6.693 -1.2203  1.3722 -0.5050
27213SOL    HW282218   2.453   0.271   6.597  2.9961  1.2397  1.7110
27214SOL     OW82219   7.387   5.074   5.364 -0.1277  0.4016  0.0570
27214SOL    HW182220   7.378   4.997   5.422  1.8780  1.7158  2.3146
27214SOL    HW282221   7.481   5.087   5.357 -0.3984  1.7337 -1.6400
27215SOL     OW82222   4.673   7.119   7.582 -0.2819  0.4539 -0.1702
27215SOL    HW182223   4.688   7.029   7.555  0.1959 -0.0936  1.7832
27215SOL    HW282224   4.758   7.162   7.571 -0.2192  0.3694 -0.0135
27216SOL     OW82225   9.717   2.625   8.017 -0.1103  0.3861 -0.2362
27216SOL    HW182226   9.637   2.602   7.972 -0.1416  1.0415 -0.5302
27216SOL    HW282227   9.758   2.541   8.038 -0.9245  0.0441  0.0276
27217SOL     OW82228   0.123   9.152   1.894  0.2964  0.1881  0.2562
27217SOL    HW182229   0.158   9.241   1.890 -0.3357  0.5345  1.9363
27217SOL    HW282230   0.186   9.104   1.947  0.6654 -0.4201 -0.6907
27218SOL     OW82231   1.989   8.459   1.340  1.0496 -0.6523 -0.2027
27218SOL    HW182232   1.922   8.399   1.372  0.7523  0.2583  0.9420
27218SOL    HW282233   2.002   8.434   1.249  0.5399 -2.0859  0.0855
27219SOL     OW82234   6.017   8.092   9.499  0.4881 -0.3517 -0.6025
27219SOL    HW182235   5.986   8.030   9.433  3.3843 -0.2773 -2.1955
27219SOL    HW282236   5.943   8.103   9.558 -1.1196 -3.0111 -1.9359
27220SOL     OW82237   7.401   7.413   8.119 -0.2433 -0.1160 -0.3305
27220SOL    HW182238   7.434   7.335   8.164 -1.2425  1.1316  2.9026
27220SOL    HW282239   7.307   7.414   8.139 -0.2947  1.7582 -0.4728
27221SOL     OW82240   3.008   9.695   1.045 -0.0352  0.1502  0.4391
27221SOL    HW182241   2.965   9.639   0.980 -0.3014  0.4261  0.3745
27221SOL    HW282242   2.936   9.743   1.086  0.0451 -0.6771  1.5611
27222SOL     OW82243   5.412   7.323   6.571  0.3295  0.2969  0.2327
27222SOL    HW182244   5.411   7.358   6.482  1.0217  0.2873  0.2117
27222SOL    HW282245   5.323   7.336   6.604  0.0341  0.1607 -0.5134
27223SOL     OW82246   9.439   4.424   4.386 -0.1903 -0.0075 -0.4185
27223SOL    HW182247   9.514   4.480   4.368 -0.9838  0.7367 -1.6003
27223SOL    HW282248   9.389   4.470   4.453  0.1565 -0.2766  0.0308
27224SOL     OW82249   8.018   7.818   5.857 -0.4671 -0.0167  0.4168
27224SOL    HW182250   8.092   7.762   5.832 -1.2083 -0.1611 -1.5802
27224SOL    HW282251   7.950   7.757   5.884 -1.4174 -0.1826 -2.1464
27225SOL     OW82252   9.745   2.142   5.447  0.1014  0.0977 -0.1560
27225SOL    HW182253   9.760   2.063   5.499 -0.7697 -0.7349 -1.1224
27225SOL    HW282254   9.710   2.205   5.509 -2.2720 -1.3159  0.0945
27226SOL     OW82255   6.248   5.727   1.854 -0.3167 -0.7274  0.4868
27226SOL    HW182256   6.266   5.638   1.884  0.6638 -0.9336 -0.6422
27226SOL    HW282257   6.302   5.782   1.910  1.0093 -1.0582 -0.4211
27227SOL     OW82258   7.315   4.880   2.133 -0.4311 -1.0235 -0.2349
27227SOL    HW182259   7.326   4.975   2.135  2.2451 -1.2593  0.6498
27227SOL    HW282260   7.242   4.865   2.073 -1.0780  1.5781 -0.2192
27228SOL     OW82261   4.229   6.538   1.811  0.1534 -0.1879 -0.0843
27228SOL    HW182262   4.152   6.515   1.760  0.1357 -1.3415  0.4291
27228SOL    HW282263   4.301   6.493   1.767 -0.1560 -3.0792  2.0536
27229SOL     OW82264   5.763   0.671   8.259 -0.5604 -0.5409 -0.0209
27229SOL    HW182265   5.803   0.610   8.197 -1.1838 -0.7515 -0.2290
27229SOL    HW282266   5.837   0.712   8.305 -0.0892 -0.3519 -0.9282
27230SOL     OW82267   4.123   7.294   4.761  0.1563 -0.2716 -0.1933
27230SOL    HW182268   4.215   7.312   4.782 -0.0257  0.8218 -0.2533
27230SOL    HW282269   4.105   7.209   4.802  0.8110  0.1545  1.0431
27231SOL     OW82270   7.127   5.804   2.784 -0.1542  0.0006 -0.0997
27231SOL    HW182271   7.161   5.722   2.819 -1.3395 -0.0286  1.0882
27231SOL    HW282272   7.047   5.779   2.738  0.2820  0.3144 -1.0531
27232SOL     OW82273   3.376   7.819   2.810 -0.5960  0.8767 -0.4721
27232SOL    HW182274   3.426   7.883   2.759 -0.2820  0.8570 -0.1977
27232SOL    HW282275   3.300   7.868   2.841 -1.2101  0.6729 -1.6172
27233SOL     OW82276   0.276   1.362   9.798 -0.3463 -0.1272 -0.1187
27233SOL    HW182277   0.197   1.416   9.789  0.4815  1.1058 -0.1516
27233SOL    HW282278   0.347   1.418   9.769  0.6745 -0.8662  0.8741
27234SOL     OW82279   3.332   5.394   2.093  0.7066  1.0521  0.2575
27234SOL    HW182280   3.318   5.299   2.094 -3.0043  1.4485  1.3777
27234SOL    HW282281   3.425   5.404   2.074  1.2227 -2.7793 -0.1027
27235SOL     OW82282   9.077   5.917   0.363 -0.1479  0.9646  0.7294
27235SOL    HW182283   9.134   5.846   0.333  0.0364  0.6313  1.7927
27235SOL    HW282284   9.034   5.949   0.284  0.0056 -0.1213  0.1868
27236SOL     OW82285   1.002   6.259   3.013  0.5413  0.0409 -0.4050
27236SOL    HW182286   1.036   6.300   2.933  2.0855 -1.9165 -0.8525
27236SOL    HW282287   1.080   6.228   3.059 -0.3403  0.7926  1.7254
27237SOL     OW82288   5.121   0.631   7.715 -0.1180  0.4093  0.1655
27237SOL    HW182289   5.196   0.673   7.757 -1.4472  1.1586  1.8939
27237SOL    HW282290   5.142   0.633   7.622  1.1840  2.2689  0.4442
27238SOL     OW82291   6.827   8.928   4.307 -0.2766 -0.0690 -0.1740
27238SOL    HW182292   6.749   8.938   4.361 -1.4746 -1.2646 -1.5815
27238SOL    HW282293   6.806   8.855   4.248  2.1247 -0.7737 -0.2388
27239SOL     OW82294   0.654   1.335   5.866  0.1600 -0.2429  0.2429
27239SOL    HW182295   0.623   1.327   5.956  0.9260  1.0172  0.6312
27239SOL    HW282296   0.610   1.413   5.832  1.0662  0.1901  0.0350
27240SOL     OW82297   6.145   6.709   6.557 -0.7655 -0.3153  0.2077
27240SOL    HW182298   6.095   6.791   6.555 -1.5815 -0.8198 -0.4827
27240SOL    HW282299   6.085   6.643   6.523  0.6403 -0.7979 -1.4691
27241SOL     OW82300   4.720   1.926   5.169  0.7699  0.1642  0.1512
27241SOL    HW182301   4.791   1.909   5.232  0.5312 -2.7313 -0.1975
27241SOL    HW282302   4.640   1.919   5.221  0.6502  0.9702  0.0874
27242SOL     OW82303   3.197   7.071   0.355 -0.3091  0.0792 -0.5639
27242SOL    HW182304   3.199   6.983   0.391 -2.7507 -0.1772 -0.9135
27242SOL    HW282305   3.202   7.060   0.260 -0.4560  0.3198 -0.6027
27243SOL     OW82306   6.916   6.226   9.318  0.0050  0.5815 -0.4342
27243SOL    HW182307   6.903   6.182   9.402 -0.2283 -0.7059 -1.1267
27243SOL    HW282308   7.011   6.231   9.309  0.0540 -0.9324 -0.9201
27244SOL     OW82309   8.424   2.621   3.413  0.4599  0.2823 -0.3111
27244SOL    HW182310   8.346   2.600   3.361  0.2573 -0.4224  0.2625
27244SOL    HW282311   8.472   2.539   3.419  0.6013  0.4106  0.3983
27245SOL     OW82312   7.769   3.305   9.961 -0.0636 -0.0530 -0.2258
27245SOL    HW182313   7.721   3.376  10.004  1.1372  0.6856 -0.0522
27245SOL    HW282314   7.851   3.346   9.934  0.5083 -1.3093 -0.4216
27246SOL     OW82315   4.214   9.188   5.957  0.5878 -0.2182 -0.1795
27246SOL    HW182316   4.157   9.125   5.913 -0.8199 -0.3472  1.7199
27246SOL    HW282317   4.206   9.268   5.906 -0.0070 -0.6975 -0.8610
27247SOL     OW82318   5.445   0.299   1.601  0.1153  0.0579 -0.4473
27247SOL    HW182319   5.461   0.282   1.509 -0.4986  1.0133 -0.7470
27247SOL    HW282320   5.438   0.395   1.607 -1.5386 -0.0708  0.2887
27248SOL     OW82321   5.152   5.076   8.127 -0.5681 -0.7540 -0.7385
27248SOL    HW182322   5.132   5.125   8.207 -1.3564  1.2604 -2.1005
27248SOL    HW282323   5.211   5.134   8.078 -0.5289 -1.7279 -1.8690
27249SOL     OW82324   2.096   1.364   5.813 -0.1690  0.7719  0.2413
27249SOL    HW182325   2.126   1.418   5.886  0.3555 -1.5260  1.8343
27249SOL    HW282326   2.022   1.315   5.848  0.0554 -0.3387 -0.7705
27250SOL     OW82327   5.140   7.693   3.302 -0.1533 -0.1647  0.0431
27250SOL    HW182328   5.148   7.755   3.229  1.8875 -0.2081  0.1669
27250SOL    HW282329   5.157   7.607   3.263 -0.0420 -0.3075  0.4021
27251SOL     OW82330   1.637   2.493   8.341  0.1245  0.4607 -0.0692
27251SOL    HW182331   1.574   2.510   8.271 -0.3044 -0.0779  0.1764
27251SOL    HW282332   1.597   2.533   8.419  0.2913  0.4873  0.0037
27252SOL     OW82333   3.908   8.368   9.615 -0.3798 -0.2703  0.2209
27252SOL    HW182334   3.935   8.278   9.637  1.3358  0.2654  0.4363
27252SOL    HW282335   3.882   8.407   9.698 -2.3543 -0.9175 -0.0460
27253SOL     OW82336   6.379   0.680   7.817  1.1043 -0.5329 -0.4472
27253SOL    HW182337   6.424   0.763   7.801  2.1795 -0.8126  0.9728
27253SOL    HW282338   6.332   0.662   7.736  0.9152  1.4182 -0.8212
27254SOL     OW82339   3.973   4.748   7.412 -0.2290  0.0967 -0.1636
27254SOL    HW182340   4.046   4.763   7.472 -1.0156 -1.1955  1.1841
27254SOL    HW282341   3.909   4.700   7.464 -1.6511  0.3644 -1.5891
27255SOL     OW82342   9.651   5.842   0.014 -0.1121 -0.3989 -0.5212
27255SOL    HW182343   9.719   5.906   0.035 -0.6776  0.1327 -0.2577
27255SOL    HW282344   9.569   5.888   0.033 -0.5363 -1.1199 -0.5720
27256SOL     OW82345   7.768   4.937   9.230  0.3826  0.3158  0.0911
27256SOL    HW182346   7.783   4.997   9.157  1.1215  0.7890  0.6148
27256SOL    HW282347   7.705   4.873   9.197  0.5244  0.6657 -0.8732
27257SOL     OW82348   8.677   8.351   9.231 -0.3255 -0.1245  0.1133
27257SOL    HW182349   8.719   8.386   9.153 -0.1559 -1.2395 -0.3124
27257SOL    HW282350   8.596   8.401   9.240 -0.0814  0.3797 -0.4539
27258SOL     OW82351   9.748   0.345   2.378  0.0819  0.0940  0.1459
27258SOL    HW182352   9.811   0.397   2.328 -0.7230  1.9572  0.9618
27258SOL    HW282353   9.668   0.346   2.324  0.1210 -0.4537  0.0794
27259SOL     OW82354   5.385   0.016   4.431  0.6759  0.0047  0.3690
27259SOL    HW182355   5.373   0.017   4.526  1.3600  2.3082  0.4962
27259SOL    HW282356   5.436   0.095   4.413  1.2257 -0.7913 -1.8482
27260SOL     OW82357   6.739   7.687   3.661 -0.2257 -0.0384 -0.4703
27260SOL    HW182358   6.728   7.654   3.750  0.0845  0.3937 -0.2673
27260SOL    HW282359   6.818   7.742   3.665 -0.2854  0.0954 -0.9791
27261SOL     OW82360   9.035   3.836   0.442  0.6190 -0.1639 -0.3347
27261SOL    HW182361   8.977   3.808   0.371  0.5010 -0.0451 -0.2830
27261SOL    HW282362   9.072   3.754   0.476 -1.4635 -0.4889  1.3430
27262SOL     OW82363   0.824   6.234   0.248  0.1090 -0.4474 -0.3527
27262SOL    HW182364   0.825   6.142   0.275  2.3968  0.3696  2.8995
27262SOL    HW282365   0.883   6.237   0.172 -0.2945 -1.6828 -0.7400
27263SOL     OW82366   3.604   0.895   2.207  0.2997 -0.0647  0.7943
27263SOL    HW182367   3.658   0.967   2.175  0.8537 -0.0525  1.7167
27263SOL    HW282368   3.636   0.818   2.161  0.6221  0.0610  0.8050
27264SOL     OW82369   7.476   4.111   2.382 -0.3375  0.5834  0.1452
27264SOL    HW182370   7.410   4.178   2.397 -1.2612 -0.0866 -0.8421
27264SOL    HW282371   7.547   4.158   2.337 -0.5165  1.1129  0.4007
27265SOL     OW82372   5.697   2.106   0.637 -0.7668  0.2067  0.0668
27265SOL    HW182373   5.653   2.187   0.610 -1.0300 -0.2460 -0.9034
27265SOL    HW282374   5.638   2.069   0.703  0.0589  1.5026  1.5841
27266SOL     OW82375   7.059   7.834   7.369 -0.1432 -0.1369  0.0807
27266SOL    HW182376   7.115   7.760   7.391 -0.5441 -0.3095  0.5424
27266SOL    HW282377   7.090   7.906   7.423  0.5877  0.1933 -0.7511
27267SOL     OW82378   3.641   9.782   9.161 -0.3477  0.1930 -0.0671
27267SOL    HW182379   3.599   9.792   9.075 -0.9471 -0.8046  0.0902
27267SOL    HW282380   3.652   9.687   9.171 -0.8693  0.2479  1.2271
27268SOL     OW82381   8.198   2.340   2.011  0.4128  0.3289  0.0376
27268SOL    HW182382   8.121   2.370   2.060  0.2640 -1.1443  0.7812
27268SOL    HW282383   8.225   2.416   1.960  0.4008  1.8648  2.1808
27269SOL     OW82384   6.612   0.394   8.260  0.2121  0.4737 -0.3579
27269SOL    HW182385   6.689   0.375   8.206 -0.5515 -1.8709 -0.7159
27269SOL    HW282386   6.545   0.420   8.197 -0.2757 -0.9213 -0.4488
27270SOL     OW82387   5.083   5.862   7.542 -0.3860 -0.6385 -0.9170
27270SOL    HW182388   5.156   5.919   7.519  1.3277 -2.4691 -0.2980
27270SOL    HW282389   5.005   5.914   7.523  1.0557  1.4917 -1.3655
27271SOL     OW82390   4.076   2.516   5.573  0.1046  0.0313  0.0108
27271SOL    HW182391   4.167   2.485   5.578  0.6726  1.5502 -0.2541
27271SOL    HW282392   4.031   2.470   5.643  0.7639 -1.7123 -0.6418
27272SOL     OW82393   4.760   8.976   2.876 -0.6318 -0.0443 -0.0071
27272SOL    HW182394   4.679   8.926   2.866 -0.6436  0.2864 -1.6995
27272SOL    HW282395   4.778   8.972   2.970 -3.2023  0.8217  0.5924
27273SOL     OW82396   8.366   0.839   8.649  0.7543  0.1387 -0.0499
27273SOL    HW182397   8.277   0.805   8.634  0.1143  1.2581  1.0168
27273SOL    HW282398   8.388   0.812   8.738  1.7329 -0.6181 -0.5052
27274SOL     OW82399   0.076   2.032   7.657 -0.4166 -0.2216 -0.2633
27274SOL    HW182400   0.099   2.086   7.581 -0.9002 -2.2355 -1.9242
27274SOL    HW282401  -0.019   2.037   7.662 -0.3724  0.0685  0.3550
27275SOL     OW82402   3.135   8.805   4.442 -0.2212 -0.4769  0.3169
27275SOL    HW182403   3.168   8.837   4.358 -1.3234 -0.3599 -0.0934
27275SOL    HW282404   3.213   8.790   4.495  0.5452 -1.2409 -0.9754
27276SOL     OW82405   9.513   1.885   3.649  0.1440  0.2442  0.2916
27276SOL    HW182406   9.429   1.841   3.633  1.0025 -1.4507  0.1629
27276SOL    HW282407   9.524   1.944   3.575 -0.8268  0.3063  0.1853
27277SOL     OW82408   6.395   4.577   8.041 -0.6163 -0.1532 -0.3098
27277SOL    HW182409   6.400   4.672   8.054 -1.5882 -0.3162  1.5568
27277SOL    HW282410   6.324   4.566   7.978  0.9291  0.4251 -2.2534
27278SOL     OW82411   9.041   8.478   0.828 -0.1306  0.1198  0.2080
27278SOL    HW182412   9.025   8.517   0.742  0.5176  0.6666  0.3302
27278SOL    HW282413   8.954   8.456   0.861 -0.4791  1.2027  0.0242
27279SOL     OW82414   4.982   3.302   6.359  0.1996  0.3901 -0.0585
27279SOL    HW182415   4.991   3.352   6.278 -0.3142 -0.6337 -0.7705
27279SOL    HW282416   4.890   3.276   6.362  0.8316 -2.2569 -0.8241
27280SOL     OW82417   5.675   1.138   9.234 -0.0756  0.6113 -0.2816
27280SOL    HW182418   5.595   1.145   9.285 -0.4431  0.3392 -0.8162
27280SOL    HW282419   5.727   1.073   9.281 -0.3759  0.4275 -0.2012
27281SOL     OW82420   4.507   0.142   6.169  1.1148  0.9840  0.0664
27281SOL    HW182421   4.542   0.222   6.208  1.1005  1.2533 -0.4687
27281SOL    HW282422   4.412   0.149   6.181  1.1923  0.4740  1.0948
27282SOL     OW82423   7.526   4.401   5.944 -0.1872 -0.0445  0.6812
27282SOL    HW182424   7.590   4.384   5.875 -1.3479 -2.1686  0.0311
27282SOL    HW282425   7.444   4.367   5.909 -0.6738 -1.9904  3.3776
27283SOL     OW82426   0.749   3.640   1.269  0.5141  0.1254 -0.0093
27283SOL    HW182427   0.776   3.699   1.199 -0.8737 -0.1742 -0.8342
27283SOL    HW282428   0.730   3.557   1.224 -0.0141 -0.1908  0.7716
27284SOL     OW82429   3.614   3.337   4.746  0.4749  0.2780  0.1231
27284SOL    HW182430   3.523   3.315   4.768  0.5031 -0.0636 -0.0919
27284SOL    HW282431   3.651   3.367   4.829  0.1549  0.4623  0.2036
27285SOL     OW82432   4.921   1.772   8.727  0.0048  0.0711 -0.0814
27285SOL    HW182433   4.911   1.868   8.724 -2.1345 -0.0549  0.6694
27285SOL    HW282434   4.970   1.750   8.648 -1.0717  1.6638 -1.2632
27286SOL     OW82435   7.996   1.408   3.277 -0.5596 -0.1335  0.4779
27286SOL    HW182436   7.985   1.439   3.187 -2.3623  0.8784  0.9817
27286SOL    HW282437   8.017   1.487   3.327  1.3463 -0.8209  0.8545
27287SOL     OW82438   3.936   1.481   1.163  0.1631 -0.1991 -0.1241
27287SOL    HW182439   3.899   1.476   1.075 -2.4550 -3.6019  0.9289
27287SOL    HW282440   4.015   1.426   1.159 -0.1893 -0.7033 -0.2789
27288SOL     OW82441   9.199   1.566   6.634  0.0545  0.4906  0.2253
27288SOL    HW182442   9.131   1.513   6.676  0.8207 -2.0053 -1.4412
27288SOL    HW282443   9.151   1.621   6.572 -0.5203 -2.4070 -2.1300
27289SOL     OW82444   8.717   8.540   7.708  0.3764 -0.0636 -0.3091
27289SOL    HW182445   8.633   8.584   7.714 -0.2017 -0.6225 -3.0480
27289SOL    HW282446   8.705   8.459   7.758 -1.0943 -0.6041 -1.4731
27290SOL     OW82447   5.665   6.261   6.269 -0.4826  0.3478 -0.2818
27290SOL    HW182448   5.629   6.267   6.181 -0.3109  0.1678 -0.3633
27290SOL    HW282449   5.603   6.206   6.317 -0.3343  0.0639 -0.4140
27291SOL     OW82450   0.030   7.590   2.683 -0.4622  0.4329  0.3833
27291SOL    HW182451   0.008   7.623   2.770  1.2903  1.1133  0.6045
27291SOL    HW282452   0.063   7.501   2.700  0.4416  0.7870  0.4860
27292SOL     OW82453   1.145   7.389   5.734 -0.5557  0.0887  0.2531
27292SOL    HW182454   1.214   7.349   5.788  1.8071  3.8455  0.3851
27292SOL    HW282455   1.116   7.464   5.785 -2.8444  0.1743 -1.0564
27293SOL     OW82456   8.287   1.025   7.443 -0.6745  0.3406  0.3395
27293SOL    HW182457   8.334   1.076   7.509  0.9310 -0.1552 -0.3569
27293SOL    HW282458   8.284   1.082   7.366 -2.0708  0.7150  0.6411
27294SOL     OW82459   4.945   6.739   4.573 -0.1837  0.0644  0.1604
27294SOL    HW182460   5.039   6.752   4.586  0.1149  1.6321 -2.6746
27294SOL    HW282461   4.911   6.718   4.660  2.4756  1.4990  1.6811
27295SOL     OW82462   2.386   9.899   3.278  0.9474 -0.2641 -0.6737
27295SOL    HW182463   2.441   9.828   3.247  1.3891  0.3544 -1.3315
27295SOL    HW282464   2.350   9.938   3.198  0.0465 -0.2677 -0.2834
27296SOL     OW82465   3.059   0.996   8.932  0.2589  0.1387 -0.7318
27296SOL    HW182466   3.026   1.086   8.931  1.5510  0.7139  1.3358
27296SOL    HW282467   3.059   0.969   8.840  0.1607  2.3564 -1.4405
27297SOL     OW82468   5.219   6.123   6.365  0.2390  0.1648 -0.6546
27297SOL    HW182469   5.140   6.092   6.320  0.9140 -0.1213 -1.6798
27297SOL    HW282470   5.291   6.085   6.315  1.0377  0.3799  0.2963
27298SOL     OW82471   3.561   2.176   1.411 -0.6069 -0.2458 -0.1387
27298SOL    HW182472   3.497   2.245   1.401  0.8687  1.4237  1.2236
27298SOL    HW282473   3.554   2.149   1.503 -0.5656 -1.3289 -0.4312
27299SOL     OW82474   7.610   9.408   7.497  0.3492 -0.1888 -0.9334
27299SOL    HW182475   7.695   9.435   7.531 -1.5927  2.0518  2.8191
27299SOL    HW282476   7.588   9.475   7.432  1.1561 -0.4334 -1.4658
27300SOL     OW82477   2.198   3.866   9.939 -0.3610  0.4258 -0.4997
27300SOL    HW182478   2.226   3.951   9.971 -0.0957  1.2122 -2.6466
27300SOL    HW282479   2.276   3.811   9.945 -0.7650  0.0073  1.7345
27301SOL     OW82480   2.060   7.889   3.946 -0.0454  0.0109 -0.2493
27301SOL    HW182481   1.980   7.854   3.987 -1.2536  1.3788 -1.3107
27301SOL    HW282482   2.029   7.964   3.896  2.1519  1.4041  0.3738
27302SOL     OW82483   5.208   0.800   6.833 -0.4199 -0.0857  0.0980
27302SOL    HW182484   5.166   0.821   6.750  2.6727  0.6239 -1.4376
27302SOL    HW282485   5.250   0.715   6.818  1.2796  0.6568  0.4140
27303SOL     OW82486   1.110   0.376   8.549  0.1549  0.2848  0.1280
27303SOL    HW182487   1.105   0.453   8.605 -0.6311 -0.2474  0.8102
27303SOL    HW282488   1.054   0.397   8.474  1.5130  1.1510 -0.6892
27304SOL     OW82489   6.214   2.918   8.130 -0.1455 -0.1008  0.3153
27304SOL    HW182490   6.306   2.893   8.140 -0.3851 -0.7658  0.8558
27304SOL    HW282491   6.172   2.889   8.211 -0.5634  1.4691  0.6932
27305SOL     OW82492   7.694   7.063   0.003 -0.2433  0.7481  0.2912
27305SOL    HW182493   7.658   6.991   0.056 -0.1993  2.0159  2.1271
27305SOL    HW282494   7.789   7.052   0.010 -0.1197 -1.2194 -2.6419
27306SOL     OW82495   6.170   3.942   8.667  0.2320 -0.0806  0.7519
27306SOL    HW182496   6.184   3.982   8.753 -1.7552  1.5623  0.3851
27306SOL    HW282497   6.075   3.932   8.661  0.3825 -0.6666 -1.0393
27307SOL     OW82498   9.148   4.493   6.251 -0.0618 -0.5409  0.3158
27307SOL    HW182499   9.137   4.489   6.156 -0.3285  2.8876  0.0778
27307SOL    HW282500   9.059   4.504   6.284  0.2467  1.6786  0.5810
27308SOL     OW82501   3.604   0.328   1.409  0.2873 -0.0474  0.2216
27308SOL    HW182502   3.678   0.353   1.465  0.5549 -0.5212  0.0892
27308SOL    HW282503   3.558   0.409   1.393 -0.1024  0.0243  1.5674
27309SOL     OW82504   2.446   0.650   2.906  0.1768  0.1246 -0.1204
27309SOL    HW182505   2.389   0.725   2.888 -1.1718 -1.2868 -2.0405
27309SOL    HW282506   2.511   0.685   2.967 -0.8738  2.6338 -0.2926
27310SOL     OW82507   0.171   2.371   0.836 -0.8568  0.3918 -0.3822
27310SOL    HW182508   0.103   2.432   0.810 -2.3217 -1.3988 -0.9543
27310SOL    HW282509   0.139   2.332   0.917 -0.8211 -0.8578 -0.9407
27311SOL     OW82510   1.035   1.918   8.426 -0.1757  0.2725  0.6958
27311SOL    HW182511   1.058   1.880   8.511 -0.5529 -0.0259  0.6659
27311SOL    HW282512   1.112   1.901   8.371 -0.1849 -0.0953  0.7949
27312SOL     OW82513   9.888   3.222   6.127 -0.2778 -0.2131 -0.5056
27312SOL    HW182514   9.853   3.299   6.171  2.7810  0.7820  0.4576
27312SOL    HW282515   9.943   3.257   6.056  2.0701 -1.3293  0.6312
27313SOL     OW82516   2.612   7.239   1.701  0.4062  0.3823  0.1776
27313SOL    HW182517   2.524   7.259   1.733  1.1034  3.0483  0.6613
27313SOL    HW282518   2.668   7.248   1.778  1.1818 -1.0151 -0.1853
27314SOL     OW82519   4.111   1.759   0.051 -0.1425  0.0150  0.0501
27314SOL    HW182520   4.149   1.715  -0.024 -1.3395 -1.6973  0.4093
27314SOL    HW282521   4.178   1.751   0.120  0.0074 -0.4277 -0.1484
27315SOL     OW82522   5.173   9.976   5.024 -0.6662 -0.0459 -0.5186
27315SOL    HW182523   5.242   9.935   5.076 -0.7482  0.4510 -0.0051
27315SOL    HW282524   5.110   9.906   5.007 -0.1638 -0.4426 -0.7710
27316SOL     OW82525   6.454   0.788   5.361  0.0282  0.2353  0.4214
27316SOL    HW182526   6.405   0.778   5.280  0.2463  1.5615  0.1049
27316SOL    HW282527   6.475   0.881   5.365  2.6527 -0.2856  0.4738
27317SOL     OW82528   2.469   6.835   6.621  0.0390 -0.4169  0.3462
27317SOL    HW182529   2.454   6.915   6.672 -1.5813  0.1246 -0.8649
27317SOL    HW282530   2.429   6.854   6.536  0.8734 -2.0192 -0.4338
27318SOL     OW82531   5.579   2.140   8.928 -0.1390  0.0022  0.1694
27318SOL    HW182532   5.489   2.121   8.901  0.4260 -1.3570 -0.8580
27318SOL    HW282533   5.611   2.058   8.965  0.0861  1.0033  2.3502
27319SOL     OW82534   6.138   9.390   2.561  0.5678 -0.4054 -0.1498
27319SOL    HW182535   6.077   9.342   2.617 -0.8942  0.7209 -0.7074
27319SOL    HW282536   6.132   9.347   2.476  2.3666 -1.7604  0.3393
27320SOL     OW82537   0.884   3.910   3.709 -0.2474 -0.2495  0.2599
27320SOL    HW182538   0.840   3.872   3.785 -1.0846 -0.1741 -0.1872
27320SOL    HW282539   0.902   3.835   3.652 -1.4334 -0.0544 -0.3848
27321SOL     OW82540   7.123   5.729   5.201  0.0218 -0.0908  0.2276
27321SOL    HW182541   7.171   5.661   5.248 -0.8654 -0.5322  0.5339
27321SOL    HW282542   7.161   5.731   5.113 -0.7432 -1.8376 -0.1660
27322SOL     OW82543   5.397   6.438   3.760 -0.1557  0.6561  0.2261
27322SOL    HW182544   5.365   6.362   3.713  1.8652  0.2685 -0.6241
27322SOL    HW282545   5.439   6.402   3.838 -0.6565  1.0481  0.6855
27323SOL     OW82546   2.159   6.233   2.583 -0.0178  0.0016  0.1725
27323SOL    HW182547   2.182   6.291   2.510 -2.2412 -0.8373 -1.3184
27323SOL    HW282548   2.237   6.178   2.595  0.9325  1.1254 -0.5771
27324SOL     OW82549   8.967   2.162   6.928  0.8591  0.4951 -0.0962
27324SOL    HW182550   9.014   2.227   6.979  0.1859 -0.0464  1.2682
27324SOL    HW282551   9.034   2.100   6.900  0.9712 -0.6063  2.3395
27325SOL     OW82552   5.518   7.148   9.376  0.2926 -0.4406 -0.0533
27325SOL    HW182553   5.576   7.219   9.346  0.2956  0.0300  1.0538
27325SOL    HW282554   5.576   7.091   9.426  0.3019 -1.2800 -0.9879
27326SOL     OW82555   2.323   3.935   6.515  0.4346  0.2551  0.2287
27326SOL    HW182556   2.303   3.913   6.606  0.7503 -0.6012  0.1045
27326SOL    HW282557   2.245   3.909   6.466  0.7839 -0.5831  0.0900
27327SOL     OW82558   9.284   0.503   7.137  0.2969  0.0316 -0.2645
27327SOL    HW182559   9.291   0.510   7.232  1.6742  1.3922 -0.4251
27327SOL    HW282560   9.375   0.504   7.107 -0.1391  1.9630 -1.7097
27328SOL     OW82561   2.075   5.959   7.163  0.4961  0.2338 -0.0776
27328SOL    HW182562   2.145   5.941   7.099  0.9465 -0.5012  0.6102
27328SOL    HW282563   1.994   5.937   7.116  0.9190 -2.3996  0.2277
27329SOL     OW82564   9.284   6.118   2.636  0.3922 -0.1246  0.1824
27329SOL    HW182565   9.242   6.097   2.552 -1.4591  1.4240  0.6397
27329SOL    HW282566   9.211   6.121   2.698  1.6230 -0.4290  1.6906
27330SOL     OW82567   9.071   8.842   5.090  0.0248 -0.2074  0.2714
27330SOL    HW182568   8.978   8.830   5.067 -0.0802  1.2623 -0.1345
27330SOL    HW282569   9.112   8.867   5.007  0.4253  1.0099  0.8193
27331SOL     OW82570   4.567   6.906   9.682  0.1161 -0.2949 -0.4640
27331SOL    HW182571   4.526   6.968   9.743  0.4693  0.4365 -0.9485
27331SOL    HW282572   4.641   6.870   9.730 -0.6310 -1.0411  0.1448
27332SOL     OW82573   9.949   3.634   5.899  0.0288 -0.2844 -0.4785
27332SOL    HW182574   9.895   3.657   5.975  0.7792  0.7296 -0.2295
27332SOL    HW282575   9.888   3.593   5.838 -1.4895  2.5073 -1.0225
27333SOL     OW82576   8.910   3.634   7.720 -0.3024 -0.2351 -0.3445
27333SOL    HW182577   8.879   3.723   7.703 -0.6722 -0.3991 -0.5317
27333SOL    HW282578   8.892   3.621   7.814  2.4203  0.9370  0.4319
27334SOL     OW82579   3.792   8.175   0.548 -0.0507 -0.2054  0.3568
27334SOL    HW182580   3.755   8.123   0.476  0.8530 -1.8015  0.9993
27334SOL    HW282581   3.732   8.161   0.621 -0.0593  0.0577  0.4023
27335SOL     OW82582   3.619   6.534   3.718  0.4410 -0.4763  0.3316
27335SOL    HW182583   3.557   6.484   3.771  2.0568 -1.0177  1.8060
27335SOL    HW282584   3.617   6.622   3.756 -0.0694 -0.2376 -0.2225
27336SOL     OW82585   6.896   8.311   6.568 -0.2296  0.4314 -0.4738
27336SOL    HW182586   6.863   8.294   6.656 -1.0228 -0.7384 -0.9648
27336SOL    HW282587   6.869   8.234   6.517  0.3245  1.0206 -1.7107
27337SOL     OW82588   6.495   9.578   4.807 -0.2783 -0.1776  0.0495
27337SOL    HW182589   6.552   9.641   4.762  1.8352 -0.6314  1.9151
27337SOL    HW282590   6.413   9.626   4.822  0.5095  1.3849 -0.4488
27338SOL     OW82591   6.567   6.988   7.803 -0.3229 -0.4662 -0.0092
27338SOL    HW182592   6.596   7.002   7.893 -0.4598  0.0639 -0.0449
27338SOL    HW282593   6.634   7.030   7.749 -0.0648 -1.0700 -0.1788
27339SOL     OW82594   0.694   7.341   1.761 -0.8092 -0.2635 -0.9031
27339SOL    HW182595   0.765   7.278   1.749 -1.9946 -1.8429  0.0107
27339SOL    HW282596   0.673   7.371   1.672  0.0583 -0.8240 -1.3057
27340SOL     OW82597   4.603   5.962   7.321  0.2423 -0.2205  0.3620
27340SOL    HW182598   4.611   5.881   7.271  1.8452  0.3679 -0.4127
27340SOL    HW282599   4.521   6.002   7.290 -1.2668 -2.1119  1.7086
27341SOL     OW82600   4.716   0.175   7.929 -0.7525 -0.1424 -0.8227
27341SOL    HW182601   4.672   0.215   8.003  3.9828  1.0111  1.7970
27341SOL    HW282602   4.762   0.248   7.886 -0.8403 -1.2699 -2.9681
27342SOL     OW82603   5.784   5.473   9.086  0.6611  0.3419 -0.2496
27342SOL    HW182604   5.693   5.460   9.114  0.8493  0.0605  0.2438
27342SOL    HW282605   5.779   5.545   9.023  0.2445  1.2375  0.7509
27343SOL     OW82606   4.691   8.301   1.841  0.0081  0.6759  0.3348
27343SOL    HW182607   4.611   8.353   1.829 -0.1431  0.6422  1.1712
27343SOL    HW282608   4.676   8.251   1.921  0.9239  0.7770  0.5787
27344SOL     OW82609   4.157   9.206   6.250 -0.0627 -0.1385  0.8555
27344SOL    HW182610   4.153   9.175   6.159 -1.3466  3.1091 -0.3356
27344SOL    HW282611   4.212   9.284   6.246 -0.0986  0.0372  2.9119
27345SOL     OW82612   1.097   2.238   2.243  0.5127 -0.2224 -0.1350
27345SOL    HW182613   1.071   2.205   2.157  0.2913  0.7055 -0.4377
27345SOL    HW282614   1.166   2.302   2.224  1.6595 -1.2107  0.5160
27346SOL     OW82615   0.595   3.410   3.492  0.6418  0.3867 -0.1816
27346SOL    HW182616   0.517   3.447   3.534  0.6653  1.1750 -0.8019
27346SOL    HW282617   0.561   3.367   3.413  0.6133 -0.9813  0.5443
27347SOL     OW82618   6.687   4.569   4.218 -0.6201 -0.3571 -0.2786
27347SOL    HW182619   6.718   4.557   4.128 -1.4743  1.6362 -0.8982
27347SOL    HW282620   6.593   4.551   4.213 -0.2958 -2.6383  0.7815
27348SOL     OW82621   7.665   3.494   2.943  0.2060  0.3426  0.3925
27348SOL    HW182622   7.650   3.504   2.849  0.2409  0.1493  0.3675
27348SOL    HW282623   7.711   3.411   2.952 -0.7137 -0.1525  0.6703
27349SOL     OW82624   9.491   6.926   3.042  0.2446  0.2451 -0.2034
27349SOL    HW182625   9.441   6.944   3.122  0.8137  3.4265 -0.4095
27349SOL    HW282626   9.582   6.942   3.067  0.3904  1.6384 -1.5105
27350SOL     OW82627   5.869   9.150   8.726 -0.0124 -0.1873  0.6796
27350SOL    HW182628   5.777   9.135   8.703  0.1303 -1.2502  0.7491
27350SOL    HW282629   5.866   9.204   8.804 -0.5791 -0.1697  0.6499
27351SOL     OW82630   9.862   0.811   2.081  0.6583  0.1688  0.2134
27351SOL    HW182631   9.791   0.853   2.033  0.6681 -1.8721 -1.7147
27351SOL    HW282632   9.817   0.761   2.150  0.3696  0.2602  0.0938
27352SOL     OW82633   9.417   2.402   8.512 -0.2739 -0.5091  0.1124
27352SOL    HW182634   9.431   2.345   8.588  1.3237 -0.4813 -0.1305
27352SOL    HW282635   9.499   2.398   8.463 -0.0056  2.1008  0.1749
27353SOL     OW82636   1.579   1.311   7.865 -0.1159  0.2613 -0.3354
27353SOL    HW182637   1.665   1.353   7.866  0.1263 -0.0491  2.6907
27353SOL    HW282638   1.532   1.351   7.938 -1.1095 -2.2271  0.5192
27354SOL     OW82639   4.062   9.862   8.990  0.3621 -0.2649  0.3175
27354SOL    HW182640   4.001   9.869   9.063  0.8037 -0.4021  0.7084
27354SOL    HW282641   4.119   9.938   8.999  1.7441 -1.3600  1.3788
27355SOL     OW82642   2.066   3.039   3.937 -0.0262 -0.0358 -0.0142
27355SOL    HW182643   2.081   3.078   4.023  0.9610 -1.3080  0.4295
27355SOL    HW282644   2.006   3.099   3.893  1.3863  1.9818  0.6244
27356SOL     OW82645   2.524   0.833   7.073  0.0647  0.7656  0.3694
27356SOL    HW182646   2.460   0.888   7.027  1.7475  0.4810 -2.5144
27356SOL    HW282647   2.502   0.744   7.046  0.9000  0.5513  0.3954
27357SOL     OW82648   0.140   8.025   5.319 -0.1039  0.3434 -0.4383
27357SOL    HW182649   0.217   7.972   5.298  0.0524 -0.1182  1.1991
27357SOL    HW282650   0.161   8.111   5.282 -0.0588 -0.4909 -2.5011
27358SOL     OW82651   7.976   2.541   8.172  0.0161  0.0524  0.2597
27358SOL    HW182652   7.961   2.458   8.127 -1.5521  0.3429  0.1905
27358SOL    HW282653   8.051   2.524   8.229  0.1190 -1.2146 -0.2200
27359SOL     OW82654   3.658   1.905   1.009 -0.0305 -0.6572 -0.1298
27359SOL    HW182655   3.571   1.919   0.972 -0.2380 -0.5547  0.3914
27359SOL    HW282656   3.700   1.845   0.948 -0.4783 -0.7357 -0.3682
27360SOL     OW82657   2.194   5.126   7.034 -0.0646 -0.4007 -0.2571
27360SOL    HW182658   2.230   5.073   7.105 -0.9956  0.4929  0.9326
27360SOL    HW282659   2.162   5.205   7.077  1.9814  1.5401 -2.0659
27361SOL     OW82660   9.517   7.876   1.392  0.6662 -0.0712 -0.3770
27361SOL    HW182661   9.603   7.845   1.420  0.2977 -0.8531 -0.0954
27361SOL    HW282662   9.522   7.971   1.402  1.2769 -0.1641  0.2688
27362SOL     OW82663   0.203   8.747   9.645  0.0381  0.1073 -0.4387
27362SOL    HW182664   0.224   8.736   9.552 -0.9830  0.5012 -0.7306
27362SOL    HW282665   0.285   8.778   9.684  0.1402  1.2341 -1.4649
27363SOL     OW82666   2.377   5.528   5.088  0.2659 -0.3535 -0.3020
27363SOL    HW182667   2.433   5.498   5.160 -0.1715  0.1904  0.2877
27363SOL    HW282668   2.423   5.604   5.052  0.7307 -0.9242 -0.9363
27364SOL     OW82669   9.056   9.285   0.927  0.7682  0.4005 -0.2327
27364SOL    HW182670   9.089   9.372   0.946  0.6309  0.5334 -0.5948
27364SOL    HW282671   8.983   9.273   0.988  0.5499  0.6856 -0.4374
27365SOL     OW82672   0.159   5.335   6.132  0.3887 -0.0096  0.2733
27365SOL    HW182673   0.226   5.343   6.065  1.6417 -2.3200  1.1338
27365SOL    HW282674   0.078   5.316   6.084  1.0372 -0.5028 -0.6385
27366SOL     OW82675   3.167   4.300   4.321 -0.1214 -0.1849 -0.1922
27366SOL    HW182676   3.243   4.358   4.330 -0.2210 -0.2067  0.9176
27366SOL    HW282677   3.201   4.214   4.347  0.3173 -0.8955 -2.8625
27367SOL     OW82678   9.408   9.776   6.187  0.0464 -0.1665 -0.3205
27367SOL    HW182679   9.493   9.735   6.199 -1.3918 -2.8800  1.9028
27367SOL    HW282680   9.381   9.801   6.275 -1.9808 -0.6434 -0.7383
27368SOL     OW82681   6.208   1.217   9.639  0.1243 -0.9323  0.0194
27368SOL    HW182682   6.291   1.236   9.596 -0.2133  1.8288  0.4262
27368SOL    HW282683   6.148   1.198   9.567  0.9021 -2.2984 -0.3122
27369SOL     OW82684   2.107   5.348  -0.005 -0.3801 -0.1390  0.2973
27369SOL    HW182685   2.091   5.294   0.073 -1.4965 -2.0941 -1.1851
27369SOL    HW282686   2.093   5.438   0.025  1.5252 -0.5768  2.8699
27370SOL     OW82687   1.138   3.740   7.315 -0.3153  0.3839  0.0993
27370SOL    HW182688   1.154   3.825   7.356 -1.2090  0.8522 -0.5080
27370SOL    HW282689   1.090   3.690   7.381  0.7833  0.0966  0.7094
27371SOL     OW82690   0.470   0.433   4.876  0.0005  0.1727  0.3103
27371SOL    HW182691   0.464   0.342   4.906  2.0287  0.0407  0.4444
27371SOL    HW282692   0.545   0.468   4.923 -0.7271  1.9337  0.2198
27372SOL     OW82693   9.910   8.401   4.224  0.0245 -0.2892 -0.4277
27372SOL    HW182694   9.889   8.487   4.261 -3.7398 -1.7988  1.4632
27372SOL    HW282695   9.918   8.417   4.130  1.5259  2.3733  0.0519
27373SOL     OW82696   1.951   0.938   9.939  0.7417  0.2113  0.7263
27373SOL    HW182697   1.863   0.913   9.912  1.0689 -0.0559 -0.1191
27373SOL    HW282698   1.948   0.936  10.035 -0.4144  1.0860  0.7306
27374SOL     OW82699   3.221   6.338   5.416  0.1688 -0.1554  0.0410
27374SOL    HW182700   3.126   6.322   5.420 -0.0386  0.8658 -0.3285
27374SOL    HW282701   3.248   6.296   5.334 -0.1342  0.3100 -0.3041
27375SOL     OW82702   4.413   9.970   9.552  0.8640  0.1571  0.0186
27375SOL    HW182703   4.343   9.979   9.617  0.6363  0.7720 -0.3071
27375SOL    HW282704   4.371   9.925   9.479  1.3425 -1.3342  0.6239
27376SOL     OW82705   8.206   5.547   5.483 -0.3966  0.6119 -0.0676
27376SOL    HW182706   8.139   5.574   5.546 -1.3299  0.7217 -1.1006
27376SOL    HW282707   8.166   5.477   5.432 -0.2664  1.6737 -1.6765
27377SOL     OW82708   3.607   2.775   9.114  0.1447  0.0695  0.4294
27377SOL    HW182709   3.649   2.842   9.059  0.2270 -0.5954 -0.3435
27377SOL    HW282710   3.599   2.699   9.056 -0.4945 -0.3948  1.1136
27378SOL     OW82711   7.943   9.875   7.693  0.2754 -0.0872  0.0370
27378SOL    HW182712   7.868   9.851   7.639  0.7882 -2.5296  0.3104
27378SOL    HW282713   7.919   9.850   7.782  1.0214  0.0688  0.2962
27379SOL     OW82714   1.394   0.250   2.404 -0.2679  0.3331 -0.5369
27379SOL    HW182715   1.459   0.186   2.431 -0.0563  0.9271  0.3893
27379SOL    HW282716   1.385   0.310   2.478 -2.3095 -0.0772 -0.3768
27380SOL     OW82717   1.470   5.174   8.220 -0.0724 -0.0970 -0.3923
27380SOL    HW182718   1.447   5.266   8.212  1.8580  0.3949 -0.6456
27380SOL    HW282719   1.545   5.163   8.162  0.4528 -1.5639  0.5169
27381SOL     OW82720   6.957   2.304   1.801  0.0288  0.1194  0.0688
27381SOL    HW182721   6.933   2.341   1.716  0.2461 -1.5229 -0.7323
27381SOL    HW282722   6.889   2.239   1.819  0.9399 -0.7996  0.2879
27382SOL     OW82723   6.840   8.431   5.684  0.0012 -0.2724  0.0863
27382SOL    HW182724   6.857   8.437   5.778 -0.0456 -0.3397  0.0994
27382SOL    HW282725   6.922   8.401   5.646 -0.1010 -0.6368  0.1520
27383SOL     OW82726   9.449   7.599   5.128  0.7523  1.1647 -0.2638
27383SOL    HW182727   9.429   7.556   5.045  2.7325  1.3869 -0.9123
27383SOL    HW282728   9.475   7.688   5.103  1.0238  1.3467  0.6270
27384SOL     OW82729   8.490   5.463   9.861 -0.2807 -0.1163  0.2086
27384SOL    HW182730   8.428   5.424   9.922  1.7666 -1.4029  1.5647
27384SOL    HW282731   8.568   5.481   9.913  0.4876  1.5751 -1.4048
27385SOL     OW82732   9.548   1.709   7.472  0.4428  0.7610 -0.2259
27385SOL    HW182733   9.539   1.732   7.565 -0.0398  0.1656 -0.1164
27385SOL    HW282734   9.561   1.793   7.428 -0.3052  1.1574  0.2748
27386SOL     OW82735   8.715   6.742   3.521  0.3538  0.2283  0.5357
27386SOL    HW182736   8.638   6.757   3.576 -1.2728 -1.7207 -1.0862
27386SOL    HW282737   8.766   6.678   3.569 -0.6286 -0.8147  0.2247
27387SOL     OW82738   5.713   3.633   1.061 -0.6237 -0.3572 -0.0202
27387SOL    HW182739   5.762   3.662   0.983  0.0418 -0.8649  0.2021
27387SOL    HW282740   5.768   3.659   1.135 -2.3769  2.3928  0.4728
27388SOL     OW82741   4.352   4.085   4.910 -0.3952 -0.0764  0.5723
27388SOL    HW182742   4.364   4.162   4.853 -0.9665 -1.2064 -1.1385
27388SOL    HW282743   4.440   4.065   4.942  0.0807  0.0841 -0.5955
27389SOL     OW82744   4.197   5.349   0.323 -0.0203  0.0112  0.2910
27389SOL    HW182745   4.148   5.293   0.384 -0.3286  0.6016  0.5997
27389SOL    HW282746   4.288   5.339   0.349 -0.3447  2.5502  2.8893
27390SOL     OW82747   4.636   0.422   3.536 -0.0556 -0.3163  0.4756
27390SOL    HW182748   4.611   0.400   3.626  2.0936  2.4456  1.9158
27390SOL    HW282749   4.558   0.464   3.500 -1.4867 -2.8292  0.3795
27391SOL     OW82750   6.120   1.706   4.812 -0.4145  0.1023 -0.1278
27391SOL    HW182751   6.103   1.612   4.800  0.8754 -0.6278  2.9347
27391SOL    HW282752   6.215   1.714   4.807 -0.5555  1.4171 -1.1158
27392SOL     OW82753   2.866   1.398   9.456 -0.2412  0.1426  0.2299
27392SOL    HW182754   2.901   1.466   9.398 -1.5925  1.4827  0.9157
27392SOL    HW282755   2.919   1.320   9.437  1.3136  1.3554 -0.6258
27393SOL     OW82756   4.047   5.438   9.843  0.0022 -0.2177 -0.8127
27393SOL    HW182757   4.001   5.504   9.895  0.0760 -1.0185  0.3165
27393SOL    HW282758   4.060   5.365   9.904  1.4731 -0.5819 -1.5321
27394SOL     OW82759   4.379   0.899   8.922 -0.1276 -0.0495 -0.3408
27394SOL    HW182760   4.426   0.817   8.911  1.3229  0.7883 -0.5526
27394SOL    HW282761   4.343   0.895   9.011 -0.9826 -1.3392 -0.7161
27395SOL     OW82762   5.309   7.210   3.777 -0.6542  0.3933  0.4241
27395SOL    HW182763   5.399   7.211   3.746 -1.1724 -2.4774 -1.6367
27395SOL    HW282764   5.259   7.251   3.706 -1.3679 -2.2687 -0.7556
27396SOL     OW82765   5.811   2.147   4.800 -0.6641  0.1338 -0.3082
27396SOL    HW182766   5.816   2.113   4.890  2.6776 -1.7769 -1.0202
27396SOL    HW282767   5.873   2.220   4.799  0.5288 -0.8498 -1.3514
27397SOL     OW82768   0.096   4.349   1.534 -0.0354  0.1897  0.1244
27397SOL    HW182769   0.162   4.414   1.509  0.8104 -0.7844 -0.2435
27397SOL    HW282770   0.064   4.314   1.451 -0.2835 -0.0511  0.3198
27398SOL     OW82771   0.686   9.093   0.226 -0.4234  0.3130 -0.0099
27398SOL    HW182772   0.737   9.054   0.296 -1.2310 -0.6777  0.0519
27398SOL    HW282773   0.656   9.177   0.261  0.4660  0.5310  0.2434
27399SOL     OW82774   5.266   2.784   8.128  0.5641 -0.0905 -0.5067
27399SOL    HW182775   5.212   2.761   8.053  0.0242  0.4552 -0.2939
27399SOL    HW282776   5.337   2.720   8.126  0.2083 -0.4868 -1.1021
27400SOL     OW82777   7.458   8.587   7.120  0.1389  0.3615  0.4696
27400SOL    HW182778   7.546   8.625   7.120  0.2220  0.1708  0.4943
27400SOL    HW282779   7.426   8.600   7.209 -0.1953  1.1971  0.2386
27401SOL     OW82780   5.333   7.933   9.867  0.2650  0.0737 -0.0878
27401SOL    HW182781   5.316   8.027   9.870 -2.1361 -0.3086  1.2443
27401SOL    HW282782   5.390   7.921   9.791  1.5871  2.7028  0.3645
27402SOL     OW82783   7.794   4.013   2.422  0.2914 -0.2146  0.3633
27402SOL    HW182784   7.810   4.041   2.332 -0.1906  0.7479  0.5601
27402SOL    HW282785   7.737   3.936   2.414  1.3468 -0.9555 -0.1832
27403SOL     OW82786   7.034   8.557   7.049  0.1610 -0.1660  0.2906
27403SOL    HW182787   7.077   8.611   7.116  1.1349 -1.9218  1.1309
27403SOL    HW282788   6.971   8.505   7.097 -0.4461 -0.1275 -0.4494
27404SOL     OW82789   1.298   9.672   9.113  0.4005 -0.0897  0.3381
27404SOL    HW182790   1.278   9.732   9.185  1.8220  0.8044  0.0354
27404SOL    HW282791   1.387   9.640   9.133  1.0594  0.6334 -1.2820
27405SOL     OW82792   5.806   6.293   4.945  0.1197 -0.5656  0.7297
27405SOL    HW182793   5.796   6.385   4.969 -1.3049 -0.1989 -1.0669
27405SOL    HW282794   5.870   6.293   4.874 -1.5099 -0.6473 -0.8006
27406SOL     OW82795   0.018   2.464   1.932  0.1427 -0.4413  0.0595
27406SOL    HW182796   0.026   2.389   1.992  1.8757 -0.6927 -0.4178
27406SOL    HW282797   0.078   2.529   1.967  0.5198 -0.2524 -0.8931
27407SOL     OW82798   5.088   9.604   0.422  0.8024 -0.1250 -0.1757
27407SOL    HW182799   5.121   9.540   0.359 -0.4216  1.7608 -2.9516
27407SOL    HW282800   5.057   9.552   0.495  1.6401 -2.5267 -1.4193
27408SOL     OW82801   2.430   4.095   2.926  0.4201 -0.4508  0.1997
27408SOL    HW182802   2.388   4.164   2.977 -1.1292 -1.1660 -0.0452
27408SOL    HW282803   2.394   4.105   2.838  1.0395 -0.8755 -0.1103
27409SOL     OW82804   3.607   5.178   8.947  0.3345  0.2838  0.2803
27409SOL    HW182805   3.519   5.149   8.926  0.5113  0.6341 -1.0381
27409SOL    HW282806   3.614   5.266   8.910  1.9984 -0.6487 -1.8472
27410SOL     OW82807   9.520   6.091   0.835 -0.2618 -0.3240 -0.2478
27410SOL    HW182808   9.465   6.052   0.903 -0.9581  0.3190 -0.4319
27410SOL    HW282809   9.466   6.089   0.756  0.5101 -1.0003 -0.7798
27411SOL     OW82810   2.122   6.908   4.265 -0.1920 -0.2153 -0.1088
27411SOL    HW182811   2.165   6.988   4.295  0.0860  0.2177 -1.6080
27411SOL    HW282812   2.033   6.915   4.299 -0.5461  1.3575 -1.2541
27412SOL     OW82813   5.505   4.645   0.483 -0.0420  0.4081 -0.3823
27412SOL    HW182814   5.518   4.726   0.434 -0.9506  0.2960 -0.8311
27412SOL    HW282815   5.411   4.627   0.475  0.1991 -0.8729 -0.5784
27413SOL     OW82816   8.856   8.340   5.852 -0.1713  0.4495  0.1873
27413SOL    HW182817   8.896   8.266   5.808  0.6812  0.4800  0.8870
27413SOL    HW282818   8.771   8.308   5.882 -1.0553  0.5944 -1.9377
27414SOL     OW82819   3.946   0.761   1.175 -0.3550  0.2850  0.0190
27414SOL    HW182820   3.942   0.735   1.083  0.5089 -1.9782  0.5413
27414SOL    HW282821   3.968   0.854   1.173  0.4928  0.0949 -2.0675
27415SOL     OW82822   0.378   8.923   7.975 -0.6090  0.1809  0.4892
27415SOL    HW182823   0.425   9.004   7.954 -1.4656  0.7287  0.6376
27415SOL    HW282824   0.369   8.925   8.070  0.1503 -0.5474  0.5916
27416SOL     OW82825   4.345   1.202   1.454 -0.5303  0.3313 -0.2634
27416SOL    HW182826   4.279   1.137   1.430  0.3616 -0.7140  0.0554
27416SOL    HW282827   4.410   1.153   1.504 -1.0380  1.9214  2.1169
27417SOL     OW82828   1.524   3.606   0.018  0.0616  0.2618  0.4644
27417SOL    HW182829   1.461   3.678   0.026 -0.5996 -0.2670  0.0838
27417SOL    HW282830   1.608   3.650   0.002 -0.1255  0.9883  1.3946
27418SOL     OW82831   6.494   6.845   7.503 -0.5784  0.0651 -0.6181
27418SOL    HW182832   6.456   6.760   7.480  1.6123 -0.8612 -1.1282
27418SOL    HW282833   6.469   6.859   7.595 -0.8774 -1.2034 -0.4925
27419SOL     OW82834   4.088   1.184   9.981 -0.1173  0.4355 -0.3838
27419SOL    HW182835   4.090   1.256  10.043 -0.0441 -0.0540  0.1954
27419SOL    HW282836   4.044   1.219   9.904 -1.0380  0.7897  0.2870
27420SOL     OW82837   9.818   2.307   3.458 -0.4554  0.2237 -0.5106
27420SOL    HW182838   9.741   2.260   3.490  0.1781 -0.6572 -0.2531
27420SOL    HW282839   9.798   2.325   3.366 -0.1947 -1.6947 -0.9805
27421SOL     OW82840  -0.019   2.796   4.909  0.5713  0.0907  0.1557
27421SOL    HW182841   0.050   2.815   4.846  0.1521 -0.2988 -0.4373
27421SOL    HW282842   0.027   2.787   4.993  1.3485 -0.9128 -0.3516
27422SOL     OW82843   2.821   9.001   7.489 -0.2940 -0.3192  0.0038
27422SOL    HW182844   2.782   8.932   7.435  2.3460  0.5510 -3.3371
27422SOL    HW282845   2.914   8.978   7.495  0.0041  1.1044  1.9188
27423SOL     OW82846   5.625   6.753   8.910  0.8231 -0.0235 -0.0439
27423SOL    HW182847   5.649   6.820   8.973  0.3066  0.5555 -0.4560
27423SOL    HW282848   5.538   6.725   8.935  1.3508 -1.1355  0.6134
27424SOL     OW82849   4.986   6.569   1.630 -0.1026  0.2991 -0.1681
27424SOL    HW182850   4.898   6.545   1.600  0.1620  0.1141 -0.8149
27424SOL    HW282851   5.045   6.533   1.564  0.5322 -0.4789  0.8024
27425SOL     OW82852   1.210   6.549   0.843 -0.4969 -0.5782 -0.2756
27425SOL    HW182853   1.154   6.521   0.915 -0.8015 -1.0426 -0.6895
27425SOL    HW282854   1.155   6.610   0.793 -1.1415 -2.0638 -1.4535
27426SOL     OW82855   1.624   5.560   6.012  0.5655 -0.2614 -0.0294
27426SOL    HW182856   1.540   5.533   5.975 -0.0032  0.8969  0.3900
27426SOL    HW282857   1.680   5.572   5.935 -1.0238  3.6086 -0.8380
27427SOL     OW82858   3.171   7.645   8.157  0.3790 -0.4941  0.0345
27427SOL    HW182859   3.185   7.557   8.122 -1.4436 -0.6053 -0.4917
27427SOL    HW282860   3.076   7.654   8.164  0.3355  2.2915 -2.2348
27428SOL     OW82861   2.160   1.934   4.443 -0.2380 -0.1020 -0.0478
27428SOL    HW182862   2.161   1.942   4.348  0.5317 -0.4026 -0.0668
27428SOL    HW282863   2.222   1.864   4.463 -1.8317 -1.4238  0.5574
27429SOL     OW82864   7.655   4.662   5.942  0.2342  0.4128  0.7039
27429SOL    HW182865   7.739   4.638   5.980  0.1745  0.0643  0.6175
27429SOL    HW282866   7.619   4.579   5.910 -0.0521  0.5914  0.5659
27430SOL     OW82867   4.498   0.823   4.116  0.1201 -0.2360  0.0865
27430SOL    HW182868   4.428   0.793   4.057  0.2217 -0.4505  0.0742
27430SOL    HW282869   4.558   0.749   4.122  0.8261  0.2586 -0.6246
27431SOL     OW82870   8.291   2.636   7.500  0.2876 -0.0445 -0.4614
27431SOL    HW182871   8.286   2.540   7.503 -1.2012  0.0187  2.9024
27431SOL    HW282872   8.298   2.663   7.591 -1.8882  3.1657 -1.0901
27432SOL     OW82873   5.095   9.227   5.167  0.3338  0.0254  0.3383
27432SOL    HW182874   5.061   9.311   5.197  0.1800  0.4230 -0.8949
27432SOL    HW282875   5.054   9.213   5.082  0.2103 -1.3976  0.6019
27433SOL     OW82876   2.697   7.445   6.570 -0.0211 -0.4390 -0.2990
27433SOL    HW182877   2.751   7.484   6.638 -1.7285 -0.5732  1.2246
27433SOL    HW282878   2.697   7.509   6.499 -1.3340  1.5984  1.4316
27434SOL     OW82879   1.860   6.067   5.996  0.1549 -0.2026 -0.2937
27434SOL    HW182880   1.821   5.983   5.968  0.4671 -0.4892  0.1334
27434SOL    HW282881   1.918   6.091   5.923 -0.9953  0.3592 -1.0601
27435SOL     OW82882   6.313   4.423   6.321 -0.1648 -0.3100 -0.1659
27435SOL    HW182883   6.344   4.486   6.257  0.0111  2.1670  2.1834
27435SOL    HW282884   6.221   4.408   6.297  0.0915  0.0030 -1.3958
27436SOL     OW82885   9.341   8.520   3.436 -0.2667  0.0481 -0.0503
27436SOL    HW182886   9.264   8.538   3.383 -0.0020 -1.7291 -1.0807
27436SOL    HW282887   9.333   8.581   3.510 -2.6394 -0.0768 -0.1185
27437SOL     OW82888   7.436   2.290   0.230 -0.9023  0.5590 -0.1181
27437SOL    HW182889   7.469   2.252   0.149 -0.8146 -0.2846  0.3019
27437SOL    HW282890   7.493   2.365   0.247  0.0423 -0.1648 -0.0399
27438SOL     OW82891   0.071   1.635   5.640  0.0109  0.6076  0.3928
27438SOL    HW182892   0.063   1.606   5.730 -2.3427  1.0787  0.4023
27438SOL    HW282893   0.002   1.587   5.593  0.6977  0.9244 -0.9977
27439SOL     OW82894   7.550   8.368   6.581  1.0525 -0.2653  0.1665
27439SOL    HW182895   7.524   8.440   6.524 -0.2445 -0.9793 -0.1999
27439SOL    HW282896   7.629   8.399   6.625 -0.4013  2.0742  1.3112
27440SOL     OW82897   6.884   3.668   4.121  0.1573 -0.1183  0.1964
27440SOL    HW182898   6.794   3.658   4.154  0.9916 -0.6655  2.4671
27440SOL    HW282899   6.909   3.756   4.148  0.6775 -0.3819  0.5879
27441SOL     OW82900   2.205   9.361   1.838  0.5920 -0.4950  0.3167
27441SOL    HW182901   2.273   9.377   1.903  0.7604 -2.2991  0.6326
27441SOL    HW282902   2.231   9.413   1.762  0.1808  1.9990  1.7587
27442SOL     OW82903   1.969   2.723   2.985  0.6215  0.3679 -0.2573
27442SOL    HW182904   2.034   2.794   2.984  1.3980 -0.2827  1.2812
27442SOL    HW282905   1.884   2.768   2.982  1.0773  1.4373  1.4075
27443SOL     OW82906   6.449   6.161   9.158  0.3067 -0.2386  0.4689
27443SOL    HW182907   6.530   6.213   9.151 -0.5392  1.0778  0.0130
27443SOL    HW282908   6.431   6.134   9.069  0.3422 -0.7024  0.6007
27444SOL     OW82909   7.977   1.513   5.486 -0.6514 -0.1255  0.2804
27444SOL    HW182910   7.898   1.473   5.448 -0.6330 -2.0005  2.0287
27444SOL    HW282911   7.944   1.580   5.545 -0.8159  0.4964 -0.4971
27445SOL     OW82912   7.019   7.057   6.943 -0.0849  0.3936  0.5064
27445SOL    HW182913   6.973   7.139   6.958 -1.4889  0.1039 -1.7472
27445SOL    HW282914   7.064   7.069   6.859  0.3662 -0.8535  0.5403
27446SOL     OW82915   6.086   5.828   3.070  0.5283  0.3943  0.3155
27446SOL    HW182916   6.128   5.753   3.112  0.2099 -0.3637 -0.6635
27446SOL    HW282917   6.020   5.789   3.013  1.0468  1.3621 -0.9952
27447SOL     OW82918   6.942   7.644   7.029 -0.3341  0.5222  0.2984
27447SOL    HW182919   7.012   7.704   7.055  0.1142  0.0306  0.2493
27447SOL    HW282920   6.935   7.581   7.101  1.5532 -1.4123 -1.0665
27448SOL     OW82921   2.657   1.168   9.355  0.2591  0.0216 -0.0840
27448SOL    HW182922   2.656   1.213   9.270 -0.6516  0.9856  0.4132
27448SOL    HW282923   2.722   1.215   9.407  2.0820 -1.6147 -0.7362
27449SOL     OW82924   2.240   4.546   5.795 -0.1241 -0.3052  0.0715
27449SOL    HW182925   2.192   4.541   5.712  0.7431 -2.0614 -0.3591
27449SOL    HW282926   2.329   4.570   5.769  0.2141 -1.1267  0.4683
27450SOL     OW82927   0.088   5.665   4.736  0.5566 -0.4311  0.8098
27450SOL    HW182928   0.134   5.607   4.675  0.2250  0.4881 -0.3584
27450SOL    HW282929   0.030   5.717   4.680  1.2165  1.3857  1.7364
27451SOL     OW82930   4.801   8.117   1.687 -0.7101 -0.0925  0.1172
27451SOL    HW182931   4.759   8.192   1.729 -0.0738 -0.1038  0.7939
27451SOL    HW282932   4.767   8.118   1.598 -1.3210  0.5269  0.3465
27452SOL     OW82933   3.273   3.862   1.941 -0.1937  0.3639  0.1242
27452SOL    HW182934   3.324   3.807   1.881 -0.5423 -1.3785  1.3589
27452SOL    HW282935   3.285   3.951   1.907  2.8770 -0.0629 -0.2145
27453SOL     OW82936   2.207   1.319   6.194  0.6318  0.1542 -0.2270
27453SOL    HW182937   2.118   1.321   6.159  1.3953  0.7657 -2.2809
27453SOL    HW282938   2.196   1.295   6.286 -1.7159  1.1646 -0.1746
27454SOL     OW82939   3.854   8.826   7.961 -0.1534  0.5896 -0.3050
27454SOL    HW182940   3.851   8.731   7.946  0.0657  0.1806  1.9474
27454SOL    HW282941   3.945   8.850   7.946  0.0519  0.2077  0.2806
27455SOL     OW82942   0.768   3.566   2.878  0.0813  0.6704  0.2957
27455SOL    HW182943   0.736   3.656   2.871 -1.6918  0.0151 -0.6944
27455SOL    HW282944   0.747   3.527   2.793  2.1517 -0.3073  0.1635
27456SOL     OW82945   6.110   9.637   2.409  0.1953 -0.3354  0.2420
27456SOL    HW182946   6.018   9.657   2.427  1.1027  2.8833  2.1301
27456SOL    HW282947   6.133   9.570   2.473 -0.4773 -0.0167  0.8332
27457SOL     OW82948   9.841   4.136   4.020 -0.2140 -0.5169  0.1310
27457SOL    HW182949   9.908   4.202   4.002 -1.2515  0.1833 -1.3834
27457SOL    HW282950   9.770   4.185   4.062  0.7406 -1.5158  3.2171
27458SOL     OW82951   3.311   3.578   7.056 -0.3000 -0.1972 -0.1956
27458SOL    HW182952   3.361   3.638   7.111  1.2453 -0.3101 -1.4192
27458SOL    HW282953   3.272   3.515   7.117  1.1876 -0.2058  0.7828
27459SOL     OW82954   5.464   9.071   3.171 -0.0893 -0.5502  0.0905
27459SOL    HW182955   5.390   9.126   3.198 -0.6398 -0.7135 -1.0441
27459SOL    HW282956   5.539   9.108   3.217 -0.2045  1.9653 -1.5718
27460SOL     OW82957   1.897   5.387   4.998  0.1443 -0.2266 -0.0490
27460SOL    HW182958   1.940   5.347   4.922  1.3449  0.1636  0.4068
27460SOL    HW282959   1.968   5.424   5.049 -0.6510 -0.5139  1.3063
27461SOL     OW82960   1.822   3.058   5.445 -0.3072 -0.3546 -0.7649
27461SOL    HW182961   1.797   3.096   5.360 -1.6132 -1.0623 -0.7162
27461SOL    HW282962   1.799   3.125   5.509  0.5711  0.1331 -0.9446
27462SOL     OW82963   0.377   3.327   5.294 -0.2655  0.2073 -0.6552
27462SOL    HW182964   0.286   3.321   5.268 -0.0584 -0.2571 -1.2715
27462SOL    HW282965   0.425   3.278   5.228  0.4313  0.4292 -0.3260
27463SOL     OW82966   2.239   8.610   1.277 -0.7434  0.3767 -0.2242
27463SOL    HW182967   2.296   8.535   1.292  1.3290  1.6787 -1.1170
27463SOL    HW282968   2.151   8.577   1.294  0.3208 -1.4222  2.3698
27464SOL     OW82969   4.361   6.199   4.983  0.0025 -0.4674  0.3161
27464SOL    HW182970   4.312   6.278   5.007 -0.6800  0.9349 -4.4895
27464SOL    HW282971   4.453   6.225   4.989 -0.1452 -0.0855  0.9758
27465SOL     OW82972   7.133   3.485   8.070  0.7114 -0.4343  0.5409
27465SOL    HW182973   7.111   3.545   7.998 -0.0269 -0.3162  0.8638
27465SOL    HW282974   7.073   3.508   8.140 -0.3750 -2.3144  0.2829
27466SOL     OW82975   8.638   2.962   2.297  0.1644  0.0041 -0.0379
27466SOL    HW182976   8.572   2.983   2.231  0.2425  0.3850  0.0035
27466SOL    HW282977   8.704   3.030   2.287  0.0663  0.1925  0.5877
27467SOL     OW82978   7.291   8.724   7.638  0.0607  0.0614  0.2328
27467SOL    HW182979   7.298   8.687   7.726 -0.6631  1.7743  1.0382
27467SOL    HW282980   7.212   8.778   7.640 -0.4426 -0.5143 -1.7302
27468SOL     OW82981   6.611   6.224   7.473  0.1367 -0.2568 -0.3836
27468SOL    HW182982   6.520   6.218   7.445  0.4833 -0.4835 -1.5309
27468SOL    HW282983   6.629   6.139   7.514  0.0302 -0.4675 -0.7724
27469SOL     OW82984   6.547   8.162   5.246 -0.1045 -0.4360  0.6791
27469SOL    HW182985   6.494   8.157   5.166  0.4985  0.0392  0.2448
27469SOL    HW282986   6.604   8.085   5.241  0.0995 -0.2758  0.5304
27470SOL     OW82987   7.955   4.375   7.578  0.1413  0.4967  0.2115
27470SOL    HW182988   7.931   4.465   7.558 -2.7341 -0.1487  0.3608
27470SOL    HW282989   7.915   4.357   7.663 -0.1364 -1.1836 -0.2387
27471SOL     OW82990   0.709   9.342   4.193  0.2581  0.0210  0.3701
27471SOL    HW182991   0.653   9.296   4.130  0.8320 -1.2137  0.7216
27471SOL    HW282992   0.732   9.423   4.150 -1.5805  0.4559  0.1055
27472SOL     OW82993   2.567   9.911   9.491 -0.3971  0.8389 -0.4015
27472SOL    HW182994   2.482   9.951   9.510 -1.5971 -1.6314 -0.1241
27472SOL    HW282995   2.556   9.872   9.404  0.5284  0.6407 -0.4355
27473SOL     OW82996   5.145   1.003   3.097  0.2228  0.2280  0.1913
27473SOL    HW182997   5.078   0.971   3.038  0.6258  0.0946 -0.2009
27473SOL    HW282998   5.105   0.999   3.184 -0.5035  0.7704 -0.1069
27474SOL     OW82999   3.509   6.226   6.989 -0.2842 -0.2880 -0.2721
27474SOL    HW183000   3.542   6.314   7.011  0.5863 -0.4747 -0.7884
27474SOL    HW283001   3.415   6.232   7.002 -0.1372  0.4886  0.5075
27475SOL     OW83002   6.958   0.112   2.755  0.7377 -0.1091 -0.0268
27475SOL    HW183003   6.944   0.021   2.781 -0.3730 -0.2652 -1.0782
27475SOL    HW283004   6.996   0.153   2.832  1.2752 -1.4604  0.4653
27476SOL     OW83005   5.983   3.579   1.760  0.1523  0.0750 -0.1933
27476SOL    HW183006   5.908   3.630   1.793 -0.1762 -0.3406 -0.2997
27476SOL    HW283007   5.957   3.553   1.672  0.4062 -0.1086 -0.2129
27477SOL     OW83008   4.869   7.941   0.436  0.0879 -0.0448  0.6153
27477SOL    HW183009   4.840   8.012   0.380 -0.3822  0.3322  1.3136
27477SOL    HW283010   4.788   7.898   0.464  0.3932 -1.2688 -0.3063
27478SOL     OW83011   0.721   2.923   5.473 -0.3229 -0.2533  0.4658
27478SOL    HW183012   0.658   2.989   5.502 -1.0138 -0.7795  0.1944
27478SOL    HW283013   0.804   2.950   5.511  0.1012  2.4562 -2.0314
27479SOL     OW83014   0.381   8.496   7.794  0.1755  0.0412  0.1161
27479SOL    HW183015   0.304   8.531   7.837 -0.5108  0.7402 -1.5824
27479SOL    HW283016   0.444   8.568   7.794  0.0461  0.1587 -0.3234
27480SOL     OW83017   6.168   8.873   3.313  0.4293  0.5147 -0.4400
27480SOL    HW183018   6.206   8.949   3.359 -2.0087  1.8530 -0.4908
27480SOL    HW283019   6.094   8.909   3.264 -0.2234 -1.7656 -1.2375
27481SOL     OW83020   5.942   9.379   8.112 -0.3820  0.2967  0.0925
27481SOL    HW183021   5.966   9.308   8.171 -0.8704  0.6180  0.6888
27481SOL    HW283022   6.016   9.440   8.115 -0.4851  0.4009  0.5128
27482SOL     OW83023   4.298   7.633   6.496 -0.3770 -0.2282 -0.6876
27482SOL    HW183024   4.270   7.725   6.499 -0.0467 -0.1538  0.2232
27482SOL    HW283025   4.218   7.583   6.507 -0.2138 -0.0155  2.1479
27483SOL     OW83026   7.117   2.998   7.734  0.1412  0.3782  0.2801
27483SOL    HW183027   7.173   3.074   7.724 -0.4836  0.7112 -0.8457
27483SOL    HW283028   7.052   3.025   7.799 -0.1707  0.8725 -0.2277
27484SOL     OW83029   0.752   8.659   6.703  0.2549 -0.1926  0.2178
27484SOL    HW183030   0.812   8.648   6.777  0.4327 -3.6088 -0.2641
27484SOL    HW283031   0.800   8.715   6.642  1.5327 -0.1148  1.2370
27485SOL     OW83032   9.683   3.321   1.184  0.5509  0.1797 -0.0903
27485SOL    HW183033   9.639   3.241   1.212  1.5178 -0.0087  0.9696
27485SOL    HW283034   9.649   3.389   1.242 -0.1005  0.5126 -0.8417
27486SOL     OW83035   9.085   8.455   2.371 -0.4822 -0.2318 -0.0709
27486SOL    HW183036   9.056   8.376   2.417  0.9528  0.1101  1.5227
27486SOL    HW283037   9.055   8.443   2.281 -0.5547 -2.4583  0.2002
27487SOL     OW83038   5.383   9.834   1.993 -0.4073  0.3242  0.2119
27487SOL    HW183039   5.461   9.872   1.953 -1.3466  0.2195 -1.8052
27487SOL    HW283040   5.317   9.834   1.924 -1.7445 -1.0084  1.4066
27488SOL     OW83041   4.889   0.276   0.225  0.2396 -0.3591  0.1339
27488SOL    HW183042   4.944   0.205   0.258  2.0089 -0.5616 -2.8595
27488SOL    HW283043   4.947   0.352   0.223 -0.2442  0.0004 -0.9588
27489SOL     OW83044   8.840   0.700   7.626  0.0083  0.4212  0.1409
27489SOL    HW183045   8.808   0.668   7.541 -0.1205 -1.0530  0.7122
27489SOL    HW283046   8.826   0.627   7.686  1.1136  1.0405  1.2032
27490SOL     OW83047   6.555   1.927   6.444  0.3209 -0.4439  0.1700
27490SOL    HW183048   6.484   1.906   6.383 -0.7424 -0.4152  1.3435
27490SOL    HW283049   6.596   1.842   6.463  0.4823 -0.4882 -0.3566
27491SOL     OW83050   8.877   2.030   1.326 -0.9253 -0.2721  0.1847
27491SOL    HW183051   8.922   2.114   1.335 -0.0882 -0.7854  0.9754
27491SOL    HW283052   8.797   2.040   1.377 -0.4835 -0.1890  0.8647
27492SOL     OW83053   9.010   9.331   2.791 -0.0337  0.0318  0.0832
27492SOL    HW183054   9.043   9.376   2.713 -0.9924 -0.6136 -0.7001
27492SOL    HW283055   9.089   9.294   2.832  0.4818  0.4492 -0.5060
27493SOL     OW83056   7.234   8.982   2.995  0.0968  0.6339 -0.1820
27493SOL    HW183057   7.151   8.984   2.948 -0.6433  2.7248  1.0913
27493SOL    HW283058   7.301   8.992   2.927 -0.8034  0.9845 -1.0259
27494SOL     OW83059   0.381   4.976   5.929  0.0128 -0.1753 -0.3703
27494SOL    HW183060   0.471   4.959   5.902  1.0667 -0.7110  3.0928
27494SOL    HW283061   0.384   5.062   5.970 -1.1152 -0.0901 -0.4459
27495SOL     OW83062   6.921   2.580   4.590 -0.1327  0.1430 -0.0305
27495SOL    HW183063   6.855   2.556   4.525 -0.1641 -0.9686  0.3976
27495SOL    HW283064   6.961   2.660   4.555 -1.8403  0.9703 -0.2038
27496SOL     OW83065   2.038   8.471   2.915 -0.1134 -0.4591 -0.3041
27496SOL    HW183066   2.059   8.519   2.995  1.0001 -2.1479  0.4630
27496SOL    HW283067   1.946   8.448   2.924  0.4945 -2.4863  1.5899
27497SOL     OW83068   6.532   7.810   1.264 -1.1886  0.2279  0.3114
27497SOL    HW183069   6.451   7.826   1.313 -0.0880  1.6904  1.7661
27497SOL    HW283070   6.602   7.835   1.325  0.2663  3.3362 -2.3662
27498SOL     OW83071   7.522   4.664   0.325 -0.2749  0.2769  0.7742
27498SOL    HW183072   7.568   4.747   0.337 -0.3638  0.9238 -2.4311
27498SOL    HW283073   7.588   4.598   0.346 -0.0805  1.0743  2.9931
27499SOL     OW83074   0.032   8.350   8.076 -0.1260 -0.2665 -0.1809
27499SOL    HW183075   0.096   8.299   8.126  0.7895  0.7689 -0.2363
27499SOL    HW283076  -0.029   8.286   8.041  1.2165 -1.3642 -0.6019
27500SOL     OW83077   1.980   0.732   9.734 -0.9132  0.3528  0.1536
27500SOL    HW183078   1.889   0.708   9.753 -0.8218 -0.6331 -0.5734
27500SOL    HW283079   1.997   0.807   9.790 -2.2377  0.6658  0.1729
27501SOL     OW83080   2.954   9.198   5.811  0.0046  0.3999  0.0211
27501SOL    HW183081   2.993   9.122   5.767  0.5175  0.0247  1.0807
27501SOL    HW283082   3.029   9.253   5.836 -0.4167  1.8493 -1.7220
27502SOL     OW83083   7.299   6.662   4.146 -0.6538  0.0733 -0.3209
27502SOL    HW183084   7.227   6.623   4.195 -1.5374 -0.4417 -1.9678
27502SOL    HW283085   7.339   6.724   4.207 -2.0931 -0.0854  0.8287
27503SOL     OW83086   1.879   4.656   1.132  0.5115  0.1686 -0.0749
27503SOL    HW183087   1.931   4.576   1.139 -0.0982 -0.1936  0.3853
27503SOL    HW283088   1.902   4.707   1.209 -1.0189 -0.7246  1.0134
27504SOL     OW83089   0.274   2.529   0.465  0.8392  0.1021 -0.3107
27504SOL    HW183090   0.312   2.595   0.407 -0.5399  1.5737  0.3711
27504SOL    HW283091   0.259   2.575   0.547  0.4100 -1.2404  0.3899
27505SOL     OW83092   0.432   6.107   6.445  0.1176 -0.0676 -0.2485
27505SOL    HW183093   0.500   6.169   6.418  1.0658 -1.4953 -1.2754
27505SOL    HW283094   0.375   6.099   6.368 -0.7320  0.4626  0.3136
27506SOL     OW83095   1.204   9.626   6.362  0.4808 -0.0033 -0.0687
27506SOL    HW183096   1.299   9.632   6.364  0.4920 -0.0338 -0.5101
27506SOL    HW283097   1.185   9.533   6.370  0.5275 -0.1291 -1.3097
27507SOL     OW83098   6.932   1.537   1.045 -0.4225 -0.1005  0.6373
27507SOL    HW183099   7.017   1.578   1.065 -0.2731  0.7676 -1.5561
27507SOL    HW283100   6.929   1.533   0.950 -2.4066 -1.1222  0.7013
27508SOL     OW83101   6.488   5.487   1.472 -0.1372  0.1294 -0.2668
27508SOL    HW183102   6.562   5.440   1.434 -0.1638 -0.9570  0.9384
27508SOL    HW283103   6.519   5.577   1.482  2.0216 -0.7687  2.4951
27509SOL     OW83104   0.881   4.582   6.025 -0.4710 -0.5032  0.2866
27509SOL    HW183105   0.947   4.629   5.975 -0.7313  0.4761  0.8315
27509SOL    HW283106   0.930   4.528   6.086 -0.1569 -1.4460 -0.7672
27510SOL     OW83107   1.465   7.762   9.505  0.3675  0.5114 -0.0632
27510SOL    HW183108   1.442   7.716   9.585  0.2499  0.3327 -0.1990
27510SOL    HW283109   1.544   7.810   9.527 -0.1671  1.1872  0.4356
27511SOL     OW83110   1.188   0.861   9.844 -0.8078  0.5484  0.5343
27511SOL    HW183111   1.208   0.955   9.839  0.4146  0.2507 -0.7594
27511SOL    HW283112   1.262   0.818   9.802 -0.7004 -1.1196  2.2849
27512SOL     OW83113   1.875   6.866   4.951  0.2409  0.5302 -0.7637
27512SOL    HW183114   1.859   6.772   4.960 -0.0648  0.5049 -1.4296
27512SOL    HW283115   1.868   6.882   4.857 -0.0087  1.2708 -0.6280
27513SOL     OW83116   0.235   1.763   8.806 -0.2500  0.0546 -0.4828
27513SOL    HW183117   0.198   1.817   8.737 -1.2436  0.0249  0.0111
27513SOL    HW283118   0.191   1.678   8.797  0.2956 -0.2431 -0.3966
27514SOL     OW83119   4.924   5.777   4.977 -0.4312 -0.3773 -0.3906
27514SOL    HW183120   4.863   5.759   4.906  0.0443 -2.4201 -0.3303
27514SOL    HW283121   5.007   5.795   4.933 -0.9503  2.3362 -0.4698
27515SOL     OW83122   6.067   7.625   0.573 -0.1000  0.4411 -0.3258
27515SOL    HW183123   6.126   7.570   0.625  0.3136  0.0670 -1.1773
27515SOL    HW283124   5.987   7.573   0.566 -0.8764  1.2996  1.5435
27516SOL     OW83125   9.007   8.601   9.797 -0.4187 -0.1537  0.2969
27516SOL    HW183126   9.000   8.556   9.713 -1.2727  0.2404  0.1445
27516SOL    HW283127   8.969   8.687   9.782  2.1713  1.0942  0.2794
27517SOL     OW83128   1.180   2.559   4.692 -0.1177  0.3309 -0.4635
27517SOL    HW183129   1.085   2.549   4.697 -0.0994  0.8332  1.8377
27517SOL    HW283130   1.214   2.491   4.749  0.8954  0.5385 -0.7997
27518SOL     OW83131   5.825   8.734   6.989  0.2861 -0.0052 -0.0359
27518SOL    HW183132   5.920   8.743   6.989  0.2842  0.9922  2.6765
27518SOL    HW283133   5.809   8.644   6.962  1.9875 -0.2008 -0.5117
27519SOL     OW83134   1.408   8.264   1.103 -0.2777  0.3801  0.6827
27519SOL    HW183135   1.318   8.288   1.127 -0.9323 -0.9670 -0.2697
27519SOL    HW283136   1.453   8.254   1.187 -1.2176  0.3604  1.2051
27520SOL     OW83137   3.023   6.892   2.769 -0.0401  0.8377 -0.1370
27520SOL    HW183138   3.083   6.875   2.841 -0.9210 -0.7699  0.2793
27520SOL    HW283139   3.079   6.902   2.692  0.7727 -0.9723  0.1748
27521SOL     OW83140   2.053   7.346   0.294  0.1792  0.6804 -0.0679
27521SOL    HW183141   2.114   7.322   0.364  0.3758  1.0401 -0.1157
27521SOL    HW283142   2.107   7.353   0.215  0.0625  0.9149 -0.1282
27522SOL     OW83143   7.349   1.670   8.943 -0.3376  0.0937 -0.7741
27522SOL    HW183144   7.385   1.719   8.870  0.5096  1.2855  0.4022
27522SOL    HW283145   7.424   1.628   8.984 -0.7513 -0.2461 -0.3462
27523SOL     OW83146   8.550   3.312   4.534 -0.8036 -0.6333  0.5270
27523SOL    HW183147   8.633   3.267   4.546  0.6651  1.4085 -1.3449
27523SOL    HW283148   8.522   3.288   4.445 -0.4724  1.3156 -0.1365
27524SOL     OW83149   7.278   5.480   5.670  0.3055 -0.0520  0.4121
27524SOL    HW183150   7.253   5.397   5.712  0.1906 -0.0609  0.3270
27524SOL    HW283151   7.350   5.456   5.612 -1.5367 -0.6697 -1.8040
27525SOL     OW83152   5.880   7.266   9.754  0.0758 -0.2213 -0.4489
27525SOL    HW183153   5.864   7.271   9.659  2.0469  1.9143 -0.7639
27525SOL    HW283154   5.935   7.189   9.765  0.6422  0.0647 -1.2017
27526SOL     OW83155   0.780   9.567   7.974 -0.4052  0.7030  0.0715
27526SOL    HW183156   0.750   9.532   8.058  1.6399 -1.7737 -0.1198
27526SOL    HW283157   0.700   9.574   7.921 -1.4014 -0.0833  1.4173
27527SOL     OW83158   6.076   9.906   8.313 -0.0833 -0.5503  0.2527
27527SOL    HW183159   6.015   9.851   8.263 -0.1332 -1.1789  0.9884
27527SOL    HW283160   6.036   9.912   8.400 -0.0751  0.6620  0.1889
27528SOL     OW83161   4.288   8.918   9.862  0.4795 -0.2366 -0.0549
27528SOL    HW183162   4.214   8.964   9.901  0.0207  0.0421 -1.2278
27528SOL    HW283163   4.249   8.846   9.812  0.9148  0.4791 -1.4690
27529SOL     OW83164   6.614   4.308   3.349  0.0847  0.2596  0.1320
27529SOL    HW183165   6.624   4.298   3.255  0.6135 -0.5418  0.2623
27529SOL    HW283166   6.597   4.219   3.381  1.6405  0.2352  0.9846
27530SOL     OW83167   5.224   6.089   6.064 -0.4020 -0.2864  0.1981
27530SOL    HW183168   5.153   6.101   6.001  0.3884 -0.1750 -0.7079
27530SOL    HW283169   5.276   6.169   6.057  0.6313 -0.9713 -0.2603
27531SOL     OW83170   0.749   1.504   3.737 -0.7189 -0.3330  0.2900
27531SOL    HW183171   0.732   1.481   3.828 -0.1103  0.0503  0.5066
27531SOL    HW283172   0.695   1.582   3.721  0.5647  0.7144  0.8918
27532SOL     OW83173   1.596   3.720   6.157 -0.3080  0.4025 -0.5656
27532SOL    HW183174   1.608   3.762   6.241 -1.1270  0.6020 -0.5424
27532SOL    HW283175   1.526   3.656   6.171  0.1347 -0.1716 -0.8849
27533SOL     OW83176   6.725   2.380   8.363 -0.3561 -0.1854 -0.0035
27533SOL    HW183177   6.818   2.358   8.355  0.3872  2.1418  1.3479
27533SOL    HW283178   6.707   2.435   8.287 -0.0759  0.9747  0.7508
27534SOL     OW83179   7.280   0.362   0.794  0.3825 -0.0635  0.4346
27534SOL    HW183180   7.337   0.387   0.866  0.8224  1.1077 -0.2859
27534SOL    HW283181   7.191   0.369   0.829  0.4905  2.2240  0.4117
27535SOL     OW83182   8.168   6.882   1.251 -0.8752  0.5192 -0.3208
27535SOL    HW183183   8.199   6.826   1.179 -1.2510 -2.8814  1.9263
27535SOL    HW283184   8.076   6.900   1.229 -0.9149 -0.2403 -0.8306
27536SOL     OW83185   6.710   9.847   4.178  0.5351 -0.0385  0.1535
27536SOL    HW183186   6.649   9.783   4.139  0.9601  0.1279 -0.7954
27536SOL    HW283187   6.780   9.793   4.215  0.0812 -0.2028  0.8016
27537SOL     OW83188   8.755   0.949   7.431  0.2595 -0.1990  0.3260
27537SOL    HW183189   8.689   0.884   7.455  0.1627 -0.7047 -1.2296
27537SOL    HW283190   8.838   0.906   7.449  0.1966  0.1155  1.4531
27538SOL     OW83191   2.538   1.339   3.488 -0.0160  0.1951  0.3272
27538SOL    HW183192   2.590   1.345   3.408 -1.3510  3.0469 -0.4642
27538SOL    HW283193   2.462   1.287   3.464 -0.4169  1.0511 -0.3040
27539SOL     OW83194   9.354   4.053   9.922 -0.4438 -0.1699  0.0589
27539SOL    HW183195   9.400   4.006   9.992 -0.1252 -0.9777 -0.6807
27539SOL    HW283196   9.267   4.069   9.958 -0.5991 -1.4305  0.2920
27540SOL     OW83197   8.326   0.128   9.013 -0.2477  0.1134  0.0033
27540SOL    HW183198   8.241   0.110   8.971 -0.4020  0.1061  0.3127
27540SOL    HW283199   8.370   0.043   9.014 -0.3055  0.0828 -0.0105
27541SOL     OW83200   6.610   7.568   4.307 -0.4897  0.4570  0.4242
27541SOL    HW183201   6.567   7.601   4.228  0.3488  0.5071 -0.0245
27541SOL    HW283202   6.564   7.487   4.327 -0.7489  0.4749 -0.0752
27542SOL     OW83203   1.723   7.003   7.512  0.4568  0.0058  0.6414
27542SOL    HW183204   1.638   7.037   7.540 -0.3738 -0.6991 -0.9162
27542SOL    HW283205   1.709   6.908   7.505  0.5614  0.1094 -2.0690
27543SOL     OW83206   2.343   3.222   0.394  0.1805 -0.2104  0.0457
27543SOL    HW183207   2.375   3.265   0.473  1.1464 -0.9850  0.0988
27543SOL    HW283208   2.295   3.291   0.347  2.6059  1.2877 -0.4187
27544SOL     OW83209   3.134   0.619   0.658  0.1414  0.1523 -0.2460
27544SOL    HW183210   3.203   0.685   0.669  0.0911  0.0289  0.8358
27544SOL    HW283211   3.147   0.558   0.730 -2.3304  1.2170  1.2122
27545SOL     OW83212   1.918   0.962   0.262 -0.3043 -0.1096  0.1284
27545SOL    HW183213   1.991   1.025   0.255 -0.7083  0.4828  1.0179
27545SOL    HW283214   1.956   0.887   0.308  0.2925 -0.7217 -1.3130
27546SOL     OW83215   2.412   9.815   6.310  0.0656 -0.4718  0.0577
27546SOL    HW183216   2.415   9.729   6.267 -0.6259 -1.2676  1.5393
27546SOL    HW283217   2.482   9.811   6.375  0.4485  0.3420 -0.2959
27547SOL     OW83218   4.243   4.467   9.345  0.8127  0.2451 -0.2919
27547SOL    HW183219   4.321   4.518   9.321  0.4251  2.4942  2.5902
27547SOL    HW283220   4.216   4.503   9.430 -3.5100 -0.2813 -1.2021
27548SOL     OW83221   5.877   0.633   9.380  0.9287 -0.1949 -0.6468
27548SOL    HW183222   5.969   0.658   9.385 -0.0678  3.9298  1.4978
27548SOL    HW283223   5.864   0.571   9.451  1.7161  0.8407  0.4366
27549SOL     OW83224   6.066   1.252   6.278 -0.3433 -0.0807  0.7432
27549SOL    HW183225   6.133   1.287   6.336  0.0642  1.0948 -0.4050
27549SOL    HW283226   5.996   1.317   6.278 -0.8464 -0.6084  0.7950
27550SOL     OW83227   1.437   1.585   1.965 -1.0758 -0.4225 -0.0694
27550SOL    HW183228   1.458   1.620   1.879 -2.3658  2.7286  0.7828
27550SOL    HW283229   1.343   1.566   1.961 -0.7616 -2.2386  0.0854
27551SOL     OW83230   7.219   3.195   3.024 -0.1983  0.0482  0.1184
27551SOL    HW183231   7.235   3.281   2.985  2.0342 -0.1293  0.5011
27551SOL    HW283232   7.170   3.213   3.104  0.0483  0.9646  0.0735
27552SOL     OW83233   0.065   0.462   9.202  0.0546  0.0732  0.0181
27552SOL    HW183234   0.021   0.387   9.162  1.6839 -0.9275  0.0360
27552SOL    HW283235   0.008   0.536   9.181 -0.8425 -0.9322 -1.2903
27553SOL     OW83236   1.109   0.565   6.618  0.0659  0.3055  0.2553
27553SOL    HW183237   1.131   0.652   6.652 -0.5305  1.0475 -1.2012
27553SOL    HW283238   1.030   0.579   6.566  1.0734 -0.7138 -1.6448
27554SOL     OW83239   1.466   2.605   8.172 -0.0410 -0.2568  0.1107
27554SOL    HW183240   1.416   2.620   8.091 -1.1464  0.4627  0.9043
27554SOL    HW283241   1.515   2.686   8.185  1.9921 -1.2212 -1.0575
27555SOL     OW83242   1.671   3.792   5.778 -0.2905  0.5792 -0.1527
27555SOL    HW183243   1.590   3.838   5.796  1.5520  3.5250  1.4188
27555SOL    HW283244   1.719   3.850   5.719  2.4027  1.2057  2.4186
27556SOL     OW83245   2.712   1.772   1.924  0.5749 -0.2028 -0.8539
27556SOL    HW183246   2.700   1.709   1.852 -0.0558  0.8812 -1.7260
27556SOL    HW283247   2.626   1.777   1.966  0.2370  1.0470 -1.6342
27557SOL     OW83248   8.226   8.878   4.227 -0.3591 -0.9723 -0.5476
27557SOL    HW183249   8.269   8.921   4.153 -0.3137  1.1312  0.6175
27557SOL    HW283250   8.298   8.857   4.287 -0.7092  1.8359  1.0454
27558SOL     OW83251   5.954   2.930   5.322 -0.0815 -0.7328 -0.2184
27558SOL    HW183252   5.948   2.972   5.408  1.5263 -0.9084  0.0252
27558SOL    HW283253   5.950   2.836   5.341  1.1998 -0.8071 -0.1921
27559SOL     OW83254   7.274   9.935   3.703 -0.3902  0.1670  0.1848
27559SOL    HW183255   7.271   9.885   3.622  0.4581  0.4242 -0.0183
27559SOL    HW283256   7.339   9.890   3.757 -0.1585  0.6102  0.2872
27560SOL     OW83257   7.981   5.888   1.478 -0.3123 -0.1929 -0.6286
27560SOL    HW183258   7.888   5.902   1.499 -0.3247 -2.3453  0.9825
27560SOL    HW283259   7.984   5.890   1.382 -1.9097  0.4775 -0.6972
27561SOL     OW83260   2.901   4.191   8.492 -0.0526  0.2514 -0.0138
27561SOL    HW183261   2.947   4.255   8.546  1.7633 -0.5926 -0.4706
27561SOL    HW283262   2.850   4.243   8.430  0.8970  1.2660  0.0255
27562SOL     OW83263   8.257   0.998   1.600  0.0848  0.0003  0.2247
27562SOL    HW183264   8.314   1.009   1.524 -1.8607  2.0076 -1.0597
27562SOL    HW283265   8.187   0.939   1.569 -0.6412  0.7076  0.4857
27563SOL     OW83266   9.318   1.018   8.792 -0.2349 -0.0931  0.3489
27563SOL    HW183267   9.395   1.065   8.759  0.8076 -0.9608  1.4813
27563SOL    HW283268   9.351   0.931   8.814 -1.8486 -0.9475 -0.4640
27564SOL     OW83269   8.183   2.585   3.290  0.4763  0.4820  0.5723
27564SOL    HW183270   8.144   2.510   3.335  0.0007  0.3096 -0.0985
27564SOL    HW283271   8.122   2.657   3.306  0.6143  0.5691  0.7038
27565SOL     OW83272   1.920   5.483   3.503  0.2660  0.0053  0.3663
27565SOL    HW183273   1.850   5.420   3.486  0.9663 -0.4514 -0.9333
27565SOL    HW283274   1.969   5.444   3.575  0.8886 -1.1364 -0.6372
27566SOL     OW83275   7.535   2.746   9.386  0.3227  0.3234 -0.8107
27566SOL    HW183276   7.464   2.759   9.449  0.8234 -0.6821 -0.0049
27566SOL    HW283277   7.614   2.772   9.434  0.7095 -0.4201 -1.0343
27567SOL     OW83278   8.880   1.844   5.329 -0.0893 -0.5727 -0.3055
27567SOL    HW183279   8.927   1.900   5.390 -2.7235 -0.7270  2.0832
27567SOL    HW283280   8.854   1.902   5.257  2.6169 -0.2752 -1.1412
27568SOL     OW83281   3.754   5.745   7.937 -0.3309  0.3953  0.4736
27568SOL    HW183282   3.837   5.780   7.967 -1.6850  2.1185  2.4786
27568SOL    HW283283   3.731   5.678   8.000 -0.3380 -0.2966 -0.2471
27569SOL     OW83284   5.136   6.000   3.979  0.2143  0.2625 -0.1822
27569SOL    HW183285   5.183   6.042   4.050 -0.3902  1.3843 -0.4317
27569SOL    HW283286   5.154   5.906   3.991 -0.5000  0.3299  1.9222
27570SOL     OW83287   3.147   7.775   4.553  0.2131  0.0192  0.0158
27570SOL    HW183288   3.068   7.724   4.570  0.5366 -0.6189 -0.3613
27570SOL    HW283289   3.164   7.821   4.635 -0.9552  0.7355 -0.1267
27571SOL     OW83290   3.492   5.670   3.397  0.1415 -0.1928 -0.3737
27571SOL    HW183291   3.512   5.605   3.329  0.1065 -0.5603 -0.0348
27571SOL    HW283292   3.414   5.636   3.441  0.1201  0.0805 -0.1978
27572SOL     OW83293   2.974   7.984   8.820 -0.3921  0.0168 -0.7299
27572SOL    HW183294   3.019   8.062   8.788 -0.7318  0.2371 -0.6866
27572SOL    HW283295   2.992   7.983   8.914  1.4326 -1.1809 -1.0375
27573SOL     OW83296   4.489   1.173   9.030 -0.1606 -0.6210  0.0923
27573SOL    HW183297   4.471   1.097   8.974  0.8009 -0.8617  0.0937
27573SOL    HW283298   4.519   1.241   8.969 -2.5527  0.3194 -0.1207
27574SOL     OW83299   3.232   6.817   0.418 -0.5744  0.2901  0.6002
27574SOL    HW183300   3.167   6.751   0.395  0.7258 -0.9858  0.4448
27574SOL    HW283301   3.230   6.820   0.514  0.2585 -0.9269  0.6634
27575SOL     OW83302   0.327   0.745   3.687  0.1323  0.4681 -0.0824
27575SOL    HW183303   0.292   0.706   3.767  0.5436  0.4692  0.0998
27575SOL    HW283304   0.269   0.713   3.618 -0.0949  0.2904  0.1862
27576SOL     OW83305   4.723   3.162   0.505  0.3174  0.0686  0.0626
27576SOL    HW183306   4.741   3.135   0.415 -1.6073  0.5105 -0.4986
27576SOL    HW283307   4.701   3.081   0.550  0.7624 -0.0868  0.0056
27577SOL     OW83308   8.903   0.271   9.624 -0.1278 -0.0839  0.4024
27577SOL    HW183309   8.871   0.239   9.709 -1.4305  0.3664  0.1074
27577SOL    HW283310   8.847   0.346   9.605  0.5441  0.1763 -0.5932
27578SOL     OW83311   4.350   7.680   7.417 -0.0574  0.5233 -0.0659
27578SOL    HW183312   4.328   7.762   7.461 -1.5808  0.7689 -1.2252
27578SOL    HW283313   4.378   7.705   7.330  0.8590 -0.1073  0.0342
27579SOL     OW83314   9.853   4.457   0.384  0.3507  0.4280  0.2531
27579SOL    HW183315   9.854   4.520   0.312  2.6133  0.4312  0.1901
27579SOL    HW283316   9.946   4.438   0.399 -0.1933 -1.6401  1.3668
27580SOL     OW83317   5.539   7.271   2.687  0.8002 -0.5361 -0.1348
27580SOL    HW183318   5.582   7.289   2.604  1.4276 -1.9382 -0.1409
27580SOL    HW283319   5.463   7.218   2.663 -1.2282  2.2065 -0.1630
27581SOL     OW83320   4.342   1.866   1.396  0.0551  0.5423  0.0354
27581SOL    HW183321   4.392   1.831   1.469  0.6720  2.7744  0.7865
27581SOL    HW283322   4.303   1.790   1.354  0.2651 -0.8896  2.2628
27582SOL     OW83323   6.830   3.757   7.784 -0.3394  0.1172 -0.2764
27582SOL    HW183324   6.860   3.810   7.857  1.0125  0.7512 -1.2555
27582SOL    HW283325   6.824   3.818   7.710  0.7306 -0.9472 -1.2922
27583SOL     OW83326   4.800   2.566   6.207 -0.0446  0.1726 -0.1192
27583SOL    HW183327   4.808   2.646   6.259  0.7920  0.7036 -1.0357
27583SOL    HW283328   4.711   2.568   6.173 -0.2906  0.3004  0.5259
27584SOL     OW83329   4.320   5.674   4.942  0.0908  0.3172  0.2857
27584SOL    HW183330   4.278   5.635   4.865  1.8394 -1.0032 -0.0637
27584SOL    HW283331   4.411   5.647   4.936  0.2856  0.1581  2.8464
27585SOL     OW83332   7.970   9.603   5.539 -0.7836 -0.2029  0.0678
27585SOL    HW183333   7.895   9.662   5.545 -0.7195 -0.0458 -0.6169
27585SOL    HW283334   8.017   9.632   5.461  0.1392 -0.1254  0.6418
27586SOL     OW83335   5.809   8.963   1.751 -1.0222  0.4552 -0.2863
27586SOL    HW183336   5.848   8.881   1.782 -0.5950  0.8404  0.2218
27586SOL    HW283337   5.812   9.020   1.827 -1.0285  1.0453 -0.7258
27587SOL     OW83338   4.423   6.719   3.111 -0.2816 -0.3226  0.9617
27587SOL    HW183339   4.424   6.624   3.102 -1.5861 -0.3667  1.1460
27587SOL    HW283340   4.330   6.742   3.117 -0.1090  1.1438 -0.9055
27588SOL     OW83341   3.818   0.006   5.369 -0.2967  0.2241  0.1995
27588SOL    HW183342   3.741   0.016   5.425 -0.4229  1.2221 -0.1282
27588SOL    HW283343   3.814   0.081   5.309  0.2243 -0.4306 -0.6750
27589SOL     OW83344   0.940   7.015   2.291  0.0253  0.0449  0.1057
27589SOL    HW183345   0.912   7.100   2.325 -0.0292 -0.4177  1.2444
27589SOL    HW283346   0.986   7.036   2.209  1.8970  1.3963  1.4125
27590SOL     OW83347   8.676   7.812   5.289  0.9610 -0.2051 -0.1242
27590SOL    HW183348   8.710   7.820   5.200 -1.4328  2.0395 -0.9825
27590SOL    HW283349   8.730   7.872   5.340  0.7393  0.4699 -0.6571
27591SOL     OW83350   4.787   9.582   5.926 -0.5623 -0.5556  0.0056
27591SOL    HW183351   4.774   9.607   6.018 -1.8666 -0.2417 -0.2581
27591SOL    HW283352   4.883   9.576   5.917 -0.4280 -1.1516  1.5246
27592SOL     OW83353   1.279   5.924   9.155 -0.4651  0.2964  0.8315
27592SOL    HW183354   1.340   5.992   9.184  2.1801 -1.3839 -0.4130
27592SOL    HW283355   1.280   5.932   9.059  1.0357 -2.2746  0.5404
27593SOL     OW83356   4.119   4.476   2.005  0.2810  0.1198  0.0255
27593SOL    HW183357   4.027   4.476   1.977  0.4513  0.4962 -0.5614
27593SOL    HW283358   4.118   4.434   2.091 -0.5014  0.5439  0.2348
27594SOL     OW83359   8.526   1.455   6.653  0.0596  0.2695 -0.1183
27594SOL    HW183360   8.452   1.484   6.707 -0.5761 -0.8640 -0.3334
27594SOL    HW283361   8.553   1.372   6.692  0.8717  0.4056 -0.3725
27595SOL     OW83362   4.512   6.760   2.554 -0.3963 -0.0384 -0.6154
27595SOL    HW183363   4.566   6.801   2.486  0.6895 -0.5542 -0.0884
27595SOL    HW283364   4.523   6.666   2.540 -2.3899 -0.1869 -1.4424
27596SOL     OW83365   5.306   8.846   8.960 -0.2577  0.0610 -0.0367
27596SOL    HW183366   5.381   8.901   8.938 -0.3623 -0.5115 -1.9797
27596SOL    HW283367   5.237   8.907   8.984  0.4881  0.6334  0.6943
27597SOL     OW83368   1.923   0.679   6.774  0.1740 -0.3655 -0.5390
27597SOL    HW183369   1.904   0.752   6.832  3.6429  0.7389 -0.5699
27597SOL    HW283370   1.939   0.719   6.689 -0.6180 -1.5080 -1.2572
27598SOL     OW83371   9.260   0.205   5.779  0.1541  0.0931  0.1895
27598SOL    HW183372   9.258   0.196   5.874 -0.9681 -2.3188  0.0032
27598SOL    HW283373   9.303   0.126   5.747  0.6856  0.9402 -1.3186
27599SOL     OW83374   0.740   8.551   9.543 -0.6655  0.3643  0.3580
27599SOL    HW183375   0.725   8.559   9.449  0.1245 -0.3564  0.1616
27599SOL    HW283376   0.661   8.507   9.575 -1.0705  0.8818  0.0840
27600SOL     OW83377   3.534   6.022   3.947 -0.1273  0.4646  0.6759
27600SOL    HW183378   3.555   5.931   3.927  1.2357  0.6386  1.2268
27600SOL    HW283379   3.581   6.072   3.880 -2.2296  0.7472 -0.6919
27601SOL     OW83380   3.148   0.504   6.314 -0.0927  0.2071 -0.3763
27601SOL    HW183381   3.087   0.439   6.279 -4.6148  2.2156  2.8310
27601SOL    HW283382   3.141   0.578   6.255  1.5146 -0.4842 -1.5003
27602SOL     OW83383   7.708   2.506   1.175  0.6339 -0.5422  0.1669
27602SOL    HW183384   7.628   2.455   1.188  0.2450 -0.0830 -0.3880
27602SOL    HW283385   7.751   2.465   1.100  0.2814 -0.0147 -0.3298
27603SOL     OW83386   7.629   5.688   0.940 -0.3410 -0.2488 -0.4421
27603SOL    HW183387   7.620   5.681   0.845  0.0870 -0.4090 -0.4710
27603SOL    HW283388   7.684   5.614   0.965 -1.8162 -1.1955  0.1421
27604SOL     OW83389   3.184   8.386   3.011  0.2016 -0.1066 -0.3357
27604SOL    HW183390   3.195   8.391   2.916  0.0541 -0.7507 -0.3982
27604SOL    HW283391   3.162   8.294   3.027 -0.2604  0.1021  0.2701
27605SOL     OW83392   2.150   4.074   9.009 -0.2403  0.1980 -0.1339
27605SOL    HW183393   2.133   3.996   8.957  1.0375  0.0746 -0.4020
27605SOL    HW283394   2.110   4.056   9.094  1.0988 -1.3025  0.2205
27606SOL     OW83395   4.589   7.439   4.168 -0.1612  0.3025 -0.1196
27606SOL    HW183396   4.584   7.344   4.158  2.7354  0.0403  0.0526
27606SOL    HW283397   4.683   7.458   4.174 -0.6981  3.0408  1.3785
27607SOL     OW83398   3.565   2.136   4.057  0.0338  0.4206  0.2480
27607SOL    HW183399   3.595   2.101   3.973  0.0256 -1.6127  1.0159
27607SOL    HW283400   3.645   2.155   4.105  0.1955 -2.1863  1.1875
27608SOL     OW83401   8.231   8.879   1.994 -0.1899 -0.2950  0.1770
27608SOL    HW183402   8.310   8.928   1.970 -0.3697  0.0131  0.2070
27608SOL    HW283403   8.164   8.946   2.008 -0.3876 -0.5365  0.4191
27609SOL     OW83404   9.668   0.260   2.929 -0.0571  0.4544  0.4532
27609SOL    HW183405   9.734   0.228   2.868  2.8733  1.7779  2.6887
27609SOL    HW283406   9.661   0.354   2.909 -0.5567  0.5133  0.8865
27610SOL     OW83407   9.884   0.844   9.551  0.5111 -0.1905 -0.3637
27610SOL    HW183408   9.930   0.925   9.571 -0.9656  1.1032 -1.9911
27610SOL    HW283409   9.885   0.795   9.633  1.9424  1.1897  0.4881
27611SOL     OW83410   3.453   2.026   6.671  1.3472  0.0080  0.1544
27611SOL    HW183411   3.478   1.938   6.700  0.1139 -0.8189 -1.1663
27611SOL    HW283412   3.468   2.082   6.748 -2.8178 -2.1989  2.9972
27612SOL     OW83413   8.288   2.573   5.157  0.6091 -0.3789 -0.2014
27612SOL    HW183414   8.334   2.647   5.117 -0.3995  1.8123  2.3915
27612SOL    HW283415   8.225   2.545   5.090 -0.8087  2.9206 -0.4280
27613SOL     OW83416   5.391   8.258   6.993 -0.6804  0.7680  0.2418
27613SOL    HW183417   5.374   8.304   7.076 -0.7611 -1.3139  1.4663
27613SOL    HW283418   5.466   8.201   7.012 -0.3006  0.6942 -1.3335
27614SOL     OW83419   0.992   6.147   2.572 -0.9520  0.1850  0.1681
27614SOL    HW183420   0.973   6.069   2.518 -0.0489  0.8066 -1.0855
27614SOL    HW283421   1.024   6.111   2.655 -2.9610 -0.8066  0.5923
27615SOL     OW83422  -0.025   6.097   1.188 -0.0618  0.3975 -0.1977
27615SOL    HW183423  -0.013   6.119   1.281  0.4609 -3.2547  0.7330
27615SOL    HW283424   0.052   6.133   1.145  2.0707 -1.6474  1.6290
27616SOL     OW83425   2.934   7.672   2.599 -0.2622  0.1862  0.0619
27616SOL    HW183426   2.970   7.603   2.654  0.9717  0.9631  0.2602
27616SOL    HW283427   2.875   7.720   2.656 -3.1096 -2.1172 -0.6981
27617SOL     OW83428   8.502   6.713   9.977 -0.1752 -0.4337 -0.0414
27617SOL    HW183429   8.505   6.641   9.914  0.7775  0.1812 -0.7418
27617SOL    HW283430   8.497   6.792   9.923 -2.9125  0.0203  0.7309
27618SOL     OW83431   7.226   6.592   2.526 -0.8484 -0.3981 -0.3451
27618SOL    HW183432   7.308   6.640   2.515 -1.3144  0.6298  0.4524
27618SOL    HW283433   7.189   6.625   2.608 -1.7907 -1.2481 -0.4000
27619SOL     OW83434   1.801   2.066   7.934 -0.1115 -0.2657 -0.0288
27619SOL    HW183435   1.861   2.141   7.925 -1.1145  0.6921  0.9451
27619SOL    HW283436   1.730   2.099   7.988 -0.4573 -2.0253  0.6501
27620SOL     OW83437   5.309   9.351   6.177 -0.3163 -0.9259  0.0220
27620SOL    HW183438   5.313   9.310   6.091 -0.1419  1.1182 -1.0032
27620SOL    HW283439   5.375   9.306   6.229  0.7865 -1.0739 -1.4422
27621SOL     OW83440   4.887   7.327   1.456 -0.1650  0.1267  0.5743
27621SOL    HW183441   4.814   7.267   1.465  0.6004 -0.7652  1.0034
27621SOL    HW283442   4.927   7.328   1.543  0.1676  0.8228  0.4191
27622SOL     OW83443   3.330   2.339   0.445 -0.5907  0.2784 -0.1914
27622SOL    HW183444   3.385   2.391   0.386 -2.3517  0.4441 -1.7911
27622SOL    HW283445   3.245   2.335   0.401 -1.6123 -0.7307  1.7462
27623SOL     OW83446   1.405   2.061   9.411  0.3227 -0.4788 -0.6770
27623SOL    HW183447   1.399   1.983   9.357 -0.8664 -1.0162  0.1833
27623SOL    HW283448   1.330   2.114   9.385 -1.1084 -1.3851  1.3450
27624SOL     OW83449   2.842   8.442   9.199  0.1562  0.0697  0.1861
27624SOL    HW183450   2.752   8.468   9.216  0.8004  1.9634  0.9443
27624SOL    HW283451   2.890   8.465   9.278  1.1011 -2.2238  0.3624
27625SOL     OW83452   5.676   4.249   6.361  0.0236  0.6000  0.2233
27625SOL    HW183453   5.644   4.267   6.449  0.4479 -0.0876  0.5255
27625SOL    HW283454   5.675   4.334   6.317  0.8819  1.1562  1.2337
27626SOL     OW83455   7.972   4.317   7.060 -0.3262 -0.1537 -0.5499
27626SOL    HW183456   7.942   4.406   7.076 -0.3780 -0.2611 -0.0128
27626SOL    HW283457   7.907   4.262   7.103  2.2472 -0.3387  3.7521
27627SOL     OW83458   5.674   0.416   6.100  0.6117  0.0433  0.2919
27627SOL    HW183459   5.713   0.405   6.013  1.0579  1.7944  0.2324
27627SOL    HW283460   5.743   0.389   6.161  0.3820 -0.9568  0.1326
27628SOL     OW83461   2.544   5.296   5.679 -0.2879 -0.2338  0.5797
27628SOL    HW183462   2.569   5.249   5.759  1.7395  1.2720  0.9272
27628SOL    HW283463   2.566   5.236   5.608  2.0945  0.0021  1.0173
27629SOL     OW83464   0.339   6.586   7.204 -0.1328  0.4596  0.3189
27629SOL    HW183465   0.295   6.602   7.287  0.3745  0.3644  0.6095
27629SOL    HW283466   0.330   6.492   7.189  1.8023  0.0357  1.4555
27630SOL     OW83467   1.285   3.869   6.486 -0.2567  0.5151  0.2639
27630SOL    HW183468   1.320   3.792   6.531  0.3025  1.0223  0.7268
27630SOL    HW283469   1.210   3.895   6.539  0.4646  1.1759  1.0075
27631SOL     OW83470   3.953   2.715   5.703  0.7614 -0.5710 -0.0538
27631SOL    HW183471   3.916   2.787   5.652 -0.7847 -2.0292 -1.1094
27631SOL    HW283472   4.008   2.668   5.642 -0.3196 -1.7648 -0.1598
27632SOL     OW83473   4.110   4.201   7.491 -0.0140  0.3697 -0.4270
27632SOL    HW183474   4.160   4.182   7.411 -1.7716 -1.8134 -1.0833
27632SOL    HW283475   4.176   4.199   7.561  1.1383 -0.4374 -1.4904
27633SOL     OW83476   9.101   7.143   6.969 -0.3372  0.2209 -0.4231
27633SOL    HW183477   9.090   7.163   6.876  2.9317  2.5880 -0.5103
27633SOL    HW283478   9.119   7.228   7.010  0.9282 -1.0440  1.8805
27634SOL     OW83479   9.945   5.872   0.838  0.0382  0.0727 -0.5191
27634SOL    HW183480   9.913   5.961   0.826  0.1234  0.0545 -0.8975
27634SOL    HW283481  10.022   5.867   0.781  2.4006  0.9718  2.3304
27635SOL     OW83482   9.087   2.451   5.681  0.4091 -0.1861  0.0575
27635SOL    HW183483   9.137   2.525   5.714  1.8377 -0.8383 -0.5568
27635SOL    HW283484   9.105   2.449   5.587 -0.7691 -0.4647 -0.1873
27636SOL     OW83485   4.959   1.545   6.804  0.0585  0.2432 -0.4316
27636SOL    HW183486   4.884   1.496   6.837  0.4843 -0.8288 -1.0211
27636SOL    HW283487   4.930   1.576   6.718 -0.2443  1.1445 -0.0230
27637SOL     OW83488   0.816   9.631   8.930  0.5356  0.6206 -0.7492
27637SOL    HW183489   0.754   9.569   8.968  0.8034  0.7173 -0.1435
27637SOL    HW283490   0.884   9.641   8.997 -0.1990  2.6127 -0.2229
27638SOL     OW83491   7.697   6.137   1.953 -0.0617 -0.1646  0.3673
27638SOL    HW183492   7.694   6.091   1.869  0.3628  2.2858 -1.0807
27638SOL    HW283493   7.790   6.139   1.975  0.1101  1.3544 -0.4126
27639SOL     OW83494   4.518   3.994   6.976 -0.2641 -0.2077 -0.1129
27639SOL    HW183495   4.529   4.087   6.998  1.9954 -0.2884 -0.7293
27639SOL    HW283496   4.587   3.949   7.025  0.7072 -1.1493 -2.2234
27640SOL     OW83497   9.498   6.290   9.150 -0.3509  0.2175 -0.1102
27640SOL    HW183498   9.578   6.327   9.187  0.0390 -1.4445  0.8255
27640SOL    HW283499   9.430   6.355   9.169  0.5482  1.0940  0.1755
27641SOL     OW83500   7.706   2.679   6.739  0.2667 -0.3780  0.1002
27641SOL    HW183501   7.800   2.679   6.756  0.1199  1.1314  1.1101
27641SOL    HW283502   7.666   2.678   6.826 -0.6478 -0.6212 -0.3125
27642SOL     OW83503   8.436   2.421   6.320 -0.1398 -0.4314 -0.1801
27642SOL    HW183504   8.504   2.445   6.257 -0.4016 -0.1604 -0.3628
27642SOL    HW283505   8.354   2.426   6.271 -0.6267  2.1083  0.7235
27643SOL     OW83506   7.624   9.568   5.331 -0.3659  0.0603  0.1671
27643SOL    HW183507   7.687   9.639   5.337 -0.2747 -0.0076  0.0296
27643SOL    HW283508   7.581   9.566   5.416  0.6480 -0.6620  0.6821
27644SOL     OW83509   7.779   3.063   7.511 -0.2647 -0.8548 -0.1184
27644SOL    HW183510   7.703   3.054   7.568 -1.1538 -0.3084 -1.1728
27644SOL    HW283511   7.847   3.100   7.567 -2.0019  2.6325 -0.0054
27645SOL     OW83512   4.224   3.642   7.012 -0.4393 -0.2832 -0.4156
27645SOL    HW183513   4.218   3.652   6.917  1.1831 -1.4416 -0.6779
27645SOL    HW283514   4.250   3.551   7.026 -0.3897 -0.0690  1.1306
27646SOL     OW83515   8.021   2.752   0.967  0.1496 -0.0925 -0.1175
27646SOL    HW183516   8.077   2.720   1.038  0.9609 -1.0835 -1.1646
27646SOL    HW283517   8.069   2.826   0.930 -1.6650  2.4484  2.2157
27647SOL     OW83518   5.562   6.296   9.499 -0.2617 -0.0057 -0.0135
27647SOL    HW183519   5.476   6.333   9.522  0.4664  1.9577 -0.2079
27647SOL    HW283520   5.543   6.233   9.430 -1.5111  0.8603 -0.5123
27648SOL     OW83521   1.120   8.348   8.863  0.1757 -0.3206  0.2101
27648SOL    HW183522   1.074   8.309   8.789 -0.6953 -0.0946  0.6242
27648SOL    HW283523   1.088   8.438   8.867 -0.1390 -0.4609  1.1307
27649SOL     OW83524   3.966   4.169   3.443 -0.1235  0.0066  0.3928
27649SOL    HW183525   3.910   4.095   3.465 -0.8991  0.4589  0.0260
27649SOL    HW283526   3.904   4.243   3.434  0.7404  1.0049  2.0722
27650SOL     OW83527   3.345   6.493   8.361 -0.0629 -0.0049  0.3860
27650SOL    HW183528   3.406   6.489   8.435  0.7650 -2.4925 -0.3503
27650SOL    HW283529   3.335   6.403   8.333 -0.2075  0.8415 -2.6580
27651SOL     OW83530   5.008   6.599   2.785  0.2983  0.0260  0.2049
27651SOL    HW183531   5.019   6.514   2.742 -0.3145 -0.0447  0.1745
27651SOL    HW283532   5.012   6.579   2.878 -0.2920 -0.1047  0.2045
27652SOL     OW83533   1.396   5.361   1.810 -0.5589  0.1956 -0.1878
27652SOL    HW183534   1.303   5.342   1.793 -0.7067  1.0515 -0.3726
27652SOL    HW283535   1.399   5.380   1.904 -0.9201  2.0036 -0.5034
27653SOL     OW83536   9.393   9.242   7.185  0.4824  0.2889 -0.0636
27653SOL    HW183537   9.326   9.297   7.226  0.2254 -0.5696  0.6946
27653SOL    HW283538   9.348   9.199   7.112 -0.0477 -0.9104  0.9306
27654SOL     OW83539   2.875   4.363   8.986  0.5759  0.8576 -0.2948
27654SOL    HW183540   2.892   4.286   8.933  1.6179 -0.5435  1.9197
27654SOL    HW283541   2.799   4.405   8.944  1.3204 -0.1214 -2.7998
27655SOL     OW83542   8.788   2.649   7.944 -0.1624 -0.0096  0.0383
27655SOL    HW183543   8.694   2.633   7.933  0.1833 -1.1828 -1.5574
27655SOL    HW283544   8.818   2.575   7.996  0.2239 -0.8743 -1.3524
27656SOL     OW83545   4.385   8.524   8.801 -0.2699  0.4379  0.2736
27656SOL    HW183546   4.315   8.460   8.815  1.5553 -1.4799  1.1935
27656SOL    HW283547   4.396   8.527   8.706 -0.4525 -0.5571  0.2131
27657SOL     OW83548   8.959   2.801   6.857  0.7075  0.2226 -0.7896
27657SOL    HW183549   8.997   2.847   6.932 -0.5328 -1.1659  0.7749
27657SOL    HW283550   8.971   2.708   6.878 -0.1935 -0.1926 -2.0308
27658SOL     OW83551   3.887   1.643   2.355  0.3333  0.8776  0.4352
27658SOL    HW183552   3.819   1.641   2.423 -0.9957  0.2399 -0.8368
27658SOL    HW283553   3.883   1.732   2.320 -0.8507  0.4730 -0.5437
27659SOL     OW83554   1.078   5.772   4.367  0.8171  0.7601 -0.7299
27659SOL    HW183555   1.095   5.860   4.401  1.2668  1.1100 -1.8174
27659SOL    HW283556   1.111   5.774   4.278  0.4521 -0.3971 -0.9087
27660SOL     OW83557   4.553   4.565   1.064  0.2391  0.3712 -0.7557
27660SOL    HW183558   4.599   4.582   0.982  1.0728  1.2855 -0.1125
27660SOL    HW283559   4.588   4.629   1.126 -0.1191 -0.5251  0.4167
27661SOL     OW83560   5.119   6.866   0.522  0.2256  0.7053 -0.1347
27661SOL    HW183561   5.179   6.795   0.501 -0.0097  1.1282 -2.5469
27661SOL    HW283562   5.173   6.945   0.520 -0.3842  1.1535 -2.8463
27662SOL     OW83563   2.279   2.394   1.049 -0.6299 -0.4437 -0.2836
27662SOL    HW183564   2.308   2.460   1.112 -1.0184  0.8220 -1.3888
27662SOL    HW283565   2.217   2.340   1.098  0.9395 -1.0681  1.1227
27663SOL     OW83566   9.737   6.871   2.125  0.0602 -0.3395  0.2896
27663SOL    HW183567   9.823   6.852   2.088 -0.1210 -1.6295  0.5033
27663SOL    HW283568   9.745   6.850   2.218 -0.7833 -1.5339  0.1108
27664SOL     OW83569   7.984   2.561   6.392 -0.1340 -0.4465 -0.3398
27664SOL    HW183570   7.951   2.648   6.369  0.0712 -0.0130  0.8988
27664SOL    HW283571   8.078   2.575   6.408 -0.5961 -0.1754  2.8732
27665SOL     OW83572   2.871   9.887   2.116 -0.2594 -0.2640 -0.4718
27665SOL    HW183573   2.887   9.972   2.158  0.3490 -0.0932 -1.0340
27665SOL    HW283574   2.900   9.899   2.025 -2.4682 -0.3092 -1.2505
27666SOL     OW83575   1.666   4.057   3.878  0.3626 -0.9109 -0.3237
27666SOL    HW183576   1.613   3.981   3.854 -1.9715  1.4388 -3.4774
27666SOL    HW283577   1.745   4.049   3.825  0.2948 -1.3192 -0.3657
27667SOL     OW83578   6.062   8.870   3.667  0.0568  0.3909 -0.0595
27667SOL    HW183579   6.039   8.927   3.593  0.4670  0.5938 -0.0331
27667SOL    HW283580   6.077   8.930   3.740 -0.1950  0.2003  0.1491
27668SOL     OW83581   4.526   3.679   4.335  0.9570  0.0850 -0.5940
27668SOL    HW183582   4.622   3.678   4.328  0.9557  2.2209 -1.5828
27668SOL    HW283583   4.496   3.693   4.245 -0.3044 -0.5632 -0.2956
27669SOL     OW83584   7.399   0.882   3.580 -0.7276  0.3746 -0.7515
27669SOL    HW183585   7.424   0.814   3.518 -2.9053 -1.9744  0.7492
27669SOL    HW283586   7.305   0.895   3.565 -0.1342  4.5197 -2.1990
27670SOL     OW83587   5.822   6.176   9.556 -0.1630  0.6623 -0.5804
27670SOL    HW183588   5.905   6.129   9.546  0.1702  0.7856  1.1835
27670SOL    HW283589   5.847   6.266   9.574 -0.6776  0.7064 -0.0481
27671SOL     OW83590   9.537   7.503   1.488 -0.2307  0.2670  0.1349
27671SOL    HW183591   9.611   7.534   1.436 -1.5077 -0.2859 -2.2057
27671SOL    HW283592   9.565   7.418   1.521 -0.0006 -0.2541 -1.3031
27672SOL     OW83593   4.849   1.741   0.645  0.0203  0.4696 -0.6941
27672SOL    HW183594   4.829   1.659   0.691 -0.3560  0.3096 -1.1340
27672SOL    HW283595   4.879   1.714   0.559  0.3781  0.7802 -0.6670
27673SOL     OW83596   8.984   7.777   1.929 -0.2702 -0.1685  0.7365
27673SOL    HW183597   9.076   7.790   1.908 -0.9135  2.9723 -0.7294
27673SOL    HW283598   8.958   7.858   1.973 -2.0182 -1.6269  2.5759
27674SOL     OW83599   8.252   8.992   1.088  0.1674 -0.2980  0.4498
27674SOL    HW183600   8.258   8.906   1.047  3.2434  0.2955 -0.6399
27674SOL    HW283601   8.334   9.001   1.137  0.2534  2.2501 -0.0254
27675SOL     OW83602   2.146   6.872   1.415 -0.6702 -0.0653 -0.2586
27675SOL    HW183603   2.052   6.856   1.405 -0.6793  0.7960 -1.9206
27675SOL    HW283604   2.186   6.826   1.341  0.1231  0.3384 -0.0934
27676SOL     OW83605   7.238   0.041   2.493  0.2368  0.2563 -0.1999
27676SOL    HW183606   7.310   0.039   2.557  2.3866 -0.2851 -2.4952
27676SOL    HW283607   7.189  -0.040   2.508  1.1377 -0.2064  0.3074
27677SOL     OW83608   1.951   0.766   6.125  0.0462  0.4985  0.1909
27677SOL    HW183609   1.867   0.812   6.131 -0.2333  0.6016 -2.8051
27677SOL    HW283610   2.012   0.822   6.172 -0.7042  2.9889 -1.5800
27678SOL     OW83611   9.051   6.778   0.644  0.1275 -0.4477  0.4263
27678SOL    HW183612   9.068   6.756   0.736 -0.5091  0.5768  0.8118
27678SOL    HW283613   9.047   6.873   0.643 -2.1138 -0.4923 -0.2359
27679SOL     OW83614   4.674   0.965   8.924  0.2692  0.0841  0.2971
27679SOL    HW183615   4.761   0.929   8.938  0.4789  0.7396  0.6977
27679SOL    HW283616   4.689   1.043   8.871 -0.1951 -0.4572 -0.6771
27680SOL     OW83617   3.407   6.481   6.787 -0.2528 -0.2135 -0.1329
27680SOL    HW183618   3.488   6.509   6.745  1.7312 -2.4826  1.8825
27680SOL    HW283619   3.377   6.407   6.735 -1.5574  1.0762 -1.3161
27681SOL     OW83620   8.664   5.160   7.939  0.5698 -0.9593  0.4724
27681SOL    HW183621   8.697   5.074   7.914 -1.6050 -1.7233 -0.0446
27681SOL    HW283622   8.675   5.214   7.861 -0.3273 -1.5058 -0.0487
27682SOL     OW83623   2.319   0.424   0.451  0.2969 -0.1361  0.2535
27682SOL    HW183624   2.373   0.357   0.409 -0.4376  0.1005 -1.1262
27682SOL    HW283625   2.314   0.495   0.387 -0.2325  0.5811  1.0574
27683SOL     OW83626   3.603   1.024   9.775  0.3096  0.8992  0.2786
27683SOL    HW183627   3.555   0.972   9.711 -0.6731  0.1339  1.5965
27683SOL    HW283628   3.555   1.107   9.780  1.1616  1.4966 -0.9125
27684SOL     OW83629   0.202   1.608   7.448 -0.5688  0.1977  0.3548
27684SOL    HW183630   0.208   1.603   7.544  0.2625  0.0423  0.3053
27684SOL    HW283631   0.138   1.541   7.424  1.4079 -1.8895  0.5896
27685SOL     OW83632   2.550   4.078   1.259  0.0736 -0.4760  0.4666
27685SOL    HW183633   2.461   4.107   1.238  0.2135  0.4984  1.1813
27685SOL    HW283634   2.551   3.986   1.232 -1.3481 -0.6954  1.0255
27686SOL     OW83635   1.512   8.234   5.881  0.2543 -0.6090 -0.0244
27686SOL    HW183636   1.515   8.310   5.939  0.2371 -0.9854  0.4841
27686SOL    HW283637   1.469   8.265   5.802  0.9433  0.1024 -0.1276
27687SOL     OW83638   4.977   3.342   3.969  0.1419  0.0737 -0.2383
27687SOL    HW183639   5.029   3.341   3.889  2.7753 -2.0960  1.3322
27687SOL    HW283640   4.998   3.427   4.010  0.4828  0.2705 -0.8109
27688SOL     OW83641   0.618   3.413   8.901  0.5136 -0.1030 -0.2160
27688SOL    HW183642   0.648   3.446   8.985  0.4468  0.3652 -0.3767
27688SOL    HW283643   0.650   3.476   8.837 -0.2516  0.0631 -0.4458
27689SOL     OW83644   6.851   1.861   0.493  0.4590 -0.2049 -0.0600
27689SOL    HW183645   6.795   1.806   0.547 -0.7696 -0.0359 -1.0988
27689SOL    HW283646   6.883   1.929   0.552 -1.3711  0.3611  0.3479
27690SOL     OW83647   9.776   8.088   4.992 -0.2171 -0.3259  0.5312
27690SOL    HW183648   9.835   8.163   4.995  0.9352 -1.2337  1.1518
27690SOL    HW283649   9.743   8.087   4.902  0.8599  0.0857  0.1246
27691SOL     OW83650   6.513   3.826   6.315  0.2088  1.0618 -0.4064
27691SOL    HW183651   6.554   3.775   6.245  0.9239  2.7616 -1.2681
27691SOL    HW283652   6.512   3.916   6.283 -1.2471  1.5901  0.9655
27692SOL     OW83653   6.802   0.537   2.485 -0.1155  0.0273 -0.3990
27692SOL    HW183654   6.726   0.540   2.543 -0.0597 -0.1725 -0.3169
27692SOL    HW283655   6.766   0.521   2.398 -0.2433  0.8262 -0.5040
27693SOL     OW83656   0.420   3.891   6.697 -0.3681  0.3378 -0.1572
27693SOL    HW183657   0.357   3.838   6.747 -0.6349 -1.1418 -1.9363
27693SOL    HW283658   0.490   3.911   6.759 -0.4148 -1.8708  0.6846
27694SOL     OW83659   0.417   9.670   2.258  0.3881  0.1324  0.1656
27694SOL    HW183660   0.348   9.691   2.196  1.4512  0.2578 -1.0298
27694SOL    HW283661   0.419   9.574   2.260 -0.8200  0.1076  1.4008
27695SOL     OW83662   6.768   7.889   9.506  0.0969 -0.0920  0.1015
27695SOL    HW183663   6.790   7.810   9.455  0.1930 -0.0660  0.1017
27695SOL    HW283664   6.851   7.915   9.546  0.3942  0.8420 -1.0499
27696SOL     OW83665   0.226   7.556   9.728 -0.2121 -0.3638 -0.1058
27696SOL    HW183666   0.287   7.572   9.656  0.0211 -0.6496  0.0275
27696SOL    HW283667   0.228   7.637   9.780 -0.2918 -0.2028 -0.3535
27697SOL     OW83668   7.144   2.714   6.235  0.2529  0.0100  0.0787
27697SOL    HW183669   7.232   2.690   6.206  0.6258 -0.3457  1.4558
27697SOL    HW283670   7.155   2.800   6.276  0.3577 -0.8358  1.9519
27698SOL     OW83671   4.597   0.692   5.899  0.0754 -0.0819 -0.7682
27698SOL    HW183672   4.612   0.630   5.969 -2.5888  1.5113  1.4203
27698SOL    HW283673   4.581   0.638   5.822  2.1069 -1.9059 -0.0042
27699SOL     OW83674   5.653   4.775   5.081  0.2395  0.5223  0.0985
27699SOL    HW183675   5.566   4.779   5.122  0.3522  1.4164  0.2580
27699SOL    HW283676   5.649   4.697   5.025 -0.7505  0.6786 -0.0706
27700SOL     OW83677   9.722   7.883   6.449 -0.0644 -0.4704  0.0572
27700SOL    HW183678   9.812   7.911   6.465 -0.3615  1.0077 -0.7056
27700SOL    HW283679   9.730   7.791   6.424  1.0435 -0.8848  1.7518
27701SOL     OW83680   7.343   2.758   1.355 -0.9759 -0.0049 -0.0629
27701SOL    HW183681   7.369   2.755   1.263 -1.9358 -0.6918 -0.3340
27701SOL    HW283682   7.252   2.789   1.353 -2.0088 -2.7397  0.3915
27702SOL     OW83683   2.434   2.732   2.128 -0.6331 -0.3135  0.3310
27702SOL    HW183684   2.400   2.723   2.039  0.8209 -0.4462 -0.2469
27702SOL    HW283685   2.493   2.658   2.138  2.9933  2.1626 -0.4439
27703SOL     OW83686   5.982   9.204   7.692 -0.1877  0.1004  0.3853
27703SOL    HW183687   6.039   9.161   7.755  1.1011 -3.2470 -2.7132
27703SOL    HW283688   5.903   9.225   7.742  2.5759  2.5961  4.2315
27704SOL     OW83689   4.516   1.592   0.762 -0.3316 -0.4123 -0.4044
27704SOL    HW183690   4.544   1.674   0.721 -2.2416  0.6509  0.2811
27704SOL    HW283691   4.429   1.576   0.727 -1.2166 -0.5243  1.6784
27705SOL     OW83692   6.205   7.338   8.779 -0.0865 -0.3488  0.3592
27705SOL    HW183693   6.231   7.404   8.715  1.0958 -1.5039 -0.3825
27705SOL    HW283694   6.222   7.380   8.864  1.1281  0.1206 -0.0955
27706SOL     OW83695   6.983   3.086   1.230 -0.0224 -0.2455 -0.2700
27706SOL    HW183696   6.896   3.127   1.234 -0.1667 -0.6481  1.4954
27706SOL    HW283697   7.041   3.151   1.271  0.4815 -0.0742 -1.2392
27707SOL     OW83698   9.789   9.762   7.973  0.1358  0.1244  0.3797
27707SOL    HW183699   9.729   9.772   8.046  1.1556 -0.8398  1.3875
27707SOL    HW283700   9.798   9.668   7.961  0.1433  0.2623 -0.8794
27708SOL     OW83701   1.928   1.632   2.240 -0.2201 -0.2791  1.0156
27708SOL    HW183702   1.991   1.696   2.274 -0.2136 -0.5638  1.5621
27708SOL    HW283703   1.973   1.548   2.250 -0.0356 -0.3296 -0.1494
27709SOL     OW83704   4.361   1.336   3.286  0.1326  0.0284  0.0124
27709SOL    HW183705   4.357   1.266   3.221  0.7924 -0.4621  0.4852
27709SOL    HW283706   4.417   1.402   3.247  0.8773 -0.4537  0.2428
27710SOL     OW83707   0.066   0.008   1.898  0.5877  0.2325 -0.5022
27710SOL    HW183708   0.042   0.001   1.990  2.6406 -0.3044  0.0350
27710SOL    HW283709  -0.018   0.021   1.853 -0.6427 -1.1313  1.2379
27711SOL     OW83710   2.457   5.743   0.814 -0.5335  0.2440  0.3269
27711SOL    HW183711   2.473   5.732   0.908  0.0660  0.3639  0.2442
27711SOL    HW283712   2.457   5.654   0.779 -0.3725  0.2232  0.3797
27712SOL     OW83713   2.893   4.649   7.225 -0.3426 -0.6095  0.2425
27712SOL    HW183714   2.898   4.744   7.211 -0.3033 -0.6419  0.0365
27712SOL    HW283715   2.978   4.616   7.194  0.3750 -0.5020  1.9951
27713SOL     OW83716   9.255   4.453   8.357 -0.4973  0.5594 -0.1175
27713SOL    HW183717   9.201   4.523   8.393 -0.0912 -0.3716  2.4797
27713SOL    HW283718   9.191   4.392   8.319 -1.2403  0.0644  1.8285
27714SOL     OW83719   4.840   4.376   6.962  0.2462 -0.0390 -0.1608
27714SOL    HW183720   4.797   4.308   6.910 -2.1124  1.8120 -0.8093
27714SOL    HW283721   4.846   4.338   7.050 -0.8002 -1.1842 -0.5412
27715SOL     OW83722   2.702   4.368   3.686  0.5234 -0.2056 -0.6103
27715SOL    HW183723   2.771   4.423   3.650  1.1504  0.5750  1.5961
27715SOL    HW283724   2.703   4.387   3.780 -0.7865 -2.3136 -0.0977
27716SOL     OW83725   3.558   1.448   5.571  0.3753  0.1710  0.0457
27716SOL    HW183726   3.515   1.393   5.637  0.3290 -0.8135 -0.7761
27716SOL    HW283727   3.651   1.443   5.594  0.3357  0.0334  0.1804
27717SOL     OW83728   9.466   0.448   4.254 -0.5217 -0.2718 -0.2079
27717SOL    HW183729   9.409   0.403   4.192  0.0144  0.3670 -1.1912
27717SOL    HW283730   9.487   0.382   4.320 -1.3879 -0.8607 -0.5090
27718SOL     OW83731   8.619   3.488   5.091 -0.2925 -0.1054  0.6642
27718SOL    HW183732   8.596   3.542   5.167 -1.1788  1.2342 -0.5068
27718SOL    HW283733   8.570   3.526   5.019  1.6655 -0.4034 -0.9116
27719SOL     OW83734   3.058   3.475   7.599  0.0414 -0.3877 -0.3444
27719SOL    HW183735   3.035   3.382   7.596 -0.8094 -0.1834 -0.4024
27719SOL    HW283736   3.044   3.500   7.690 -0.5738 -0.1068 -0.5172
27720SOL     OW83737   4.857   6.285   9.504 -0.1983 -0.5570 -0.4315
27720SOL    HW183738   4.855   6.194   9.475 -1.0895 -1.4939  2.3063
27720SOL    HW283739   4.766   6.314   9.498 -0.2187 -0.4336  0.3937
27721SOL     OW83740   7.175   9.437   5.246  0.2664 -0.1851  0.1908
27721SOL    HW183741   7.092   9.412   5.286  0.6330 -1.4434  0.2312
27721SOL    HW283742   7.168   9.408   5.155  0.4256  0.2603  0.0355
27722SOL     OW83743   3.771   4.113   9.674 -0.1441 -0.1690 -0.2764
27722SOL    HW183744   3.802   4.042   9.730 -0.2025  0.0134 -0.0054
27722SOL    HW283745   3.730   4.070   9.600 -0.4460 -0.4190  0.0329
27723SOL     OW83746   1.359   4.038   5.066 -0.0058 -0.2036  0.0423
27723SOL    HW183747   1.264   4.047   5.076 -0.0367 -1.2908  0.8397
27723SOL    HW283748   1.371   3.958   5.015  0.4759  0.3246 -0.7024
27724SOL     OW83749   8.135   5.261   1.774  0.2449 -0.3934  0.3470
27724SOL    HW183750   8.160   5.345   1.813 -1.0674  0.3426 -0.3142
27724SOL    HW283751   8.185   5.196   1.823  1.3467  0.7688  0.8323
27725SOL     OW83752   2.601   2.030   2.099 -0.3382  0.4107 -0.5478
27725SOL    HW183753   2.684   2.065   2.066  0.6035  1.3160  2.4318
27725SOL    HW283754   2.598   2.059   2.190 -4.0298  0.5011 -0.5674
27726SOL     OW83755   4.258   1.611   0.717 -0.4230  0.3548 -0.4300
27726SOL    HW183756   4.267   1.689   0.772 -3.2274  1.5514 -1.4798
27726SOL    HW283757   4.196   1.556   0.764  1.5698 -1.3568  0.3224
27727SOL     OW83758   3.332   9.150   4.493 -0.0033  0.0799  0.0341
27727SOL    HW183759   3.346   9.235   4.533 -0.2119 -0.3207  0.9963
27727SOL    HW283760   3.378   9.154   4.409  0.6785  0.8537  0.4365
27728SOL     OW83761   5.588   7.856   3.735  0.0079 -0.4673 -0.5111
27728SOL    HW183762   5.607   7.768   3.704 -0.5927  0.6522 -4.7507
27728SOL    HW283763   5.655   7.911   3.695 -0.1165  1.1443  1.3316
27729SOL     OW83764   0.028   1.764   9.126  0.0276 -0.0614  0.2793
27729SOL    HW183765   0.010   1.820   9.202 -1.3269  0.1597 -0.1832
27729SOL    HW283766  -0.026   1.800   9.056  0.6050 -0.7894 -0.5628
27730SOL     OW83767   6.802   0.159   8.366 -0.9067 -0.0990  0.3639
27730SOL    HW183768   6.712   0.150   8.334 -0.8215 -0.4396  0.2098
27730SOL    HW283769   6.800   0.121   8.453 -1.2316  1.2033  0.9473
27731SOL     OW83770   1.680   8.968   7.775  0.1106 -0.1976 -0.4076
27731SOL    HW183771   1.647   9.020   7.848  2.0485  1.1078 -0.3900
27731SOL    HW283772   1.660   9.020   7.698 -0.1974 -0.6562 -0.6425
27732SOL     OW83773   4.530   5.733   8.285  0.0815  0.0761  0.1492
27732SOL    HW183774   4.524   5.645   8.320 -1.0244  0.5027  1.1161
27732SOL    HW283775   4.463   5.736   8.216 -0.7159  0.4804  0.9139
27733SOL     OW83776   4.163   1.314   1.185 -0.2607  0.3325 -0.4678
27733SOL    HW183777   4.245   1.335   1.141  0.7040 -0.0697  1.0613
27733SOL    HW283778   4.189   1.282   1.272 -2.0418  0.5859  0.2181
27734SOL     OW83779   0.962   3.208  -0.012 -0.2805  0.9743  0.2593
27734SOL    HW183780   0.963   3.303  -0.010 -1.0948  1.0950 -2.3062
27734SOL    HW283781   0.889   3.183   0.045 -0.7246  1.9368  0.1190
27735SOL     OW83782   2.921   5.013   1.407 -0.2234  0.4092  0.3664
27735SOL    HW183783   2.999   5.009   1.461 -1.0896 -0.3878  1.6150
27735SOL    HW283784   2.885   4.925   1.409 -1.4218  0.8648  0.2388
27736SOL     OW83785   1.131   5.112   9.596  0.1709 -0.0594 -0.7215
27736SOL    HW183786   1.129   5.106   9.691  0.6899  0.5954 -0.6644
27736SOL    HW283787   1.181   5.035   9.568  2.3245  1.0894 -0.2939
27737SOL     OW83788   2.018   9.182   3.635  0.3571  0.1507 -0.0232
27737SOL    HW183789   2.096   9.207   3.587  0.9833 -1.4459  0.1041
27737SOL    HW283790   1.968   9.128   3.573  0.2114 -0.2793  0.4618
27738SOL     OW83791   8.722   6.579   2.450  0.2677 -0.2468  0.5311
27738SOL    HW183792   8.785   6.574   2.522  2.2237  1.8222 -0.8710
27738SOL    HW283793   8.729   6.670   2.420 -1.6349 -0.6321 -1.2631
27739SOL     OW83794   6.668   8.933   8.524  0.1957 -0.2570  0.5915
27739SOL    HW183795   6.640   8.860   8.579 -0.2437 -1.4794 -1.1615
27739SOL    HW283796   6.764   8.925   8.523  0.2654  0.2135  1.7006
27740SOL     OW83797   4.987   7.804   7.184 -0.2444 -0.1736 -0.4224
27740SOL    HW183798   5.024   7.750   7.254 -2.3511 -1.8704 -0.5101
27740SOL    HW283799   4.966   7.887   7.227 -0.7088 -0.8834  0.7789
27741SOL     OW83800   5.678   7.594   4.783  0.0066 -0.2522 -0.4917
27741SOL    HW183801   5.720   7.539   4.716  0.7366  0.8807 -0.9960
27741SOL    HW283802   5.590   7.610   4.750  0.2860  0.1026 -1.0840
27742SOL     OW83803   0.053   8.511   0.109  0.3005  0.0493  0.2808
27742SOL    HW183804   0.013   8.428   0.134  1.2164 -0.1840  1.0420
27742SOL    HW283805   0.064   8.506   0.014  0.6301 -0.8369  0.3586
27743SOL     OW83806   3.743   0.361   8.656  0.6821  0.3774 -0.4834
27743SOL    HW183807   3.682   0.323   8.720 -0.6524  1.4793 -1.0493
27743SOL    HW283808   3.726   0.455   8.659  1.7770  0.6145 -1.2621
27744SOL     OW83809   6.648   1.187   0.859  0.4613  0.4205 -0.1511
27744SOL    HW183810   6.729   1.208   0.906  0.7011  0.6712 -0.6724
27744SOL    HW283811   6.598   1.133   0.921  1.3524 -0.3785 -0.1049
27745SOL     OW83812   5.809   3.308   3.109  0.0046 -0.0438 -0.0002
27745SOL    HW183813   5.734   3.337   3.058 -1.2035 -1.6861  0.7433
27745SOL    HW283814   5.883   3.357   3.073 -1.4066  1.6751 -0.7082
27746SOL     OW83815   2.789   7.476   1.963 -0.1144  0.4337 -0.3393
27746SOL    HW183816   2.801   7.508   2.053  0.9400 -0.4511 -0.1412
27746SOL    HW283817   2.705   7.430   1.966  0.5693 -0.8024  0.5730
27747SOL     OW83818   4.029   0.699   0.179  0.3222  0.1732 -0.9776
27747SOL    HW183819   3.952   0.753   0.163  0.7114  0.9333 -0.3147
27747SOL    HW283820   4.073   0.740   0.252 -0.2626 -1.9739  0.6904
27748SOL     OW83821   0.343   0.389   3.709 -0.0769  0.4648  0.0134
27748SOL    HW183822   0.287   0.311   3.711 -0.3669  0.6891  0.5462
27748SOL    HW283823   0.283   0.462   3.697  0.1773  0.6307 -0.2664
27749SOL     OW83824   8.113   6.481   3.118  0.0260  0.2068  0.2021
27749SOL    HW183825   8.064   6.405   3.151  0.3577 -0.3115 -0.4761
27749SOL    HW283826   8.047   6.534   3.074 -0.2856  0.5326  1.0422
27750SOL     OW83827   1.151   6.895   4.970  0.3684  0.2522  0.0581
27750SOL    HW183828   1.222   6.834   4.989  0.8842  0.3646 -1.3694
27750SOL    HW283829   1.194   6.976   4.943 -0.3120  1.1376  1.5067
27751SOL     OW83830   5.404   0.902   9.203  0.0869  0.2532 -0.0088
27751SOL    HW183831   5.439   0.902   9.292 -0.0185  1.8664  0.0544
27751SOL    HW283832   5.315   0.870   9.212 -0.6316  2.3298  0.8128
27752SOL     OW83833   8.042   5.102   4.910  0.6764  0.3669  0.1752
27752SOL    HW183834   8.050   5.180   4.854  0.8881  1.4720  1.6722
27752SOL    HW283835   8.132   5.081   4.935  0.6932 -0.8929 -0.8894
27753SOL     OW83836  -0.002   2.578   7.703 -0.0521 -0.1860  0.0176
27753SOL    HW183837   0.079   2.614   7.669  1.1401 -2.2194  0.5506
27753SOL    HW283838  -0.061   2.576   7.628  0.5300  0.8715 -0.4850
27754SOL     OW83839   3.750   3.788   5.333  0.6313 -0.5590  0.1013
27754SOL    HW183840   3.821   3.841   5.299  0.4805  0.5402  1.4193
27754SOL    HW283841   3.753   3.801   5.428  0.5379 -2.8556  0.4794
27755SOL     OW83842   0.147   3.060   5.130 -0.1361  0.1312  0.1011
27755SOL    HW183843   0.141   3.133   5.069 -1.0686  0.3706  0.4552
27755SOL    HW283844   0.234   3.067   5.169 -0.2990  1.1815  0.2941
27756SOL     OW83845   9.533   3.331   8.235 -0.2926  0.3040 -0.2009
27756SOL    HW183846   9.612   3.349   8.286 -0.3562 -3.0219  1.2660
27756SOL    HW283847   9.462   3.365   8.289 -0.0816  0.9373 -0.3042
27757SOL     OW83848   7.502   5.319   2.457  0.3504 -0.2050 -0.5950
27757SOL    HW183849   7.414   5.282   2.459 -0.3617  1.4093  1.2023
27757SOL    HW283850   7.518   5.349   2.547  2.5659 -0.0528 -0.9783
27758SOL     OW83851   5.504   3.155   2.803 -0.0194  0.6588 -0.2724
27758SOL    HW183852   5.410   3.174   2.806 -0.2640 -0.5995  0.6949
27758SOL    HW283853   5.510   3.072   2.755  0.4476 -0.0579  0.9915
27759SOL     OW83854   0.426   0.998   6.772  0.0414 -0.3585  0.0368
27759SOL    HW183855   0.430   1.007   6.867  0.3122 -1.7051  0.1796
27759SOL    HW283856   0.508   0.955   6.749 -0.0404 -0.0715 -0.8030
27760SOL     OW83857   8.835   6.043   9.501  0.0335 -0.2267 -0.1151
27760SOL    HW183858   8.812   6.018   9.590 -0.6732  0.2395 -0.1602
27760SOL    HW283859   8.889   5.970   9.469  2.1606  0.5669  1.4193
27761SOL     OW83860   5.895   8.498   2.526 -0.2858  0.2378  0.3711
27761SOL    HW183861   5.889   8.406   2.501 -0.6328  0.2931  0.2450
27761SOL    HW283862   5.806   8.531   2.516  0.0315  0.8437 -0.5964
27762SOL     OW83863   5.136   1.709   3.530 -0.7068 -0.5516 -0.0580
27762SOL    HW183864   5.207   1.743   3.475 -1.1248  0.9510  0.2791
27762SOL    HW283865   5.178   1.644   3.586  0.3874  0.2188  0.0409
27763SOL     OW83866   6.858   5.592   1.177 -0.1685 -0.1294  0.1205
27763SOL    HW183867   6.778   5.630   1.215  0.2682  2.4993 -1.3157
27763SOL    HW283868   6.922   5.596   1.248 -0.4130  0.9952  0.2981
27764SOL     OW83869   1.814   5.411   8.329 -0.3289 -0.3248 -0.4490
27764SOL    HW183870   1.830   5.365   8.412 -0.4311  1.2672  0.4956
27764SOL    HW283871   1.789   5.341   8.268  1.7197 -1.8209  0.2837
27765SOL     OW83872   2.058   8.635   3.132 -0.1478  0.4349 -0.0030
27765SOL    HW183873   2.020   8.606   3.215 -1.6833  1.8422 -0.1798
27765SOL    HW283874   2.072   8.729   3.143 -0.3990  0.6436 -1.3444
27766SOL     OW83875   5.954   7.335   5.038  0.3837  0.0856 -0.3207
27766SOL    HW183876   5.912   7.414   5.073  0.8141  0.6427 -1.0316
27766SOL    HW283877   5.953   7.348   4.943  0.3704 -0.8154 -0.4492
27767SOL     OW83878   6.945   5.896   5.696 -0.7127  0.4030 -0.1777
27767SOL    HW183879   7.004   5.930   5.629 -0.8313  1.1556  0.0911
27767SOL    HW283880   6.879   5.965   5.708 -0.4721  0.4495  0.9938
27768SOL     OW83881   3.703   7.826   6.107 -0.1246 -0.1039 -0.1819
27768SOL    HW183882   3.779   7.771   6.091 -0.7679 -0.9208 -0.5050
27768SOL    HW283883   3.656   7.784   6.179 -0.9179 -0.3115 -0.7963
27769SOL     OW83884   9.605   6.437   0.682  0.1576 -0.4133 -0.0323
27769SOL    HW183885   9.579   6.407   0.769 -1.7462 -0.6744 -0.6368
27769SOL    HW283886   9.699   6.454   0.689  0.2935 -1.6434  1.7106
27770SOL     OW83887   5.220   2.209   3.986  0.1053  0.6704  0.2672
27770SOL    HW183888   5.258   2.297   3.994  1.1418  0.2075  0.5853
27770SOL    HW283889   5.294   2.150   4.002  0.1826 -0.3020 -2.9404
27771SOL     OW83890   8.663   2.086   4.089 -0.2102 -0.2068  0.0394
27771SOL    HW183891   8.624   2.121   4.169 -3.0520 -1.9682 -0.4433
27771SOL    HW283892   8.641   2.151   4.022  0.8443  0.5274  0.3850
27772SOL     OW83893   7.874   8.485   2.687  0.3891  0.4324 -0.0854
27772SOL    HW183894   7.855   8.409   2.632 -0.8002  0.3919  0.3631
27772SOL    HW283895   7.887   8.449   2.775 -1.3093  0.8387  0.3517
27773SOL     OW83896   4.751   4.002   3.985  0.4748 -0.2941 -0.1902
27773SOL    HW183897   4.718   4.085   3.949 -1.5211 -1.6830 -1.8469
27773SOL    HW283898   4.845   4.003   3.967  0.2120  0.9036 -1.6767
27774SOL     OW83899   7.209   7.994   3.567 -0.0490 -0.1601  0.1858
27774SOL    HW183900   7.223   8.044   3.487  1.5276 -1.1470 -0.1843
27774SOL    HW283901   7.278   8.025   3.626  0.3031 -1.1555  0.3057
27775SOL     OW83902   9.373   7.059   6.023 -0.1634  0.2525 -0.3509
27775SOL    HW183903   9.446   7.071   6.084  0.3753  1.2308 -1.1500
27775SOL    HW283904   9.310   7.127   6.049 -0.4024 -0.0208 -0.2147
27776SOL     OW83905   9.782   6.660   7.072  0.3032  0.1713 -0.4313
27776SOL    HW183906   9.820   6.739   7.113 -0.6651  1.5843 -2.1391
27776SOL    HW283907   9.854   6.596   7.074  1.9289  1.8751 -1.1436
27777SOL     OW83908   9.574   3.963   5.670  0.4373  0.0977  0.2764
27777SOL    HW183909   9.566   4.059   5.675  0.6660  0.0680  1.2623
27777SOL    HW283910   9.661   3.949   5.632  0.0867  0.2744 -0.6382
27778SOL     OW83911   8.112   3.198   6.826  0.6390  0.0318 -0.3402
27778SOL    HW183912   8.168   3.274   6.840  0.6047 -0.0896  0.5558
27778SOL    HW283913   8.171   3.123   6.827  0.4312 -0.1433  1.1428
27779SOL     OW83914   4.401   1.160   2.890 -0.3285  0.1107  0.4392
27779SOL    HW183915   4.325   1.139   2.945 -0.6998  1.1641  0.3534
27779SOL    HW283916   4.363   1.187   2.806  0.1667  0.0676  0.1989
27780SOL     OW83917   8.562   8.789   1.021 -0.3575 -0.0228  0.1743
27780SOL    HW183918   8.628   8.722   1.041  0.5879  0.7192 -0.3760
27780SOL    HW283919   8.501   8.785   1.094 -0.0980 -1.2134  0.3474
27781SOL     OW83920   2.664   5.982   8.736  0.4447  0.2627 -0.5707
27781SOL    HW183921   2.759   5.992   8.728  0.4589 -0.0416 -0.8323
27781SOL    HW283922   2.653   5.895   8.775  0.2636  0.0136 -1.1562
27782SOL     OW83923   4.406   2.537   9.254  0.3123  0.6385 -0.5140
27782SOL    HW183924   4.483   2.540   9.196 -0.4093  0.8851 -1.4736
27782SOL    HW283925   4.334   2.512   9.197 -0.4962  1.3227  0.1910
27783SOL     OW83926   6.193   9.613   3.318 -0.1779  0.3284 -0.2191
27783SOL    HW183927   6.284   9.583   3.321  0.3091  1.7802  0.2688
27783SOL    HW283928   6.151   9.570   3.393  0.6152  1.1566  0.7318
27784SOL     OW83929   2.734   0.884   6.377  0.0526 -0.3836  0.6906
27784SOL    HW183930   2.791   0.949   6.419  0.9902 -0.0909 -0.9683
27784SOL    HW283931   2.678   0.852   6.448  3.6758 -2.2964  3.0198
27785SOL     OW83932   9.902   8.533   2.400  0.1233 -0.2803  0.2031
27785SOL    HW183933   9.879   8.559   2.488  0.5316 -0.7086  0.4436
27785SOL    HW283934   9.845   8.584   2.343  1.9909  2.3829  0.5550
27786SOL     OW83935   1.413   9.347   7.400 -0.1997  0.0886  0.6528
27786SOL    HW183936   1.435   9.385   7.315 -0.4666  1.9941  1.3931
27786SOL    HW283937   1.356   9.273   7.379 -0.3750  0.6090 -0.8054
27787SOL     OW83938   8.929   4.450   9.010 -0.3046 -0.1639  0.2417
27787SOL    HW183939   8.848   4.437   9.059 -0.5544 -1.1561 -0.4006
27787SOL    HW283940   8.989   4.490   9.073 -1.4209  0.9977  0.6029
27788SOL     OW83941   4.309   5.195   9.531  0.2056 -0.6598  0.3770
27788SOL    HW183942   4.217   5.209   9.510  0.4529  0.7898  0.1869
27788SOL    HW283943   4.351   5.183   9.446  0.1322 -1.9011  0.4902
27789SOL     OW83944   0.319   2.369   5.853  0.1296  0.1298 -0.9033
27789SOL    HW183945   0.263   2.313   5.907  0.4951 -2.8068 -3.2379
27789SOL    HW283946   0.258   2.427   5.807 -0.4122  0.8025  0.6121
27790SOL     OW83947   6.765   4.789   3.537  0.0627  0.3787 -0.0012
27790SOL    HW183948   6.733   4.712   3.584  0.4332 -0.7490 -1.5171
27790SOL    HW283949   6.786   4.757   3.449  1.5029  1.9276 -0.2816
27791SOL     OW83950   7.755   5.743   2.104  0.1735  0.2629  0.4300
27791SOL    HW183951   7.840   5.702   2.085  0.6216  0.0413  2.6132
27791SOL    HW283952   7.691   5.675   2.085  0.5436  0.1158 -0.3467
27792SOL     OW83953   5.358   5.746   0.189  0.0473 -0.4385 -0.3932
27792SOL    HW183954   5.343   5.796   0.109 -2.2055 -1.0150 -0.4197
27792SOL    HW283955   5.374   5.813   0.256 -2.7431  0.4238 -0.4560
27793SOL     OW83956   1.794   3.318   3.016  0.0766 -0.5641  0.3418
27793SOL    HW183957   1.754   3.291   3.099  1.2979 -1.0915  0.7821
27793SOL    HW283958   1.828   3.406   3.033  1.1785 -1.0405  0.7376
27794SOL     OW83959   8.220   2.197   7.938 -0.1023 -0.0340 -0.0087
27794SOL    HW183960   8.280   2.138   7.893 -2.3657 -1.3534 -1.5238
27794SOL    HW283961   8.202   2.266   7.875  0.3296  0.7479  0.7016
27795SOL     OW83962   8.945   1.119   5.227  0.2182 -0.5003 -0.0337
27795SOL    HW183963   8.863   1.116   5.276 -0.3410 -1.7851 -1.0078
27795SOL    HW283964   8.951   1.211   5.198 -0.5047 -0.2211  0.6509
27796SOL     OW83965   1.260   7.642   4.649  0.3727 -0.3841 -0.1100
27796SOL    HW183966   1.308   7.691   4.716 -1.0085 -0.1110  0.7209
27796SOL    HW283967   1.309   7.658   4.568 -0.9620  3.9909 -0.3156
27797SOL     OW83968   2.022   7.429   7.053 -0.3349  0.3397 -0.2269
27797SOL    HW183969   1.960   7.431   6.980  0.5059 -0.9129 -1.0221
27797SOL    HW283970   2.076   7.351   7.036  0.6905  0.7367  1.0649
27798SOL     OW83971   2.537   7.476   3.828 -0.3926  0.2044 -0.0680
27798SOL    HW183972   2.564   7.489   3.919 -0.4521  1.6569 -0.2308
27798SOL    HW283973   2.592   7.404   3.796  1.8256  1.6573  0.2374
27799SOL     OW83974   1.114   3.058   6.488 -0.8481  0.4376  0.0719
27799SOL    HW183975   1.027   3.061   6.527 -0.0700 -0.5610  2.0202
27799SOL    HW283976   1.100   3.022   6.400 -2.3777  0.2798  0.3568
27800SOL     OW83977   4.745   8.709   9.581 -0.3101  0.0449  0.3093
27800SOL    HW183978   4.768   8.799   9.559 -0.8318 -0.0197 -0.5375
27800SOL    HW283979   4.825   8.672   9.620  1.2032 -0.2655 -2.8149
27801SOL     OW83980   1.053   6.098   9.454  0.6664 -0.0765  0.1524
27801SOL    HW183981   0.969   6.141   9.474  0.7226 -0.4841  1.3235
27801SOL    HW283982   1.100   6.162   9.400 -0.7022 -0.1692 -1.2249
27802SOL     OW83983   8.042   2.463   9.303 -0.3264  0.1328 -0.3615
27802SOL    HW183984   7.978   2.515   9.254  0.7610 -0.3879 -2.4408
27802SOL    HW283985   8.122   2.468   9.251  1.0828 -0.0328  1.6721
27803SOL     OW83986   2.796   7.022   1.885  0.0559  0.4766 -0.5527
27803SOL    HW183987   2.781   7.062   1.970  0.6966  0.1594 -0.2897
27803SOL    HW283988   2.733   6.949   1.882  0.2291  0.3131 -0.2349
27804SOL     OW83989   6.909   5.252   1.179  0.1646  0.0230 -0.0035
27804SOL    HW183990   6.932   5.311   1.251 -1.0093 -1.4826  1.6669
27804SOL    HW283991   6.960   5.173   1.196 -2.0561 -1.3233  0.6934
27805SOL     OW83992   4.975   5.641   9.213  0.0896  0.0314  0.1427
27805SOL    HW183993   4.930   5.592   9.144 -0.0953  0.0658  0.2378
27805SOL    HW283994   5.043   5.581   9.244 -0.4852 -0.3839  0.6310
27806SOL     OW83995   1.295   7.369   0.556 -0.2483 -0.2515  0.0493
27806SOL    HW183996   1.310   7.420   0.636 -0.6767  0.6912 -0.4579
27806SOL    HW283997   1.379   7.327   0.539  0.3826  0.9888 -0.0039
27807SOL     OW83998   8.887   9.824   3.933  0.2155  0.2670  0.3268
27807SOL    HW183999   8.856   9.900   3.884  0.2491 -0.2789 -0.5711
27807SOL    HW284000   8.829   9.819   4.009  0.2883  1.2502  0.4541
27808SOL     OW84001   6.484   2.272   4.361  0.0396 -0.2380 -0.0224
27808SOL    HW184002   6.539   2.194   4.361  1.2250  0.4876 -2.2772
27808SOL    HW284003   6.508   2.318   4.280 -2.0606  1.4438  0.2133
27809SOL     OW84004   2.887   5.856   6.430  0.1919  0.3295  0.0017
27809SOL    HW184005   2.923   5.825   6.513  1.7188 -1.4907 -1.2524
27809SOL    HW284006   2.804   5.809   6.421  0.3825 -0.0363  0.1464
27810SOL     OW84007   5.354   4.232   0.610  0.3038 -0.5530 -0.2239
27810SOL    HW184008   5.362   4.265   0.699 -0.1427 -1.5468  0.1876
27810SOL    HW284009   5.271   4.269   0.578  0.5809  0.0004 -0.3327
27811SOL     OW84010   2.146   1.726   9.266 -0.0976  0.7362  0.2463
27811SOL    HW184011   2.175   1.756   9.180 -2.6319  2.9975  0.0325
27811SOL    HW284012   2.174   1.635   9.270 -1.0421  0.0800 -3.6016
27812SOL     OW84013   4.758   6.442   1.504 -0.2404  0.1565 -0.6836
27812SOL    HW184014   4.760   6.522   1.451 -0.9171  0.0503 -0.8830
27812SOL    HW284015   4.665   6.426   1.519 -0.1538 -0.9920 -1.2574
27813SOL     OW84016   0.312   5.492   8.610  0.3918 -0.3652  0.3605
27813SOL    HW184017   0.371   5.549   8.560 -0.5705 -0.1025 -0.5156
27813SOL    HW284018   0.289   5.544   8.687  0.3432  0.0254  0.0858
27814SOL     OW84019   0.666   1.970   7.566  0.1586 -0.0382  0.1560
27814SOL    HW184020   0.649   1.969   7.660 -0.2756  1.3562  0.1266
27814SOL    HW284021   0.689   1.880   7.544  0.8659 -0.2615  1.7015
27815SOL     OW84022   5.350   6.374   0.053 -0.2725  0.1122  0.1284
27815SOL    HW184023   5.269   6.383   0.002  0.9352  0.6508 -1.7928
27815SOL    HW284024   5.375   6.464   0.075 -0.3379 -0.0684  0.9761
27816SOL     OW84025   0.857   2.382   2.843 -0.0842 -0.3727  0.8861
27816SOL    HW184026   0.763   2.374   2.828 -0.2595  0.5003  1.4452
27816SOL    HW284027   0.880   2.301   2.889 -0.6982 -0.2916  1.3553
27817SOL     OW84028   7.253   9.020   7.933  0.0036 -0.3189 -0.0734
27817SOL    HW184029   7.310   9.095   7.916  0.8432 -0.7899  0.5754
27817SOL    HW284030   7.313   8.950   7.959 -0.7987 -1.1058 -0.2996
27818SOL     OW84031   0.614   7.309   0.994  0.2080  0.2726 -0.2457
27818SOL    HW184032   0.703   7.284   1.019 -0.1809 -0.3338  0.5640
27818SOL    HW284033   0.616   7.309   0.898  1.0435  0.1446 -0.2420
27819SOL     OW84034   7.570   7.726   0.279  0.1267  0.3933 -0.1304
27819SOL    HW184035   7.618   7.718   0.196  0.1157  3.1598 -0.5072
27819SOL    HW284036   7.486   7.763   0.253  0.3974  1.9977  1.1556
27820SOL     OW84037   7.812   2.694   5.143  0.1717  0.5750 -0.2249
27820SOL    HW184038   7.860   2.662   5.220 -0.2937 -1.3294 -0.6754
27820SOL    HW284039   7.865   2.666   5.068  0.4980  2.2033 -0.6430
27821SOL     OW84040   7.888   7.841   4.009 -0.0368 -0.6055 -0.0766
27821SOL    HW184041   7.983   7.843   4.016  0.0940 -0.8721 -1.5081
27821SOL    HW284042   7.857   7.902   4.076  1.0911 -1.1687  0.9971
27822SOL     OW84043   5.199   9.846   6.977 -0.2348  0.0656 -0.3411
27822SOL    HW184044   5.127   9.864   6.917 -0.2519  1.5661  0.0772
27822SOL    HW284045   5.244   9.770   6.940 -0.5161  0.6614 -1.9855
27823SOL     OW84046   7.968   2.744   6.789  0.1867  0.3495 -0.1509
27823SOL    HW184047   8.011   2.733   6.874 -0.7811  1.4763  0.5189
27823SOL    HW284048   8.038   2.771   6.730  0.9265 -0.7388  0.1955
27824SOL     OW84049   1.456   6.188   4.434 -0.4769  0.0150 -0.4464
27824SOL    HW184050   1.439   6.232   4.350 -0.3109  0.3227 -0.3193
27824SOL    HW284051   1.432   6.253   4.500 -0.1828 -0.0680 -0.2571
27825SOL     OW84052   3.636   7.786   1.524 -0.0419  0.3162  0.0926
27825SOL    HW184053   3.646   7.752   1.613 -1.1605  1.1946  0.5776
27825SOL    HW284054   3.632   7.881   1.535 -2.2666  0.3710 -0.6407
27826SOL     OW84055   7.125   1.107   1.021 -0.4383  0.1201  0.2657
27826SOL    HW184056   7.124   1.042   1.091 -1.0308  0.0192  0.1687
27826SOL    HW284057   7.217   1.122   1.003 -0.2969 -0.4824  0.4871
27827SOL     OW84058   8.124   6.632   0.468 -0.7815 -0.2881  0.1311
27827SOL    HW184059   8.092   6.634   0.559 -0.5431  1.4205  0.2174
27827SOL    HW284060   8.219   6.633   0.477 -0.7533 -0.4064 -0.1500
27828SOL     OW84061   8.853   9.791   3.395  0.1829 -0.5571  0.2077
27828SOL    HW184062   8.826   9.775   3.304 -1.5343  0.3382  0.5220
27828SOL    HW284063   8.779   9.764   3.448  0.8382 -0.2772  1.3120
27829SOL     OW84064   3.839   3.478   5.301 -0.1891  0.7853  0.4244
27829SOL    HW184065   3.893   3.520   5.234 -0.2976  0.2414 -0.0174
27829SOL    HW284066   3.888   3.488   5.382 -0.2402  1.8015  0.3402
27830SOL     OW84067   4.415   8.993   1.419 -0.2702 -0.4637  0.4914
27830SOL    HW184068   4.497   9.040   1.432  0.4290 -1.5384  0.0512
27830SOL    HW284069   4.398   8.950   1.503 -1.3049  1.1176  1.1458
27831SOL     OW84070   3.798   5.247   9.265 -0.1541  0.0443 -0.3995
27831SOL    HW184071   3.758   5.311   9.206 -0.0221  0.9567  0.4819
27831SOL    HW284072   3.802   5.167   9.213 -1.7584  0.3125 -1.0199
27832SOL     OW84073   5.607   7.662   3.294 -0.6343 -0.0644 -0.3269
27832SOL    HW184074   5.547   7.704   3.233  0.0800 -0.0423 -1.0293
27832SOL    HW284075   5.658   7.734   3.331 -0.3681 -0.1800 -0.4707
27833SOL     OW84076   9.912   5.310   0.104  0.1615  0.0117 -0.5859
27833SOL    HW184077   9.865   5.372   0.048 -0.9998  0.1536  0.4880
27833SOL    HW284078   9.844   5.249   0.134  0.4378  0.7273  1.7123
27834SOL     OW84079   2.122   9.151   2.681  0.2054  0.2865 -0.0947
27834SOL    HW184080   2.072   9.159   2.600  0.7996  0.0476 -0.4982
27834SOL    HW284081   2.060   9.118   2.746 -0.2929  0.5541 -0.4372
27835SOL     OW84082   2.649   6.624   1.588 -0.0446 -0.3925 -0.6279
27835SOL    HW184083   2.733   6.668   1.599 -0.0568 -0.6119  0.4105
27835SOL    HW284084   2.655   6.582   1.502  1.4756 -1.6342  0.0545
27836SOL     OW84085   5.952   0.303   2.725  0.5835 -0.4156  0.5080
27836SOL    HW184086   5.993   0.318   2.811  1.2753  2.0449 -0.1742
27836SOL    HW284087   5.870   0.352   2.729 -0.2193 -1.6912  0.3081
27837SOL     OW84088   7.876   7.546   4.522 -0.1437 -0.0685  0.7663
27837SOL    HW184089   7.901   7.568   4.612 -1.5345 -4.1101  2.3638
27837SOL    HW284090   7.953   7.503   4.485 -0.0701  0.2648  0.5205
27838SOL     OW84091   8.424   3.518   0.776  0.0236 -0.2727  0.1032
27838SOL    HW184092   8.463   3.548   0.858 -0.6087 -0.3160  0.4274
27838SOL    HW284093   8.494   3.524   0.712  0.5644 -0.3628  0.6809
27839SOL     OW84094   7.461   2.214   5.478 -0.8674  0.2925 -0.1327
27839SOL    HW184095   7.458   2.309   5.473 -1.6174  0.2652 -0.4436
27839SOL    HW284096   7.518   2.187   5.407 -0.7913  0.5067 -0.1520
27840SOL     OW84097   3.385   4.629   7.268 -0.1851 -0.3736 -0.6743
27840SOL    HW184098   3.332   4.573   7.324  1.2289 -0.6358  0.4423
27840SOL    HW284099   3.459   4.574   7.242  0.3794  0.4719 -0.8980
27841SOL     OW84100   9.560   6.854   1.065 -0.4718  0.0102 -0.3376
27841SOL    HW184101   9.479   6.893   1.033 -1.2247 -0.5758  0.7953
27841SOL    HW284102   9.546   6.759   1.060 -0.3700 -0.1063  1.0220
27842SOL     OW84103   0.874   8.086   0.598 -0.6491  0.0316  0.3254
27842SOL    HW184104   0.819   8.163   0.614 -0.4460  0.2354  0.0488
27842SOL    HW284105   0.955   8.121   0.560 -0.1168 -0.2163  1.1942
27843SOL     OW84106   6.248   2.508   7.781 -1.0528  0.3141 -0.4342
27843SOL    HW184107   6.188   2.575   7.747 -1.3785  2.1183  3.2427
27843SOL    HW284108   6.201   2.468   7.854  0.7666 -1.0153  0.0743
27844SOL     OW84109   1.610   2.046   0.351 -0.0631  0.0463  0.3269
27844SOL    HW184110   1.564   2.019   0.431  2.2340 -1.0663  1.3720
27844SOL    HW284111   1.650   2.130   0.374 -0.7024  0.5094 -0.2242
27845SOL     OW84112   6.423   5.322   3.128 -0.1197  0.2397  0.5721
27845SOL    HW184113   6.378   5.239   3.113  0.4638 -0.0968  0.6617
27845SOL    HW284114   6.430   5.329   3.223 -2.8621  1.8594  0.7299
27846SOL     OW84115   9.201   4.302   8.893 -0.0565  0.4382  0.4813
27846SOL    HW184116   9.107   4.319   8.895 -0.8526 -2.6137 -1.9659
27846SOL    HW284117   9.234   4.358   8.822 -0.5089 -0.0766 -0.1517
27847SOL     OW84118   2.680   4.339   4.560  0.6311  0.1791  0.2798
27847SOL    HW184119   2.614   4.317   4.625  1.1196 -0.7598  0.4805
27847SOL    HW284120   2.728   4.258   4.546  1.7666  0.8399  0.1689
27848SOL     OW84121   0.199   1.639   0.025 -0.3789 -0.1510 -0.4300
27848SOL    HW184122   0.142   1.637   0.102 -0.6440 -0.2141 -0.6279
27848SOL    HW284123   0.213   1.732   0.008  0.8146 -0.1199  0.5258
27849SOL     OW84124   9.538   6.163   8.899 -0.0933 -0.3657 -0.1155
27849SOL    HW184125   9.492   6.230   8.848  0.2947  0.8884  1.1275
27849SOL    HW284126   9.528   6.191   8.990  3.2889  0.1019  0.2360
27850SOL     OW84127   4.821   4.179   9.505  0.7284 -0.2281 -0.2522
27850SOL    HW184128   4.842   4.097   9.459  3.3694 -0.4194  1.1126
27850SOL    HW284129   4.867   4.247   9.456 -0.2930  0.2675 -0.5540
27851SOL     OW84130   1.890   9.186   5.680 -0.4297 -0.4431 -0.2801
27851SOL    HW184131   1.870   9.119   5.614 -0.8812  2.6235 -3.5611
27851SOL    HW284132   1.805   9.214   5.712 -0.2956 -0.6577  0.2743
27852SOL     OW84133   4.967   0.155   2.217  0.3239 -0.4675  0.4308
27852SOL    HW184134   4.904   0.131   2.150 -0.2472 -1.3373  1.2424
27852SOL    HW284135   5.051   0.120   2.186 -0.3327 -2.9746  1.1925
27853SOL     OW84136   5.347   0.016   2.475 -0.5848  0.5703  0.0668
27853SOL    HW184137   5.310   0.091   2.430  1.5421  0.0441 -2.8553
27853SOL    HW284138   5.311  -0.060   2.430  0.4891 -0.0287  0.1750
27854SOL     OW84139   4.707   9.552   8.138 -0.5730 -0.0893  0.2040
27854SOL    HW184140   4.770   9.620   8.115 -0.3725  0.6570  2.7196
27854SOL    HW284141   4.756   9.492   8.194 -0.8971 -2.1085 -1.5339
27855SOL     OW84142   5.754   6.743   6.141 -0.0932  0.6741  0.2829
27855SOL    HW184143   5.731   6.789   6.222 -0.2316  0.6390  0.2628
27855SOL    HW284144   5.773   6.812   6.078 -1.2185  0.7145 -0.0233
27856SOL     OW84145   7.342   5.996   7.971 -0.4810  0.2659  0.1539
27856SOL    HW184146   7.257   5.972   7.932 -1.6117  1.3008  1.8933
27856SOL    HW284147   7.335   6.089   7.989  0.7268  0.1925  1.0936
27857SOL     OW84148   0.248   1.633   6.070  0.5927  0.1254  0.1881
27857SOL    HW184149   0.304   1.693   6.119  2.3887 -2.1621  1.1214
27857SOL    HW284150   0.206   1.579   6.137 -1.4546  0.6624 -0.5911
27858SOL     OW84151   8.414   3.276   7.452 -0.0470 -0.0785  0.6627
27858SOL    HW184152   8.396   3.345   7.516  0.6083 -0.0090  0.7771
27858SOL    HW284153   8.488   3.308   7.402  0.5379 -0.8838  0.9912
27859SOL     OW84154   0.543   9.933   3.671 -0.1412  0.0280  0.4096
27859SOL    HW184155   0.564  10.004   3.611  0.9007 -0.4409  0.1876
27859SOL    HW284156   0.489   9.873   3.620 -0.8180  0.5295  0.5236
27860SOL     OW84157   3.378   6.142   7.812 -0.0527  0.4255 -0.1338
27860SOL    HW184158   3.442   6.126   7.743 -0.5066 -0.6765 -0.3121
27860SOL    HW284159   3.419   6.108   7.891  0.0620  0.7974 -0.0299
27861SOL     OW84160   0.717   5.643   0.621 -0.0250  0.2552  0.2747
27861SOL    HW184161   0.733   5.569   0.563  1.7788  1.1696 -0.4706
27861SOL    HW284162   0.712   5.605   0.709  0.6563 -0.7563 -0.1137
27862SOL     OW84163   2.094   5.599   4.405  0.3374 -0.0138 -0.5631
27862SOL    HW184164   2.118   5.605   4.497 -0.3693 -2.9332 -0.0803
27862SOL    HW284165   2.004   5.632   4.401  0.7625  1.2005 -0.4623
27863SOL     OW84166   6.481   1.840   6.821 -0.3383 -0.1073 -0.2219
27863SOL    HW184167   6.427   1.852   6.899 -1.1913  1.6036 -1.0237
27863SOL    HW284168   6.465   1.919   6.769 -0.2665 -1.4825 -2.4180
27864SOL     OW84169   6.912   7.001   5.662 -0.5202  0.4662  0.0491
27864SOL    HW184170   6.887   7.054   5.586 -0.9585 -0.0789 -0.2016
27864SOL    HW284171   6.953   6.923   5.624 -2.0205 -0.4797  0.2857
27865SOL     OW84172   0.959   6.452   7.381  0.1962  0.0236  0.1722
27865SOL    HW184173   1.027   6.503   7.425  0.5751  1.5186 -2.0057
27865SOL    HW284174   0.927   6.509   7.311 -1.2557 -1.7587 -0.7051
27866SOL     OW84175   9.881   9.177   5.577 -0.2114  0.3016  0.2546
27866SOL    HW184176   9.853   9.103   5.523 -0.0997  0.2474  0.2710
27866SOL    HW284177   9.974   9.163   5.590 -0.6093 -0.8090  2.1868
27867SOL     OW84178   4.609   8.016   5.053 -0.7094 -0.4855  0.1876
27867SOL    HW184179   4.601   8.103   5.091 -1.3316 -0.2472 -0.4622
27867SOL    HW284180   4.694   7.984   5.084 -0.2347  0.5573  0.0231
27868SOL     OW84181   2.695   9.862   3.474 -0.5566 -0.1581  0.4232
27868SOL    HW184182   2.761   9.932   3.467  0.4736 -1.2339 -1.5464
27868SOL    HW284183   2.685   9.829   3.384 -1.7224 -1.9041  1.1354
27869SOL     OW84184   8.578   5.857   1.520 -0.4713 -0.4276  0.3487
27869SOL    HW184185   8.611   5.768   1.508  1.7801  0.4982 -1.0825
27869SOL    HW284186   8.655   5.913   1.504 -2.2268  1.8287 -0.7925
27870SOL     OW84187   8.193   9.426   3.675  0.3131 -0.2639  0.1404
27870SOL    HW184188   8.178   9.414   3.581 -1.4701  0.0743  0.3475
27870SOL    HW284189   8.163   9.515   3.693  2.0687  0.2383  0.7803
27871SOL     OW84190   1.035   6.283   2.317 -0.1464 -0.0432  0.0245
27871SOL    HW184191   0.994   6.255   2.398 -0.0344 -0.4803 -0.0700
27871SOL    HW284192   1.097   6.214   2.296 -0.3698 -0.0678 -0.5767
27872SOL     OW84193   2.826   5.446   1.515  0.0959 -0.3171  0.0775
27872SOL    HW184194   2.894   5.383   1.492  0.5786  0.2220 -0.0081
27872SOL    HW284195   2.829   5.511   1.445  0.4314  0.4486  0.7916
27873SOL     OW84196   3.730   6.124   9.840 -0.2992 -0.0402  0.1580
27873SOL    HW184197   3.678   6.134   9.760  0.6374 -1.6375 -0.6892
27873SOL    HW284198   3.708   6.202   9.893 -1.8053  0.4589 -1.1332
27874SOL     OW84199   2.789   1.629   5.306 -0.1922  0.1807 -0.1852
27874SOL    HW184200   2.755   1.687   5.238 -1.9209 -0.0793  0.3957
27874SOL    HW284201   2.829   1.557   5.258 -0.2006  0.6546 -0.9282
27875SOL     OW84202   5.821   3.118   1.711  0.4088 -0.2436 -0.4403
27875SOL    HW184203   5.787   3.040   1.668 -0.1071  0.9883 -2.3769
27875SOL    HW284204   5.897   3.087   1.760 -0.1314 -2.0453 -0.6564
27876SOL     OW84205   1.718   1.012   1.595  0.8833 -0.2444 -0.5889
27876SOL    HW184206   1.761   0.983   1.675 -1.6642 -0.3699  0.8587
27876SOL    HW284207   1.743   1.104   1.587 -0.1994  0.2794  1.4098
27877SOL     OW84208   9.476   3.164   5.032 -0.0653  0.1068  0.2753
27877SOL    HW184209   9.478   3.133   5.123  3.0933  0.3671  0.4115
27877SOL    HW284210   9.473   3.085   4.980 -0.2447 -0.1214  0.6277
27878SOL     OW84211   7.937   7.774   8.820 -0.1447  0.3818 -0.3649
27878SOL    HW184212   8.020   7.728   8.815 -0.9711 -1.1928 -0.2245
27878SOL    HW284213   7.946   7.833   8.896  0.2250 -1.0845  0.7754
27879SOL     OW84214   2.465   3.607   9.436  0.2427  0.3822 -0.3234
27879SOL    HW184215   2.433   3.612   9.346  0.3835  0.6257 -0.3596
27879SOL    HW284216   2.561   3.612   9.428  0.3614 -1.2191 -0.2924
27880SOL     OW84217   6.944   2.828   5.279 -0.2615  0.0142  0.1728
27880SOL    HW184218   6.979   2.837   5.368 -1.8105 -3.1340  1.2630
27880SOL    HW284219   6.962   2.737   5.255  2.0855  1.2674 -3.7809
27881SOL     OW84220   2.622   8.245   0.435  0.2413  0.5292  0.4643
27881SOL    HW184221   2.627   8.290   0.519  0.7680 -0.0302  0.7448
27881SOL    HW284222   2.597   8.313   0.372 -0.2041  0.9381  1.0797
27882SOL     OW84223   2.795   9.067   2.871 -0.4597 -0.0096  0.6353
27882SOL    HW184224   2.790   9.131   2.800 -1.0936 -0.1437  0.5464
27882SOL    HW284225   2.721   9.088   2.927  0.0731  0.1286  1.2944
27883SOL     OW84226   1.571   1.599   9.226 -0.5307 -0.6126 -0.3298
27883SOL    HW184227   1.622   1.674   9.258 -0.1893 -1.2143  0.5755
27883SOL    HW284228   1.619   1.522   9.257 -1.1289 -1.2065 -0.8425
27884SOL     OW84229   9.331   4.999   1.630 -0.2277  0.3047  0.3517
27884SOL    HW184230   9.261   4.944   1.594  0.3041 -0.2316  0.1385
27884SOL    HW284231   9.349   4.962   1.716  1.4584 -1.0791 -0.5453
27885SOL     OW84232   5.476   9.433   4.261 -0.1733  0.3487  0.2957
27885SOL    HW184233   5.559   9.396   4.232 -0.3423  0.5727 -0.4831
27885SOL    HW284234   5.414   9.414   4.191 -0.1798  2.4241 -0.3507
27886SOL     OW84235   8.340   5.215   6.258 -0.1787  0.0884 -0.1368
27886SOL    HW184236   8.292   5.141   6.296  2.3101 -2.2257 -1.0981
27886SOL    HW284237   8.408   5.234   6.322  0.3324  0.2724 -0.7328
27887SOL     OW84238   4.295   8.995   9.581 -0.4718 -0.1250 -0.2019
27887SOL    HW184239   4.230   8.997   9.652 -0.7954 -1.1921 -0.4531
27887SOL    HW284240   4.255   9.048   9.511  0.1169  1.4559  0.5995
27888SOL     OW84241   6.730   6.222   6.271 -0.1075  0.6524  0.4262
27888SOL    HW184242   6.782   6.297   6.299  0.2022  0.0240  1.6078
27888SOL    HW284243   6.776   6.146   6.306 -1.1391  0.0037  0.4133
27889SOL     OW84244   9.229   1.714   1.884  0.2444 -0.1318 -0.1007
27889SOL    HW184245   9.167   1.650   1.849  1.3599 -2.3299  1.6812
27889SOL    HW284246   9.186   1.749   1.962  0.7446 -0.8067  0.4890
27890SOL     OW84247   8.416   7.841   5.184  0.4696 -0.0973 -0.1221
27890SOL    HW184248   8.365   7.782   5.239 -1.2385  1.7142  0.3316
27890SOL    HW284249   8.504   7.840   5.221 -0.0082 -0.8945  1.0227
27891SOL     OW84250   5.303   0.682   7.910 -0.7771  0.3291  0.0925
27891SOL    HW184251   5.364   0.630   7.963  0.2492  0.7238 -0.6744
27891SOL    HW284252   5.218   0.667   7.951 -0.5460 -2.0077 -0.0929
27892SOL     OW84253   4.314   3.726   4.510 -0.4354 -0.2766 -0.2485
27892SOL    HW184254   4.389   3.711   4.452 -1.1269  0.3109 -1.3465
27892SOL    HW284255   4.263   3.646   4.505  0.7782 -1.2402  1.6096
27893SOL     OW84256   2.455   6.902   4.336  0.2935 -0.6759  0.1098
27893SOL    HW184257   2.438   6.956   4.413  1.2946 -1.0295  0.5911
27893SOL    HW284258   2.544   6.869   4.349  0.0357 -1.6897 -0.6254
27894SOL     OW84259   6.187   9.847   0.094  0.2382  0.2938 -0.0562
27894SOL    HW184260   6.272   9.875   0.127 -1.4576 -0.2867  5.9414
27894SOL    HW284261   6.130   9.924   0.104 -0.7468 -0.3560 -0.4393
27895SOL     OW84262   7.239   0.919   9.346  0.1205 -0.4856 -0.2390
27895SOL    HW184263   7.228   1.011   9.324  0.8336 -0.4530 -0.4690
27895SOL    HW284264   7.302   0.918   9.417 -1.1507 -0.6939  0.9364
27896SOL     OW84265   3.436   1.269   7.878 -0.0417  0.0080  0.4611
27896SOL    HW184266   3.526   1.238   7.872 -0.3477 -1.2412  1.6887
27896SOL    HW284267   3.412   1.293   7.788  1.6189  0.7305  0.1846
27897SOL     OW84268   2.736   5.347   7.985  0.6705  0.0568  0.1213
27897SOL    HW184269   2.798   5.402   8.034  0.5002 -1.1097  1.7524
27897SOL    HW284270   2.655   5.398   7.984  0.8749  0.4006  0.4703
27898SOL     OW84271   0.292   5.028   0.265  0.0109 -0.3507 -0.3503
27898SOL    HW184272   0.367   5.006   0.321  0.7000  2.0018 -0.2660
27898SOL    HW284273   0.319   5.001   0.178  0.7105 -0.1349 -0.2127
27899SOL     OW84274   9.516   2.278   4.857  0.3232  0.4541 -0.2393
27899SOL    HW184275   9.611   2.294   4.859  1.2210 -3.2467 -2.6224
27899SOL    HW284276   9.487   2.295   4.946  3.5067  0.4537  0.9265
27900SOL     OW84277   7.938   4.300   4.277  0.1676 -0.1347 -0.5206
27900SOL    HW184278   7.855   4.319   4.233  0.9075  0.6400 -1.6433
27900SOL    HW284279   7.946   4.366   4.346  0.4065  0.5628 -1.2045
27901SOL     OW84280   7.597   8.469   2.857  0.9013 -0.3915 -0.2019
27901SOL    HW184281   7.623   8.378   2.870  0.9569 -0.3769 -0.2104
27901SOL    HW284282   7.679   8.518   2.857  0.7957 -0.1200  1.6353
27902SOL     OW84283   8.235   3.427   7.655  0.5457 -0.3678  0.4204
27902SOL    HW184284   8.174   3.391   7.719 -0.2618  0.3042  0.0425
27902SOL    HW284285   8.248   3.518   7.684 -0.2043  0.0900 -0.6290
27903SOL     OW84286   1.942   7.471   4.927 -0.7866 -0.2663 -0.0149
27903SOL    HW184287   1.966   7.496   5.016  0.0240 -2.4046  0.4292
27903SOL    HW284288   1.881   7.398   4.938 -1.0285 -0.2687 -1.2159
27904SOL     OW84289   2.977   9.252   9.395 -0.2575 -0.0331  0.1357
27904SOL    HW184290   2.955   9.334   9.351  1.3745 -0.2071 -1.1019
27904SOL    HW284291   3.019   9.279   9.477 -1.7087  0.3139  0.7903
27905SOL     OW84292   7.562   2.878   1.767  0.1813 -0.2245  0.0432
27905SOL    HW184293   7.580   2.828   1.688 -0.9737  0.9910 -1.0413
27905SOL    HW284294   7.479   2.843   1.799  0.4207 -0.4089  0.4707
27906SOL     OW84295   5.970   8.439   6.489 -0.2273 -0.0864  0.1355
27906SOL    HW184296   6.017   8.500   6.546  0.0797 -1.3970  1.3438
27906SOL    HW284297   5.878   8.447   6.516 -0.0698 -0.7739  0.9089
27907SOL     OW84298   2.339   0.970   1.415  0.1278  0.1013  0.1164
27907SOL    HW184299   2.310   0.923   1.493  1.1205 -0.8757 -0.0704
27907SOL    HW284300   2.293   0.927   1.343 -0.0186  0.3340  0.0711
27908SOL     OW84301   7.681   3.372   3.898 -0.4110 -0.2545 -0.5562
27908SOL    HW184302   7.711   3.341   3.983 -0.1141 -0.1035 -0.6051
27908SOL    HW284303   7.652   3.462   3.913  0.2481 -0.0029 -0.7396
27909SOL     OW84304   1.818   1.837   2.073 -0.0181  0.3305 -0.0470
27909SOL    HW184305   1.729   1.812   2.098 -0.5809  2.9027  0.8648
27909SOL    HW284306   1.873   1.804   2.144 -0.0980 -1.7228 -0.8640
27910SOL     OW84307   3.600   8.318   3.892 -0.2425  0.0239 -0.7723
27910SOL    HW184308   3.683   8.308   3.844 -0.7232 -0.8758 -1.4569
27910SOL    HW284309   3.533   8.314   3.824 -0.8729  0.3658 -0.1805
27911SOL     OW84310   8.437   1.464   3.570  0.2048 -0.3126 -0.0017
27911SOL    HW184311   8.404   1.530   3.630 -2.2589 -0.9354 -0.5627
27911SOL    HW284312   8.467   1.392   3.626  1.1553  0.4687  0.5334
27912SOL     OW84313   4.732   2.451   0.750 -0.3081  0.0749  0.2716
27912SOL    HW184314   4.787   2.409   0.816  0.6615 -0.3141 -0.7610
27912SOL    HW284315   4.743   2.544   0.766  2.3377  0.0974 -1.1858
27913SOL     OW84316   8.976   0.068   0.523 -0.0243 -0.2151 -0.6224
27913SOL    HW184317   9.061   0.104   0.549  0.6979 -2.2603  0.0030
27913SOL    HW284318   8.996  -0.001   0.460 -1.0498 -1.9006  0.8026
27914SOL     OW84319   4.765   1.474   7.946  0.3143 -0.1191  0.1365
27914SOL    HW184320   4.674   1.492   7.971 -0.1491  0.0091 -1.5373
27914SOL    HW284321   4.776   1.380   7.962 -0.6336 -0.4762 -1.0905
27915SOL     OW84322   4.140   5.562   1.797  0.2175  0.5119 -0.2580
27915SOL    HW184323   4.199   5.502   1.842 -0.8684  1.1995  2.2436
27915SOL    HW284324   4.113   5.514   1.718 -0.5299 -2.2923  1.5515
27916SOL     OW84325   4.402   8.987   7.968 -0.4144 -0.4930  0.3197
27916SOL    HW184326   4.465   8.996   7.897 -2.6199 -0.0683 -1.6716
27916SOL    HW284327   4.382   9.077   7.994 -2.0026 -0.4905 -0.7847
27917SOL     OW84328   6.520   4.630   1.928  0.4231 -0.1093 -0.0470
27917SOL    HW184329   6.538   4.691   2.000  0.8147 -0.6562  0.3261
27917SOL    HW284330   6.481   4.554   1.970  2.1682 -1.1206 -0.1714
27918SOL     OW84331   7.990   6.093   7.856  0.3851 -0.9712  0.8274
27918SOL    HW184332   7.954   6.031   7.792  0.0035  0.1034 -0.0234
27918SOL    HW284333   7.966   6.179   7.822 -1.3694 -0.3632  3.2789
27919SOL     OW84334   9.030   9.496   9.636 -0.2484  0.1216 -0.5984
27919SOL    HW184335   9.002   9.407   9.613 -0.4009 -0.1978  0.7868
27919SOL    HW284336   9.013   9.504   9.729  3.2609  0.2791  0.1736
27920SOL     OW84337   8.603   0.101   5.203  0.1431 -0.0585  0.2647
27920SOL    HW184338   8.599   0.025   5.146  2.4850 -1.3465  1.6461
27920SOL    HW284339   8.632   0.172   5.146 -0.2256 -0.6464 -0.6800
27921SOL     OW84340   1.746   9.227   5.929 -0.4856  0.9728 -0.0418
27921SOL    HW184341   1.718   9.306   5.883  3.0352  2.6928  0.4408
27921SOL    HW284342   1.786   9.259   6.010 -2.4516 -1.6670  2.1679
27922SOL     OW84343   4.267   2.611   8.597 -0.1729  0.5685  0.5318
27922SOL    HW184344   4.313   2.608   8.513  0.4662 -0.7287  0.9012
27922SOL    HW284345   4.337   2.609   8.662 -0.6974 -0.7142  1.1001
27923SOL     OW84346   9.393   4.917   9.786 -0.1233  0.1351  0.1439
27923SOL    HW184347   9.402   4.925   9.881  2.0139 -0.1124  0.0121
27923SOL    HW284348   9.330   4.847   9.774 -0.0047 -0.2147  1.3924
27924SOL     OW84349   0.336   0.177   2.367  0.5059 -0.4279  0.1251
27924SOL    HW184350   0.348   0.265   2.404 -1.5564 -0.3943  0.8492
27924SOL    HW284351   0.321   0.193   2.274 -0.8842  0.1429  0.4080
27925SOL     OW84352   6.340   3.679   0.592  0.1588 -0.6866 -0.2794
27925SOL    HW184353   6.416   3.701   0.538 -0.6593 -0.0244 -1.1924
27925SOL    HW284354   6.266   3.676   0.531 -1.1801  2.1460  1.0214
27926SOL     OW84355   5.086   5.623   4.308  0.0295 -0.1180  0.1446
27926SOL    HW184356   5.098   5.528   4.320  1.7842 -0.3924 -2.7268
27926SOL    HW284357   5.020   5.630   4.240 -1.7382  0.8800  1.8820
27927SOL     OW84358   0.481   1.180   3.489  0.1174  0.2295  0.0276
27927SOL    HW184359   0.575   1.195   3.490  0.2607 -0.6136  0.0828
27927SOL    HW284360   0.442   1.267   3.483  0.8996  0.5790  0.0007
27928SOL     OW84361   2.783   6.986   7.961 -0.3366 -0.2506 -0.7052
27928SOL    HW184362   2.709   6.926   7.969  0.4141 -1.3607 -1.6547
27928SOL    HW284363   2.752   7.054   7.901 -1.6572  1.1118  1.4279
27929SOL     OW84364   1.758   2.457   5.135 -0.4127  0.1891  0.3608
27929SOL    HW184365   1.729   2.366   5.132 -1.7972  0.6215  0.1244
27929SOL    HW284366   1.715   2.498   5.060 -0.2882  1.1880  0.8255
27930SOL     OW84367   9.164   6.527   4.300  0.1805 -0.0220  0.1130
27930SOL    HW184368   9.248   6.535   4.344  0.3513  2.6436 -0.5019
27930SOL    HW284369   9.106   6.489   4.365  1.4959 -0.4703  1.0613
27931SOL     OW84370   1.071   1.989   3.057  0.1967 -0.1478  0.0502
27931SOL    HW184371   1.088   2.007   3.149  2.4376  0.8897 -0.4952
27931SOL    HW284372   0.980   2.014   3.043  0.3269  1.3406  1.6041
27932SOL     OW84373   2.031   6.475   5.899 -0.2340  0.2882 -0.0792
27932SOL    HW184374   2.071   6.395   5.933  1.6585  1.1106 -0.2794
27932SOL    HW284375   2.085   6.500   5.824 -1.1669  1.4216 -0.4138
27933SOL     OW84376   8.971   5.784   3.133  0.1563 -0.0373  0.1805
27933SOL    HW184377   9.058   5.783   3.092  1.4003 -0.0277  2.6335
27933SOL    HW284378   8.921   5.720   3.082  2.4973 -2.2597  0.4197
27934SOL     OW84379   0.696   3.682   1.981  0.1977  0.3095  0.0347
27934SOL    HW184380   0.672   3.720   1.896  1.3584  0.7202 -0.1353
27934SOL    HW284381   0.668   3.591   1.976  1.4894 -0.0567 -1.3531
27935SOL     OW84382   1.361   4.811   5.892  0.1121 -0.0346  0.4004
27935SOL    HW184383   1.354   4.885   5.951 -0.4789 -0.0711  0.3896
27935SOL    HW284384   1.351   4.734   5.948 -0.1530 -0.0769  0.2982
27936SOL     OW84385   3.137   8.532   5.935 -0.2847  0.1393 -0.4204
27936SOL    HW184386   3.207   8.596   5.949 -0.5144  0.1232  1.0257
27936SOL    HW284387   3.087   8.566   5.861  0.7799  0.5648 -0.9626
27937SOL     OW84388   1.237   5.408   3.465  0.2839  0.0453 -0.0741
27937SOL    HW184389   1.243   5.491   3.513 -0.7551 -0.8099  1.6075
27937SOL    HW284390   1.328   5.385   3.447  0.6626  0.7641  0.8284
27938SOL     OW84391   9.210   7.827   2.170 -0.4154 -0.3619 -0.3705
27938SOL    HW184392   9.167   7.893   2.225 -0.9689  0.1059 -1.3359
27938SOL    HW284393   9.294   7.867   2.148  0.5251 -1.2288  1.4234
27939SOL     OW84394   3.817   8.703   5.478 -0.0095  0.6753 -0.1944
27939SOL    HW184395   3.843   8.662   5.395 -0.9931 -1.9676  0.6902
27939SOL    HW284396   3.848   8.643   5.545 -2.8687  0.5358  1.1508
27940SOL     OW84397   6.242   8.235   1.522  0.2770  0.3130 -0.2261
27940SOL    HW184398   6.310   8.280   1.472 -1.2548 -0.3857 -3.1794
27940SOL    HW284399   6.160   8.268   1.486 -0.9869  0.0011  2.1500
27941SOL     OW84400   3.216   8.892   6.864 -0.1577  0.2057  0.4219
27941SOL    HW184401   3.298   8.886   6.912 -0.6314  1.5232  1.4696
27941SOL    HW284402   3.229   8.838   6.786  1.9800  0.9890  0.1678
27942SOL     OW84403   1.792   0.384   8.443 -0.0361 -0.5997  0.2922
27942SOL    HW184404   1.802   0.317   8.510 -0.4202 -0.6647  0.2845
27942SOL    HW284405   1.705   0.370   8.407  0.6522 -1.3733 -1.1178
27943SOL     OW84406   3.036   6.587   6.673  0.2655  0.2225  0.0497
27943SOL    HW184407   3.090   6.632   6.737  0.3315  1.2929 -0.7286
27943SOL    HW284408   2.946   6.608   6.697  0.1279 -1.6332  1.3992
27944SOL     OW84409   5.132   7.407   9.730  0.3378 -0.0684  0.2531
27944SOL    HW184410   5.095   7.488   9.695 -0.3147  0.4224  2.0277
27944SOL    HW284411   5.205   7.387   9.670 -1.4496  0.0372 -2.1008
27945SOL     OW84412   8.636   8.884   9.597 -0.0997  0.3194  0.3130
27945SOL    HW184413   8.573   8.881   9.525 -0.3467  0.6884  0.5131
27945SOL    HW284414   8.635   8.975   9.626 -0.9262 -0.0939  1.6259
27946SOL     OW84415   2.167   8.590   6.294  0.0479 -0.2685 -0.0984
27946SOL    HW184416   2.236   8.526   6.274  0.2341 -0.6457  1.6375
27946SOL    HW284417   2.111   8.546   6.358 -0.7958  0.7033 -0.1438
27947SOL     OW84418   4.722   3.450   8.381 -0.4006  0.2049  0.6610
27947SOL    HW184419   4.713   3.544   8.367 -0.5129  0.3556  1.7137
27947SOL    HW284420   4.799   3.441   8.438 -1.4143 -0.2068  2.0038
27948SOL     OW84421   2.890   6.528   8.967  0.0321 -0.6796  0.1872
27948SOL    HW184422   2.972   6.500   8.926  1.1705 -0.2971  2.1286
27948SOL    HW284423   2.864   6.454   9.022 -1.8513 -1.4656 -1.6033
27949SOL     OW84424   2.324   8.107   2.813  1.1300 -0.0589  0.4282
27949SOL    HW184425   2.273   8.096   2.894  0.7189 -0.2146  0.1517
27949SOL    HW284426   2.285   8.184   2.771  1.0593 -0.2363  0.1675
27950SOL     OW84427   4.227   6.569   9.982 -0.5348  0.5390  0.2208
27950SOL    HW184428   4.235   6.663  10.000  0.0371  0.7582 -1.0456
27950SOL    HW284429   4.148   6.562   9.929 -0.1345  0.4363 -0.3815
27951SOL     OW84430   5.204   4.244   9.043  0.1839  0.0850  0.4400
27951SOL    HW184431   5.290   4.281   9.022 -0.3400  0.4103 -1.2673
27951SOL    HW284432   5.150   4.262   8.966 -1.6204  0.4721  1.7336
27952SOL     OW84433   1.292   6.007   2.565 -0.2813  0.1766 -0.0010
27952SOL    HW184434   1.235   5.933   2.545 -1.3319  0.6001  1.3043
27952SOL    HW284435   1.252   6.082   2.520  1.5819 -0.2134 -2.5757
27953SOL     OW84436   5.917   3.923   3.504  0.0614  0.1798 -0.2963
27953SOL    HW184437   5.890   3.983   3.574 -1.0891 -0.9989  0.3335
27953SOL    HW284438   5.841   3.865   3.492  1.1264 -1.1640 -0.8448
27954SOL     OW84439   1.554   3.550   9.713  0.1678  0.3860  0.1933
27954SOL    HW184440   1.520   3.563   9.801  0.0926  2.3183 -0.0738
27954SOL    HW284441   1.622   3.617   9.703  0.9113 -0.4871 -0.8616
27955SOL     OW84442   8.423   3.451   9.697  0.1210  0.6813  0.1915
27955SOL    HW184443   8.394   3.541   9.683  2.0626  1.1308 -1.2924
27955SOL    HW284444   8.440   3.445   9.791 -2.6521  0.9679  0.8017
27956SOL     OW84445   0.305   8.520   9.121  0.7586  0.3557  0.1488
27956SOL    HW184446   0.394   8.553   9.126  0.4448  1.4448 -0.9302
27956SOL    HW284447   0.274   8.546   9.034 -0.2310 -1.0080  0.0525
27957SOL     OW84448   5.472   7.356   0.603 -0.5127 -0.4085  0.1937
27957SOL    HW184449   5.478   7.283   0.664  0.5195  0.4081  1.0968
27957SOL    HW284450   5.525   7.329   0.528 -0.4040 -0.7119  0.3777
27958SOL     OW84451   3.389   3.115   0.317 -0.1877 -0.9176  0.3197
27958SOL    HW184452   3.464   3.057   0.305 -0.8420 -1.4599 -1.6727
27958SOL    HW284453   3.313   3.056   0.314 -0.7876 -0.1423 -0.1912
27959SOL     OW84454   8.003   2.076   8.282 -0.3597 -0.5063 -0.5745
27959SOL    HW184455   7.913   2.045   8.283 -0.1409 -1.3736 -2.5353
27959SOL    HW284456   8.006   2.138   8.209  0.3766  0.4373  0.2230
27960SOL     OW84457   3.069   9.981   5.429 -0.0518  0.0465 -0.2074
27960SOL    HW184458   3.096   9.974   5.521 -3.0758 -1.9301  0.6680
27960SOL    HW284459   3.108   9.905   5.386  0.9627  0.7135 -0.5264
27961SOL     OW84460   3.089   8.495   3.241 -0.4080  0.2446  0.4528
27961SOL    HW184461   3.170   8.499   3.291  0.0232  1.1175 -0.2949
27961SOL    HW284462   3.117   8.480   3.151 -1.1475 -0.7145  0.3623
27962SOL     OW84463   5.697   6.288   7.480  0.6018  0.2586  0.4554
27962SOL    HW184464   5.725   6.320   7.566  0.5910 -0.9556  0.9448
27962SOL    HW284465   5.660   6.364   7.436  1.9843  1.2326  0.9375
27963SOL     OW84466   5.548   5.840   4.843 -0.0929 -0.7910  0.7667
27963SOL    HW184467   5.590   5.809   4.924 -1.3757 -1.1066  1.3429
27963SOL    HW284468   5.477   5.897   4.873 -1.3371 -1.8440 -0.0700
27964SOL     OW84469   3.680   5.210   1.495  0.0301 -0.5968  0.0447
27964SOL    HW184470   3.696   5.166   1.578 -0.2385 -0.9328 -0.0777
27964SOL    HW284471   3.589   5.189   1.474 -0.4158  0.8122  0.4588
27965SOL     OW84472   6.634   9.496   6.032  0.7097 -0.2683 -0.2807
27965SOL    HW184473   6.665   9.456   5.951 -3.8498 -0.3722 -2.3236
27965SOL    HW284474   6.664   9.587   6.027  0.9049 -0.3891 -1.9372
27966SOL     OW84475   0.246   8.183   2.814 -0.0418  0.6670  0.1941
27966SOL    HW184476   0.303   8.163   2.889 -0.5510  0.4193  0.5204
27966SOL    HW284477   0.302   8.232   2.754  1.1132 -1.2964 -0.4280
27967SOL     OW84478   0.239   7.744   7.281  0.0991  0.3299 -0.3543
27967SOL    HW184479   0.184   7.806   7.329 -0.8666 -0.0855 -0.8857
27967SOL    HW284480   0.276   7.687   7.348  1.0443  1.5037  0.1415
27968SOL     OW84481   9.624   3.177   8.957 -0.3203  0.1470  0.2541
27968SOL    HW184482   9.570   3.146   9.030  0.9018 -0.0785  1.0737
27968SOL    HW284483   9.571   3.158   8.879 -0.4541 -2.2195  0.8563
27969SOL     OW84484   7.319   3.406   8.918  0.7371  0.0860  0.4520
27969SOL    HW184485   7.318   3.323   8.967 -0.8536 -0.3443 -0.2315
27969SOL    HW284486   7.344   3.381   8.829  0.7561  0.4092  0.3674
27970SOL     OW84487   5.710   3.102   5.573 -0.5888 -0.3020 -0.0199
27970SOL    HW184488   5.666   3.018   5.556 -2.3179 -0.0143  2.4836
27970SOL    HW284489   5.738   3.095   5.664  1.1419  1.0732 -0.4121
27971SOL     OW84490   9.260   0.461   8.695  0.2502 -0.0526  0.0763
27971SOL    HW184491   9.283   0.468   8.788 -0.0765 -0.0102  0.1553
27971SOL    HW284492   9.338   0.490   8.649  0.3526  0.0939  0.3413
27972SOL     OW84493   8.307   1.806   7.681  0.0383  0.5798  0.0704
27972SOL    HW184494   8.394   1.833   7.653 -0.2246  1.9683  0.4946
27972SOL    HW284495   8.258   1.796   7.599  0.4583  0.2463 -0.1451
27973SOL     OW84496   0.902   4.182   3.825  0.1367  0.1605  0.0752
27973SOL    HW184497   0.852   4.203   3.904  1.4934  0.7211  0.8227
27973SOL    HW284498   0.893   4.087   3.815 -1.0531  0.2502  0.1891
27974SOL     OW84499   1.769   7.692   7.055 -0.0863 -0.2365  0.3440
27974SOL    HW184500   1.854   7.735   7.062  0.6489 -1.7414  1.0304
27974SOL    HW284501   1.760   7.673   6.961 -0.2603  1.0302  0.0837
27975SOL     OW84502   1.308   9.439   0.844  0.1585 -0.3463 -0.3400
27975SOL    HW184503   1.256   9.471   0.917  0.5185 -0.0429 -0.2093
27975SOL    HW284504   1.245   9.421   0.775 -0.0759  0.4513 -0.3419
27976SOL     OW84505   1.332   6.212   1.299 -0.0859 -0.2114  0.0075
27976SOL    HW184506   1.257   6.186   1.245 -1.1580  0.2125  1.2205
27976SOL    HW284507   1.383   6.271   1.243 -1.4546  0.6516 -0.3880
27977SOL     OW84508   8.937   3.611   2.066  0.1680  0.4927 -0.3810
27977SOL    HW184509   8.843   3.604   2.052  0.0234 -0.6576  0.9393
27977SOL    HW284510   8.973   3.630   1.980 -1.1237 -0.5918 -1.2027
27978SOL     OW84511   5.163   1.032   1.391 -0.1075 -0.1658 -0.2126
27978SOL    HW184512   5.189   1.011   1.481  2.4424  0.6262 -0.6583
27978SOL    HW284513   5.099   1.102   1.400  1.6902  1.4326  1.0468
27979SOL     OW84514   5.133   9.842   1.456  0.0343 -0.5827 -0.0837
27979SOL    HW184515   5.147   9.818   1.548 -2.1240  2.2078  1.1292
27979SOL    HW284516   5.072   9.776   1.423  0.5080 -1.3765  0.5855
27980SOL     OW84517   6.484   5.811   4.462  0.5785  0.0348 -0.2031
27980SOL    HW184518   6.417   5.742   4.462  0.9217 -0.3002 -0.4302
27980SOL    HW284519   6.530   5.800   4.379  0.7341  0.4480 -0.1769
27981SOL     OW84520   8.732   5.859   6.835  0.2546  0.2345 -0.2824
27981SOL    HW184521   8.671   5.906   6.777  0.8809 -1.2646 -2.2933
27981SOL    HW284522   8.690   5.775   6.851  0.3390  0.4321  1.0726
27982SOL     OW84523   9.909   9.790   6.972  0.1429 -0.5774  0.6289
27982SOL    HW184524   9.919   9.885   6.977 -2.1679 -0.2409  0.1021
27982SOL    HW284525   9.971   9.763   6.904 -1.1075  0.9772 -1.2329
27983SOL     OW84526   0.918   8.260   4.968 -0.2540  0.8925 -0.1705
27983SOL    HW184527   0.934   8.166   4.975 -1.1113  0.7759  0.4217
27983SOL    HW284528   0.945   8.283   4.879  1.8578  0.4818  0.2935
27984SOL     OW84529   1.428   9.756   1.752  0.2227  0.2102  0.4620
27984SOL    HW184530   1.490   9.800   1.811  0.4191 -0.7815  1.0185
27984SOL    HW284531   1.344   9.796   1.772  0.3900  0.3147  0.9828
27985SOL     OW84532   2.863   7.121   2.685  0.6366  0.2444  0.3061
27985SOL    HW184533   2.958   7.113   2.683  0.4517 -2.5496 -0.0523
27985SOL    HW284534   2.843   7.135   2.778  1.2588 -2.9079  1.0264
27986SOL     OW84535   2.395   1.487   2.633 -0.6293  0.4453  0.0109
27986SOL    HW184536   2.319   1.536   2.663 -0.5378  0.6083 -0.0271
27986SOL    HW284537   2.374   1.396   2.654 -0.4459  0.5836  0.8426
27987SOL     OW84538   5.391   2.515   5.142  0.3000 -0.4884  0.2132
27987SOL    HW184539   5.358   2.497   5.054 -2.8390  0.1380  1.1301
27987SOL    HW284540   5.348   2.449   5.197  2.1084 -0.7891  1.3496
27988SOL     OW84541   2.365   1.314   8.800  0.3368  0.1347  0.7381
27988SOL    HW184542   2.323   1.240   8.756  1.0782  0.1412  0.0057
27988SOL    HW284543   2.396   1.277   8.883  2.1176 -0.8295 -0.2930
27989SOL     OW84544   4.796   2.894   1.670 -0.3471  0.6021  0.6925
27989SOL    HW184545   4.711   2.857   1.649 -0.1776 -0.3592  1.6188
27989SOL    HW284546   4.832   2.836   1.738  0.9201  1.1482  0.5231
27990SOL     OW84547   4.801   2.108   5.921 -0.4471  0.1629  0.1988
27990SOL    HW184548   4.855   2.117   5.843  0.6990 -4.2151  0.2346
27990SOL    HW284549   4.721   2.158   5.901  1.7861  3.4325 -1.5203
27991SOL     OW84550   0.424   3.562   5.715  0.2554 -0.4923  0.5955
27991SOL    HW184551   0.331   3.541   5.710 -0.2838  1.7667 -0.5441
27991SOL    HW284552   0.447   3.548   5.807 -0.3136 -4.1871  0.2940
27992SOL     OW84553   9.168   5.214   2.062  0.0699  0.0986 -0.5349
27992SOL    HW184554   9.160   5.173   2.148  1.0855  0.7339 -0.1085
27992SOL    HW284555   9.149   5.144   2.000 -1.4275 -0.1843  0.1993
27993SOL     OW84556   1.024   5.538   1.890  0.0666  0.5688 -0.1367
27993SOL    HW184557   1.080   5.567   1.961  1.7040 -0.2508 -1.0284
27993SOL    HW284558   1.068   5.461   1.854 -1.1004  0.4991 -1.5393
27994SOL     OW84559   3.739   8.172   7.461 -0.0711 -0.1561 -0.1060
27994SOL    HW184560   3.655   8.213   7.439 -0.4475 -0.6068  0.4580
27994SOL    HW284561   3.715   8.083   7.487  0.4420  0.0977  1.2883
27995SOL     OW84562   8.373   8.789   1.259 -0.2105 -0.0890 -0.1262
27995SOL    HW184563   8.359   8.879   1.289 -0.2375  0.4667 -1.7465
27995SOL    HW284564   8.309   8.737   1.308 -1.1123  0.9644 -0.1622
27996SOL     OW84565   3.765   4.577   4.435  0.4804  0.3906  0.4040
27996SOL    HW184566   3.847   4.565   4.387  1.2486  0.9769  1.5220
27996SOL    HW284567   3.791   4.622   4.516 -0.6871 -0.9551  1.5843
27997SOL     OW84568   8.291   3.054   8.688  0.3219 -0.2179 -0.6600
27997SOL    HW184569   8.267   3.118   8.754  0.1268 -1.5164  0.5787
27997SOL    HW284570   8.290   3.103   8.605  1.2482  1.6086  0.3495
27998SOL     OW84571   6.513   1.616   2.766 -0.1842  0.2662  0.0824
27998SOL    HW184572   6.475   1.660   2.690  0.1813 -1.2745 -1.0370
27998SOL    HW284573   6.530   1.527   2.737 -2.8517 -1.3444  2.8617
27999SOL     OW84574   3.915   3.072   0.233  0.2260  0.0986  0.6224
27999SOL    HW184575   3.980   3.138   0.255  0.3099  0.2814 -0.1500
27999SOL    HW284576   3.871   3.053   0.316 -0.8534  2.2313  0.5842
28000SOL     OW84577   2.059   8.180   4.249  0.1989 -0.5119  0.2613
28000SOL    HW184578   2.002   8.186   4.173 -0.3238 -1.2850  0.5773
28000SOL    HW284579   2.010   8.127   4.312  1.3146 -1.3272  0.4851
28001SOL     OW84580   2.475   3.132   8.384  0.0277  0.3243  0.1499
28001SOL    HW184581   2.538   3.196   8.418 -2.3684  2.8885  0.1178
28001SOL    HW284582   2.443   3.086   8.462  0.6442  0.2055  0.3442
28002SOL     OW84583   6.390   4.210   8.449  0.0164  0.2002  0.0121
28002SOL    HW184584   6.403   4.266   8.373 -2.6631  1.8703  0.6352
28002SOL    HW284585   6.295   4.195   8.452  0.3321 -2.1242  1.4718
28003SOL     OW84586   7.439   3.580   6.154  0.2107 -0.0205  0.3955
28003SOL    HW184587   7.370   3.596   6.218  0.9070  0.8770  0.9506
28003SOL    HW284588   7.474   3.667   6.134  0.9264 -0.4234 -0.1654
28004SOL     OW84589   2.400   3.607   2.455  0.3819  0.0701  0.3478
28004SOL    HW184590   2.433   3.697   2.449 -0.7246  0.5930  1.5819
28004SOL    HW284591   2.307   3.617   2.475 -0.5553 -1.3379 -2.6457
28005SOL     OW84592   2.442   6.574   6.707  0.4048  0.4875  0.4591
28005SOL    HW184593   2.367   6.543   6.759  0.2584  0.0911  0.0214
28005SOL    HW284594   2.437   6.669   6.713 -1.2445  0.5572 -1.0603
28006SOL     OW84595   0.810   8.610   8.136  0.0148 -0.0661  0.6482
28006SOL    HW184596   0.814   8.515   8.129  0.9919 -0.1626  1.9543
28006SOL    HW284597   0.721   8.628   8.168 -0.6979 -0.3880 -1.0597
28007SOL     OW84598   4.231   7.218   4.286  0.4613  0.5780  0.1065
28007SOL    HW184599   4.163   7.213   4.219  0.8465  1.3489 -0.3546
28007SOL    HW284600   4.252   7.311   4.293  2.4756  0.2531 -0.8114
28008SOL     OW84601   3.641   0.709   6.834  0.2277  0.5429  0.6230
28008SOL    HW184602   3.579   0.653   6.882  0.6175  0.4688  1.0554
28008SOL    HW284603   3.727   0.682   6.867  0.5788 -0.1911 -0.8440
28009SOL     OW84604   2.902   5.241   3.052  0.0697 -0.4425 -0.1994
28009SOL    HW184605   2.891   5.198   2.967  0.6609  0.1980 -0.6139
28009SOL    HW284606   2.909   5.169   3.115 -4.0584 -0.9967 -0.1150
28010SOL     OW84607   8.733   2.333   2.488 -0.3344  0.1534  0.0965
28010SOL    HW184608   8.781   2.279   2.551 -2.6310 -1.0692  0.9111
28010SOL    HW284609   8.695   2.271   2.427 -0.0160  1.1726 -1.1936
28011SOL     OW84610   4.920   9.433   4.455  0.1936  0.5274  0.1246
28011SOL    HW184611   4.998   9.484   4.477  1.2242 -0.1798 -1.6225
28011SOL    HW284612   4.912   9.442   4.360 -1.0340 -0.5823  0.0938
28012SOL     OW84613   5.277   7.621   5.440 -0.6550  0.1729 -0.6074
28012SOL    HW184614   5.252   7.691   5.379 -0.8005  0.4418 -0.2434
28012SOL    HW284615   5.351   7.657   5.489 -1.5518  0.5798  0.4852
28013SOL     OW84616   0.278   6.414   6.521  0.1783 -1.0209  0.2596
28013SOL    HW184617   0.200   6.470   6.518  1.2711  0.4893 -0.9783
28013SOL    HW284618   0.243   6.325   6.516 -1.5588 -0.4766  1.5122
28014SOL     OW84619   3.480   4.619   5.334 -0.0032 -0.1433  0.3726
28014SOL    HW184620   3.467   4.547   5.396  0.5014 -0.2246  0.3880
28014SOL    HW284621   3.541   4.678   5.378 -0.8437  0.5811  0.5893
28015SOL     OW84622   8.224   9.702   2.237  0.0928 -0.5688  0.4261
28015SOL    HW184623   8.275   9.782   2.253 -0.5630  0.2453 -1.3094
28015SOL    HW284624   8.276   9.652   2.174 -0.5081 -0.4717 -0.1572
28016SOL     OW84625   0.351   4.532   8.396  0.2130  0.0086  0.4363
28016SOL    HW184626   0.443   4.543   8.371  0.3738  0.2985  1.1236
28016SOL    HW284627   0.322   4.454   8.349  1.0715 -0.6149  0.9193
28017SOL     OW84628   7.881   5.475   4.872  0.1644  0.5475  0.0566
28017SOL    HW184629   7.847   5.554   4.830 -0.6467  0.0917 -0.1677
28017SOL    HW284630   7.938   5.435   4.806  0.3899  0.8153  0.0860
28018SOL     OW84631   7.836   7.577   0.344  0.1810  0.8593  0.0006
28018SOL    HW184632   7.848   7.485   0.319 -0.2752  1.2438 -1.7376
28018SOL    HW284633   7.811   7.621   0.263  2.7929  3.0078  0.2262
28019SOL     OW84634   9.241   6.496   1.345 -0.3019 -0.2036  0.4560
28019SOL    HW184635   9.299   6.485   1.270 -0.4810  0.3131  0.2399
28019SOL    HW284636   9.162   6.448   1.321 -0.2991 -0.1704  0.3794
28020SOL     OW84637   3.678   8.992   7.837  1.2921  0.5953 -0.4087
28020SOL    HW184638   3.677   8.936   7.759 -0.2109 -0.6136  0.4319
28020SOL    HW284639   3.721   8.939   7.904 -1.8949 -0.4835  0.9598
28021SOL     OW84640   9.811   7.598   2.498  0.0540 -0.0355 -0.1062
28021SOL    HW184641   9.881   7.605   2.564  0.7053  0.4903 -0.8395
28021SOL    HW284642   9.846   7.644   2.422 -1.0039  0.0213 -0.5648
28022SOL     OW84643   3.679   7.509   7.942 -0.2401  0.0188  0.2294
28022SOL    HW184644   3.740   7.536   8.011  1.2417 -0.3604 -0.8842
28022SOL    HW284645   3.732   7.506   7.863 -2.3271  2.5815 -1.4273
28023SOL     OW84646   3.286   0.955   6.262  0.3338 -0.0728  0.4358
28023SOL    HW184647   3.320   0.876   6.305  0.2891  0.1811  0.9476
28023SOL    HW284648   3.192   0.940   6.254  0.0564  0.6251  2.0715
28024SOL     OW84649   3.553   8.204   4.554 -0.0022 -0.4875 -0.1044
28024SOL    HW184650   3.499   8.130   4.527  2.0780 -1.9457 -0.5391
28024SOL    HW284651   3.604   8.226   4.476  1.7718 -0.7841  0.9313
28025SOL     OW84652   8.360   2.750   2.489  0.0846 -0.0989  0.0196
28025SOL    HW184653   8.329   2.744   2.399 -0.1452  0.8258  0.0345
28025SOL    HW284654   8.364   2.659   2.519 -2.8628 -0.2890  0.1202
28026SOL     OW84655   7.934   5.250   3.292 -0.7032 -0.0858 -0.2379
28026SOL    HW184656   7.927   5.320   3.357  1.5468 -0.0448  0.0219
28026SOL    HW284657   8.016   5.267   3.246 -0.7105 -1.8696 -1.0093
28027SOL     OW84658   6.178   5.964   7.747 -0.8193 -0.0568 -0.6827
28027SOL    HW184659   6.098   6.012   7.767 -3.1758 -3.4294 -1.1339
28027SOL    HW284660   6.160   5.922   7.662  0.9653 -1.7930 -0.2781
28028SOL     OW84661   5.419   0.595   6.919  0.4672 -0.6092  0.0700
28028SOL    HW184662   5.513   0.575   6.917  0.8791  1.1379 -1.1778
28028SOL    HW284663   5.380   0.534   6.858  1.1809  0.1476 -1.1899
28029SOL     OW84664   6.550   1.324   7.254 -0.4466 -0.0105 -0.2138
28029SOL    HW184665   6.463   1.288   7.273 -0.2238 -0.9132 -0.8443
28029SOL    HW284666   6.591   1.334   7.341 -1.0590  0.1346  0.0642
28030SOL     OW84667   9.152   6.432   1.903  0.4702 -0.6470  0.0498
28030SOL    HW184668   9.208   6.419   1.979  0.3038  1.8284  0.6781
28030SOL    HW284669   9.090   6.500   1.929 -0.4423 -0.6526 -1.8701
28031SOL     OW84670   9.367   6.372   8.793  0.7781 -0.3784  0.0556
28031SOL    HW184671   9.300   6.322   8.745  0.8367 -0.4257  0.0234
28031SOL    HW284672   9.338   6.463   8.785  0.9767 -0.3515 -0.3734
28032SOL     OW84673   7.702   4.143   3.255  0.1577 -0.0636  0.3603
28032SOL    HW184674   7.613   4.121   3.228  0.3679  1.4696 -1.8397
28032SOL    HW284675   7.755   4.131   3.176  1.0960  3.2824  0.3301
28033SOL     OW84676   8.736   9.312   1.230 -0.9761 -0.2180 -0.5232
28033SOL    HW184677   8.804   9.264   1.184 -2.3961  0.2674 -3.3843
28033SOL    HW284678   8.767   9.403   1.232 -0.8187 -0.2761 -0.3255
28034SOL     OW84679   4.428   9.517   0.038 -0.3101  0.2762  0.6392
28034SOL    HW184680   4.422   9.452  -0.032 -0.2920  2.0115 -1.0937
28034SOL    HW284681   4.463   9.470   0.113  2.8266 -1.0530 -1.4572
28035SOL     OW84682   9.064   2.747   5.377  0.1051 -0.0950  0.2888
28035SOL    HW184683   9.143   2.766   5.427  1.5215  0.0159 -1.9119
28035SOL    HW284684   9.017   2.831   5.374 -0.0107 -0.1032  1.3769
28036SOL     OW84685   6.667   9.764   6.892  0.7652 -0.1614  0.1688
28036SOL    HW184686   6.581   9.728   6.872  1.1506 -0.5408 -0.8849
28036SOL    HW284687   6.655   9.810   6.975  0.3067 -2.9438  1.7781
28037SOL     OW84688   3.770   9.754   7.419  0.0035 -0.2192 -0.6859
28037SOL    HW184689   3.835   9.727   7.484 -0.8412  1.3566  0.9050
28037SOL    HW284690   3.699   9.691   7.429  0.2896 -0.5601 -0.7727
28038SOL     OW84691   3.334   8.846   5.008  0.8255 -0.2580 -0.1088
28038SOL    HW184692   3.340   8.793   5.088 -1.5742 -0.6162 -0.0988
28038SOL    HW284693   3.325   8.781   4.937 -1.0444  0.0668 -0.2085
28039SOL     OW84694   6.322   7.365   6.358  0.2592 -0.4461  0.1593
28039SOL    HW184695   6.325   7.272   6.335 -1.1159 -0.3807 -0.3325
28039SOL    HW284696   6.303   7.365   6.452 -0.3414 -0.6622  0.0408
28040SOL     OW84697   1.490   9.772   8.054  0.3509 -0.4373  0.5847
28040SOL    HW184698   1.539   9.831   7.997 -1.1131  1.5722  1.2571
28040SOL    HW284699   1.529   9.786   8.141  0.0166 -0.4783  0.7419
28041SOL     OW84700   9.304   4.116   2.314 -0.0653 -0.2177  0.3067
28041SOL    HW184701   9.286   4.124   2.220 -0.6012  0.3404  0.4508
28041SOL    HW284702   9.224   4.078   2.350 -0.8010  1.7633  0.8730
28042SOL     OW84703   8.441   1.310   0.398 -0.0895 -0.0720  0.1152
28042SOL    HW184704   8.460   1.262   0.317  1.3531 -1.3749  1.1596
28042SOL    HW284705   8.351   1.287   0.419  0.0625 -1.0616 -0.2561
28043SOL     OW84706   1.706   5.233   2.603  0.2869 -0.1746 -0.0760
28043SOL    HW184707   1.768   5.218   2.674 -1.0240 -0.4605  1.0471
28043SOL    HW284708   1.693   5.147   2.564  0.9954 -0.0202 -0.6729
28044SOL     OW84709   6.183   4.034   3.555  0.5480 -0.0103 -0.2686
28044SOL    HW184710   6.210   3.958   3.503 -0.5707 -0.1371 -0.6779
28044SOL    HW284711   6.095   4.054   3.525  0.4632  0.8655  0.5192
28045SOL     OW84712   2.018   9.305   5.385  0.2076  0.2840 -0.0002
28045SOL    HW184713   1.931   9.267   5.394  0.4086 -0.3837 -0.8318
28045SOL    HW284714   2.010   9.370   5.315  0.5345 -0.2807 -0.5704
28046SOL     OW84715   0.147   5.839   6.010 -0.0587 -0.6911  0.2431
28046SOL    HW184716   0.180   5.857   6.098  1.3652 -1.3750 -0.1255
28046SOL    HW284717   0.087   5.766   6.021  0.7919 -1.3558  0.5389
28047SOL     OW84718   2.885   1.883   6.234  0.0369  0.4718  0.3880
28047SOL    HW184719   2.867   1.974   6.255  0.6231  0.2883  1.7723
28047SOL    HW284720   2.943   1.853   6.304 -1.3113 -1.3838  0.7792
28048SOL     OW84721   8.184   1.078   6.046  0.0637 -0.3463 -0.4323
28048SOL    HW184722   8.148   1.167   6.039 -1.0159 -0.6071  1.2403
28048SOL    HW284723   8.118   1.022   6.005 -0.5156 -0.6188  0.8339
28049SOL     OW84724   1.436   0.155   4.345 -0.0143  0.0236  0.4564
28049SOL    HW184725   1.394   0.077   4.309  0.6742  0.2930 -1.0028
28049SOL    HW284726   1.517   0.123   4.384 -0.4088 -0.1738  1.1174
28050SOL     OW84727   2.873   6.796   1.617  0.4929 -0.1549  0.5472
28050SOL    HW184728   2.901   6.801   1.526 -1.5822  0.9894 -0.0956
28050SOL    HW284729   2.831   6.880   1.634  0.2589 -0.6010  2.3585
28051SOL     OW84730   1.123   7.939   9.549  0.8561  0.1389  0.1913
28051SOL    HW184731   1.035   7.902   9.537  1.6713 -1.4890 -1.2453
28051SOL    HW284732   1.125   8.016   9.493 -0.1264  1.1116  1.4395
28052SOL     OW84733   5.130   7.965   2.698 -0.2334  0.3166  0.4178
28052SOL    HW184734   5.093   7.987   2.613 -0.2658 -3.0972 -0.6254
28052SOL    HW284735   5.067   7.904   2.736  1.3013 -0.7384  1.3973
28053SOL     OW84736   5.154   5.192   8.830  0.3408 -0.1296  0.3953
28053SOL    HW184737   5.087   5.129   8.857 -0.8309  0.6723 -0.5244
28053SOL    HW284738   5.177   5.165   8.741  1.2788 -0.4196  0.7207
28054SOL     OW84739   5.483   2.124   5.511  0.3635 -0.2796 -0.1779
28054SOL    HW184740   5.405   2.173   5.488  1.3491  1.8190  0.6622
28054SOL    HW284741   5.455   2.064   5.580 -0.7396 -0.4907 -0.7903
28055SOL     OW84742   0.894   9.533   9.613  0.4282 -0.8643  0.2371
28055SOL    HW184743   0.822   9.591   9.638  0.1450 -0.7144 -0.8577
28055SOL    HW284744   0.862   9.445   9.634  0.5588 -0.6931  1.2038
28056SOL     OW84745   9.706   4.579   9.288  0.1006 -0.0946 -0.3436
28056SOL    HW184746   9.662   4.660   9.314  0.9879  0.7460 -1.3753
28056SOL    HW284747   9.782   4.608   9.237  0.8031 -1.5614 -0.1824
28057SOL     OW84748   1.323   0.149   6.841 -0.5720  0.2021  0.1132
28057SOL    HW184749   1.245   0.191   6.879  0.4443  0.8840  1.5427
28057SOL    HW284750   1.389   0.218   6.839  1.0678 -1.1825  2.2389
28058SOL     OW84751   0.442   8.311   5.076  0.8628  0.5225  0.3816
28058SOL    HW184752   0.496   8.251   5.024 -0.2586 -0.9610  0.8343
28058SOL    HW284753   0.443   8.393   5.028  0.5481 -0.5506 -1.5728
28059SOL     OW84754   9.285   3.408   1.513  0.2166  0.0866  0.4219
28059SOL    HW184755   9.240   3.449   1.587 -0.7827  2.9264 -1.5658
28059SOL    HW284756   9.372   3.448   1.512 -0.0789  0.7409 -0.4016
28060SOL     OW84757   9.621   7.762   4.189  0.4039 -0.8618  0.6378
28060SOL    HW184758   9.535   7.749   4.150  0.6661  0.9963 -0.7209
28060SOL    HW284759   9.617   7.850   4.227  0.9134 -1.7416  2.8587
28061SOL     OW84760   3.279   1.305   9.942 -0.3528 -0.1434  0.2541
28061SOL    HW184761   3.267   1.269   9.854  1.2150  0.5221 -0.2593
28061SOL    HW284762   3.207   1.368   9.952  0.2645  0.8515 -1.1618
28062SOL     OW84763   6.633   0.895   8.127  0.1043 -0.3604 -0.1853
28062SOL    HW184764   6.622   0.942   8.210 -0.2724 -1.4086  0.3701
28062SOL    HW284765   6.727   0.874   8.123  0.1867  0.0033 -0.2035
28063SOL     OW84766   2.160   5.039   3.306  0.1820 -0.0954 -0.5518
28063SOL    HW184767   2.250   5.071   3.298  0.3646 -0.8019 -1.4213
28063SOL    HW284768   2.136   5.057   3.397  2.2538 -2.5780  0.5932
28064SOL     OW84769   5.764   4.694   6.007  0.2585 -0.0150 -0.3528
28064SOL    HW184770   5.797   4.662   5.923  0.0944 -0.7868 -0.1287
28064SOL    HW284771   5.841   4.733   6.049  0.2121  0.9015 -1.0977
28065SOL     OW84772   6.609   2.800   1.450  0.2955 -0.7763 -0.0073
28065SOL    HW184773   6.705   2.802   1.443  0.2353  0.3254 -0.7326
28065SOL    HW284774   6.588   2.707   1.463  1.3730 -1.1999 -1.1057
28066SOL     OW84775   2.062   8.668   0.352 -0.2472 -0.3368  0.1262
28066SOL    HW184776   2.006   8.708   0.286 -2.2201 -0.7515  1.4710
28066SOL    HW284777   2.013   8.675   0.433 -0.0024 -3.8785  0.7704
28067SOL     OW84778   8.718   8.841   8.022 -0.0561  0.3223  0.5898
28067SOL    HW184779   8.638   8.788   8.020 -0.4241  0.8954 -0.0130
28067SOL    HW284780   8.726   8.867   8.113 -1.2378  1.2646  0.4573
28068SOL     OW84781   6.975   4.117   7.649 -0.0610  0.2979 -0.2954
28068SOL    HW184782   6.931   4.033   7.640  1.5269 -0.5726 -0.2399
28068SOL    HW284783   6.983   4.149   7.559 -0.3961  0.2584 -0.3427
28069SOL     OW84784   9.257   6.379   2.912  0.3441  0.5864 -0.1032
28069SOL    HW184785   9.197   6.453   2.922 -0.3297 -0.1076  1.0328
28069SOL    HW284786   9.202   6.307   2.882  1.1522  0.7426 -2.1569
28070SOL     OW84787   9.857   7.903   5.967  0.3725  0.1614 -0.5417
28070SOL    HW184788   9.942   7.885   5.928  0.9497  1.2868  0.1746
28070SOL    HW284789   9.826   7.817   5.997  0.9690 -0.3449 -1.3287
28071SOL     OW84790   8.677   5.796   8.443  0.4288  0.2104 -0.1775
28071SOL    HW184791   8.618   5.870   8.461  0.4691 -0.2545  2.2063
28071SOL    HW284792   8.757   5.837   8.409 -0.9331  0.8973 -2.8592
28072SOL     OW84793   8.928   8.556   5.729 -0.1053 -0.0269  0.8044
28072SOL    HW184794   8.907   8.523   5.641  0.6730  1.2503  0.1119
28072SOL    HW284795   8.894   8.488   5.788 -1.4666 -0.4909 -0.4343
28073SOL     OW84796   7.463   8.705   0.343  0.3713 -0.1238 -0.2454
28073SOL    HW184797   7.369   8.708   0.363  0.2551 -1.1516 -0.5820
28073SOL    HW284798   7.506   8.718   0.428 -0.0850 -0.5622  0.0572
28074SOL     OW84799   5.420   0.777   5.298  0.4893 -0.2532  0.1157
28074SOL    HW184800   5.442   0.707   5.236 -1.0391 -0.7656  0.1095
28074SOL    HW284801   5.463   0.855   5.263 -0.0379 -0.6151 -1.4010
28075SOL     OW84802   9.321   9.408   9.414 -0.1425  0.3842  0.7435
28075SOL    HW184803   9.267   9.395   9.491 -0.9745 -1.1913 -0.0527
28075SOL    HW284804   9.265   9.457   9.353  0.1290  0.7041  0.7497
28076SOL     OW84805   3.007   3.041   2.240 -0.1151  0.5814 -0.5699
28076SOL    HW184806   3.049   3.106   2.183  1.4855 -0.2976 -0.4402
28076SOL    HW284807   2.980   3.090   2.317  0.6909  1.1700 -0.6576
28077SOL     OW84808   0.429   7.964   3.779 -0.0665  0.6104  0.7178
28077SOL    HW184809   0.443   8.059   3.772 -0.8830  0.6139 -1.3545
28077SOL    HW284810   0.496   7.935   3.841  0.2845  2.5060  1.3020
28078SOL     OW84811   7.472   8.240   4.066  0.0098 -0.6916  0.2018
28078SOL    HW184812   7.524   8.303   4.116  0.7521  0.8455 -2.3248
28078SOL    HW284813   7.382   8.268   4.079  0.2290 -0.0303  0.3271
28079SOL     OW84814   8.893   5.664   0.042  0.0490  0.1796  0.1702
28079SOL    HW184815   8.948   5.600  -0.004 -0.1098  0.1969 -0.0476
28079SOL    HW284816   8.825   5.612   0.084 -0.0626  0.2004  0.0186
28080SOL     OW84817   8.253   3.343   1.696  0.3852  1.1199 -0.4705
28080SOL    HW184818   8.207   3.373   1.774 -1.3524  0.1750 -1.0915
28080SOL    HW284819   8.184   3.321   1.633  1.6081 -1.0428 -1.1904
28081SOL     OW84820   8.216   5.556   8.182 -0.4219  0.0978 -0.4314
28081SOL    HW184821   8.211   5.548   8.277  0.8634 -0.7266 -0.4065
28081SOL    HW284822   8.126   5.543   8.152 -1.0058  1.3102  0.7190
28082SOL     OW84823   8.185   0.826   8.971  0.1362 -0.4249 -0.3474
28082SOL    HW184824   8.229   0.882   8.907  0.0066 -1.9310 -1.8261
28082SOL    HW284825   8.095   0.819   8.939 -0.5372  0.5463  1.2365
28083SOL     OW84826   0.509   1.963   0.105  0.2062 -0.2131 -0.4815
28083SOL    HW184827   0.505   2.008   0.021 -0.7403  1.3462  0.3482
28083SOL    HW284828   0.423   1.921   0.114 -0.5824  1.5319  0.6619
28084SOL     OW84829   6.899   3.000   9.435 -0.0126 -0.2160  0.1007
28084SOL    HW184830   6.892   3.095   9.440  1.0443 -0.1965  1.9465
28084SOL    HW284831   6.823   2.973   9.383 -0.0986  1.6437 -0.8051
28085SOL     OW84832   0.093   3.798   0.948  0.9944 -0.2512  0.0244
28085SOL    HW184833   0.152   3.726   0.971 -0.2854 -1.3769 -0.1341
28085SOL    HW284834   0.098   3.857   1.023  0.0051 -1.8428  1.4126
28086SOL     OW84835   5.056   1.176   2.797  0.3313  0.1391 -0.1573
28086SOL    HW184836   5.060   1.220   2.882 -0.1647 -2.0506  1.0808
28086SOL    HW284837   5.002   1.233   2.742 -1.3326  0.4814  1.7413
28087SOL     OW84838   3.608   6.856   6.058 -0.1587 -0.1607 -0.3275
28087SOL    HW184839   3.516   6.873   6.038  0.3911  2.2638 -1.1753
28087SOL    HW284840   3.606   6.782   6.118 -2.8289  1.1856  1.4829
28088SOL     OW84841   0.267   0.496   5.520 -0.8429 -0.1672 -0.5438
28088SOL    HW184842   0.276   0.401   5.523 -0.1312 -0.1737 -1.9876
28088SOL    HW284843   0.258   0.522   5.612  1.5466 -1.3956  0.1294
28089SOL     OW84844   8.118   7.863   9.581 -0.1029 -0.0668 -0.0994
28089SOL    HW184845   8.109   7.956   9.603  0.0202  0.0400 -0.4905
28089SOL    HW284846   8.182   7.862   9.511  0.7993 -0.5572  0.7152
28090SOL     OW84847   7.325   7.549   2.332 -0.2520 -0.1021  0.4962
28090SOL    HW184848   7.262   7.478   2.344  0.6109 -1.1556 -0.8680
28090SOL    HW284849   7.332   7.559   2.237  1.4590  0.1202  0.6212
28091SOL     OW84850   0.883   9.264   9.722 -0.3441  0.0630 -0.4097
28091SOL    HW184851   0.917   9.181   9.690  1.7506  0.5791  0.2752
28091SOL    HW284852   0.893   9.259   9.817  0.6192  1.3631 -0.4017
28092SOL     OW84853   7.800   4.944   7.022  0.2031  0.5454 -0.1750
28092SOL    HW184854   7.776   5.037   7.019 -0.2225  0.4557  0.3320
28092SOL    HW284855   7.781   4.918   7.112  0.0498 -0.1103 -0.3997
28093SOL     OW84856   7.335   9.569   6.430  0.1102  0.1043 -0.0288
28093SOL    HW184857   7.292   9.546   6.348  0.2968 -1.1834  0.2102
28093SOL    HW284858   7.279   9.637   6.468 -0.1979  0.4231 -1.0126
28094SOL     OW84859   5.246   6.081   6.829  0.1815  0.5723  0.3727
28094SOL    HW184860   5.172   6.037   6.787 -0.5909  2.8431 -0.8391
28094SOL    HW284861   5.316   6.077   6.765  0.2829  0.6334  0.4796
28095SOL     OW84862   0.722   6.359   1.828 -0.2011 -0.6772 -0.7067
28095SOL    HW184863   0.670   6.313   1.894 -0.2009 -0.6172 -0.6653
28095SOL    HW284864   0.766   6.289   1.780  0.8771 -0.6794  0.2349
28096SOL     OW84865   1.430   0.721   7.374 -0.5711  0.0889  0.8856
28096SOL    HW184866   1.484   0.662   7.426  0.0518 -0.6553 -0.5496
28096SOL    HW284867   1.480   0.736   7.294 -2.7853 -1.3035 -0.8922
28097SOL     OW84868   3.527   1.497   3.946 -0.2941  0.0084 -0.9329
28097SOL    HW184869   3.459   1.561   3.924 -0.9952  0.2236  1.6082
28097SOL    HW284870   3.564   1.527   4.029  1.2691 -1.4192 -1.0574
28098SOL     OW84871   2.965   9.229   7.721  0.2297 -0.2223 -0.2155
28098SOL    HW184872   2.929   9.311   7.687 -1.6485 -1.2424 -0.8112
28098SOL    HW284873   3.026   9.199   7.654  0.3972  0.3235 -0.3119
28099SOL     OW84874   2.565   1.252   6.485 -0.1923 -0.0556  0.4527
28099SOL    HW184875   2.621   1.300   6.546 -0.5189  0.2358  0.5233
28099SOL    HW284876   2.529   1.318   6.427 -0.3169 -0.2645  0.2892
28100SOL     OW84877   4.463   5.033   9.325  0.5861 -0.2363 -0.0133
28100SOL    HW184878   4.417   4.968   9.378  1.5504  0.6233  1.9973
28100SOL    HW284879   4.421   5.029   9.240 -2.6539 -0.1004  1.4363
28101SOL     OW84880   0.109   5.130   2.723  0.2715 -0.4395  0.1359
28101SOL    HW184881   0.168   5.055   2.711 -0.0524 -0.4854 -1.3918
28101SOL    HW284882   0.168   5.203   2.744  1.0437 -0.2731 -2.3033
28102SOL     OW84883   3.618   9.358   6.768 -0.0987 -0.2612  0.0825
28102SOL    HW184884   3.533   9.399   6.783 -0.0385 -0.2474  0.4001
28102SOL    HW284885   3.659   9.410   6.699 -0.5116 -0.5078 -0.3465
28103SOL     OW84886   1.921   9.842   1.948 -0.1427 -0.3432  0.4372
28103SOL    HW184887   1.832   9.830   1.915  0.5533 -0.8705 -1.3780
28103SOL    HW284888   1.970   9.768   1.912  0.8711 -0.5521  2.1353
28104SOL     OW84889   5.467   1.446   6.668 -0.0518 -0.2844  0.1710
28104SOL    HW184890   5.470   1.351   6.656 -0.4672 -0.0789 -2.1008
28104SOL    HW284891   5.376   1.465   6.689  0.3430 -0.4829  2.3043
28105SOL     OW84892   7.097   7.735   3.405 -0.4999 -0.0571  0.2935
28105SOL    HW184893   7.080   7.643   3.424  1.2263 -0.4796  0.0095
28105SOL    HW284894   7.075   7.744   3.312 -2.6176  0.3696  0.7778
28106SOL     OW84895   6.304   4.661   7.688  0.0096 -0.3261 -0.2420
28106SOL    HW184896   6.307   4.648   7.594 -0.3368  0.3968 -0.3618
28106SOL    HW284897   6.352   4.743   7.702  0.5300 -0.7111  0.2689
28107SOL     OW84898   2.495   1.252   2.412  0.1020 -0.1133  0.4557
28107SOL    HW184899   2.460   1.251   2.501  1.1244 -0.4023  0.8625
28107SOL    HW284900   2.418   1.237   2.356 -0.4574 -0.5465  1.3209
28108SOL     OW84901   3.200   3.483   8.198 -0.0649  0.7183 -0.8459
28108SOL    HW184902   3.255   3.413   8.235  1.0349  1.6932 -0.5882
28108SOL    HW284903   3.177   3.537   8.273 -1.7640  0.1137 -0.8783
28109SOL     OW84904   9.513   3.982   6.567 -0.7528  0.3209  0.4130
28109SOL    HW184905   9.565   3.950   6.641  1.7630 -0.2543 -1.4584
28109SOL    HW284906   9.559   4.060   6.537 -1.5766  0.4122 -0.6884
28110SOL     OW84907   6.880   2.604   9.429  0.2781  0.2226 -0.2345
28110SOL    HW184908   6.811   2.658   9.468 -1.3195 -0.5513 -1.8706
28110SOL    HW284909   6.949   2.666   9.407 -0.7635  1.3450 -0.4619
28111SOL     OW84910   3.086   2.178   3.581 -0.2982 -0.2896  0.4186
28111SOL    HW184911   3.058   2.097   3.537  0.7826 -0.8069  0.6509
28111SOL    HW284912   3.033   2.247   3.540 -0.3705 -0.9548 -0.6420
28112SOL     OW84913   5.621   4.073   5.788 -0.0567  0.1954  0.5135
28112SOL    HW184914   5.544   4.053   5.735  0.0767 -0.6617  0.6206
28112SOL    HW284915   5.675   4.129   5.732  0.1456 -0.8070 -0.3226
28113SOL     OW84916   3.884   3.129   2.887  0.1210 -0.3985  0.1061
28113SOL    HW184917   3.929   3.047   2.910  0.8019 -0.0625 -0.0109
28113SOL    HW284918   3.808   3.100   2.837 -0.8090 -1.0879  1.8197
28114SOL     OW84919   8.728   4.717   8.849 -0.7044 -0.2511 -0.1985
28114SOL    HW184920   8.726   4.675   8.763 -1.2243 -2.7956  0.9545
28114SOL    HW284921   8.636   4.715   8.878 -0.4926  0.2738  0.5300
28115SOL     OW84922   5.587   0.840   2.957 -0.6139 -0.1342  0.5476
28115SOL    HW184923   5.514   0.881   2.913  0.5926 -0.0064 -1.4384
28115SOL    HW284924   5.623   0.908   3.014 -0.8994  0.3731  0.1217
28116SOL     OW84925   1.148   7.142   7.625  0.3688 -0.1764 -0.0795
28116SOL    HW184926   1.227   7.153   7.677  0.5089  1.0728 -0.5096
28116SOL    HW284927   1.178   7.104   7.543  0.6540  0.9165 -0.5051
28117SOL     OW84928   0.827   6.531   9.073  0.6524 -0.4228 -0.1125
28117SOL    HW184929   0.862   6.619   9.068 -1.1851  0.3679  0.1195
28117SOL    HW284930   0.770   6.532   9.150  1.1141 -2.0025  0.2770
28118SOL     OW84931   7.697   6.634   8.907  0.4500 -0.2154  0.3817
28118SOL    HW184932   7.620   6.643   8.964 -0.2075  0.4730 -0.5781
28118SOL    HW284933   7.744   6.558   8.942 -1.7195 -1.9186 -0.1875
28119SOL     OW84934   8.088   3.677   9.098 -0.2666  0.5536  0.4171
28119SOL    HW184935   8.049   3.713   9.177 -0.2291  2.4307 -0.3557
28119SOL    HW284936   8.013   3.653   9.043 -0.2915 -0.4870  0.8811
28120SOL     OW84937   3.746   0.767   2.486  0.0012 -0.3014  0.4430
28120SOL    HW184938   3.816   0.823   2.453  0.6093 -0.5257  1.3106
28120SOL    HW284939   3.670   0.824   2.492 -0.5059 -0.4990 -2.4256
28121SOL     OW84940   3.958   6.712   8.062  0.1786  0.0962 -0.3262
28121SOL    HW184941   3.944   6.660   7.982 -2.8469 -0.7006  0.5943
28121SOL    HW284942   3.881   6.768   8.067  1.5989  2.0537  0.7042
28122SOL     OW84943   0.103   5.977   8.433  0.3715  0.1967  0.6278
28122SOL    HW184944   0.127   6.070   8.433  0.9238  0.0977 -1.1092
28122SOL    HW284945   0.120   5.948   8.343 -2.7926 -0.8285  0.2174
28123SOL     OW84946   7.322   8.126   1.946  0.1309 -0.5488  0.5284
28123SOL    HW184947   7.257   8.062   1.916  1.5824 -1.5430 -0.7023
28123SOL    HW284948   7.351   8.093   2.031  0.9288 -1.6460 -0.1339
28124SOL     OW84949   5.349   5.020   4.374  0.4784  0.0033  0.0451
28124SOL    HW184950   5.351   5.079   4.299  0.6477 -0.4929 -0.3510
28124SOL    HW284951   5.442   5.007   4.397  0.4110  0.5628  0.6761
28125SOL     OW84952   2.734   9.631   1.600 -0.0015  0.9735 -0.4145
28125SOL    HW184953   2.797   9.624   1.528  1.2863 -0.5440  0.7838
28125SOL    HW284954   2.670   9.562   1.582  1.0818 -0.3282  0.5557
28126SOL     OW84955   9.371   7.826   9.038  0.3783  0.0659 -0.7063
28126SOL    HW184956   9.313   7.755   9.011  0.4302 -0.1690 -0.2117
28126SOL    HW284957   9.363   7.891   8.968  0.3243 -0.4194 -1.1619
28127SOL     OW84958   1.938   2.391   3.657  0.7942  0.5123 -0.0570
28127SOL    HW184959   1.989   2.401   3.577  1.4571 -1.0753  0.1516
28127SOL    HW284960   1.926   2.297   3.667 -2.3648  0.7901 -0.2021
28128SOL     OW84961   5.512   5.228   3.682  0.2071 -0.0631  0.4565
28128SOL    HW184962   5.461   5.147   3.682 -0.6853  0.4304 -1.9464
28128SOL    HW284963   5.599   5.202   3.710 -0.8968 -1.1882  3.2317
28129SOL     OW84964   4.930   2.139   5.425 -0.1913  0.3693 -0.0021
28129SOL    HW184965   4.985   2.087   5.366  0.4273 -0.3873  1.2083
28129SOL    HW284966   4.933   2.228   5.389  2.9301  0.6765  0.7313
28130SOL     OW84967   0.820   6.783   3.994  0.4749  0.1887 -0.5761
28130SOL    HW184968   0.913   6.780   4.014  0.4659 -1.6906 -0.6468
28130SOL    HW284969   0.797   6.876   4.000  2.3246  0.6798 -0.5255
28131SOL     OW84970   4.158   4.982   6.445 -0.1926  0.5140 -0.0814
28131SOL    HW184971   4.092   4.958   6.510  0.1350 -1.8364 -0.5465
28131SOL    HW284972   4.225   5.028   6.495 -0.0556 -1.0480  1.2423
28132SOL     OW84973   1.778   5.545   9.083 -0.1515  0.3545 -0.5578
28132SOL    HW184974   1.873   5.542   9.094 -0.3247  2.4385  2.8622
28132SOL    HW284975   1.752   5.453   9.076  1.9811 -0.3867  0.3660
28133SOL     OW84976   4.610   7.411   3.842 -0.0263 -0.6001 -0.2369
28133SOL    HW184977   4.579   7.451   3.923 -0.4731 -1.6357  0.1255
28133SOL    HW284978   4.706   7.408   3.851 -0.0153  0.0873 -0.1368
28134SOL     OW84979   7.494   0.429   9.950  0.0438 -0.2092 -0.3174
28134SOL    HW184980   7.499   0.386   9.864  1.1126 -1.7286  0.4701
28134SOL    HW284981   7.553   0.505   9.942 -0.1687 -0.1125 -1.0412
28135SOL     OW84982   4.218   8.087   4.121 -0.4814 -0.3662  0.5430
28135SOL    HW184983   4.291   8.148   4.135  0.4840 -1.4672  0.4202
28135SOL    HW284984   4.141   8.144   4.114  0.3158  0.8079  0.9311
28136SOL     OW84985   6.397   7.670   7.705 -0.3835 -0.0505 -0.8115
28136SOL    HW184986   6.457   7.674   7.780 -0.3246 -0.3462 -0.8433
28136SOL    HW284987   6.433   7.601   7.649 -0.8761 -0.3791 -0.7271
28137SOL     OW84988   0.748   4.850   3.907  0.5983 -0.6154 -0.1446
28137SOL    HW184989   0.789   4.926   3.950 -0.5107 -0.8066  1.3475
28137SOL    HW284990   0.676   4.888   3.856 -0.3839 -0.6770  1.1410
28138SOL     OW84991   3.951   0.584   5.606  0.4346  0.3430  0.0430
28138SOL    HW184992   3.928   0.511   5.550  1.3039  0.3503 -0.3453
28138SOL    HW284993   4.002   0.545   5.677 -0.9930  0.2778  1.0699
28139SOL     OW84994   7.984   8.412   2.364 -0.7248  0.4346  0.4194
28139SOL    HW184995   7.956   8.486   2.310  1.4840 -0.6189 -2.4271
28139SOL    HW284996   8.056   8.447   2.417 -1.1574  0.8184  0.7722
28140SOL     OW84997   3.953   2.843   3.862 -0.1656 -0.1614  0.5200
28140SOL    HW184998   3.940   2.763   3.913 -0.7141  0.4255  1.3224
28140SOL    HW284999   4.008   2.898   3.918 -0.7609  0.4902  0.4694
28141SOL     OW85000   2.483   7.849   8.026  0.2591  0.4077 -0.1588
28141SOL    HW185001   2.389   7.864   8.039  0.2106  0.2575 -0.3394
28141SOL    HW285002   2.489   7.802   7.943  0.4646  0.0483  0.0559
28142SOL     OW85003   5.174   3.526   3.295  0.1132 -0.0693  0.6666
28142SOL    HW185004   5.158   3.487   3.210 -1.6696  0.0493  0.9073
28142SOL    HW285005   5.114   3.601   3.299 -0.1139 -0.2935  2.1619
28143SOL     OW85006   8.971   0.428   6.512  0.6531  0.4105 -0.4624
28143SOL    HW185007   8.994   0.339   6.483 -0.9168 -0.2461  0.1753
28143SOL    HW285008   8.906   0.458   6.449 -0.0964  0.4019  0.2834
28144SOL     OW85009   9.687   0.833   4.327  0.1650  0.2487  0.1139
28144SOL    HW185010   9.607   0.880   4.304  0.7987  0.3959 -2.0228
28144SOL    HW285011   9.739   0.896   4.375  0.8089  1.7106 -2.3029
28145SOL     OW85012   7.508   0.368   4.274  0.6224 -0.2084 -0.3841
28145SOL    HW185013   7.467   0.370   4.188  0.4368  1.6614 -0.2854
28145SOL    HW285014   7.442   0.404   4.333  1.6316  0.8821  0.1182
28146SOL     OW85015   9.441   1.182   4.581  0.0414 -0.3366 -0.1590
28146SOL    HW185016   9.422   1.093   4.552  0.3583 -1.1905  2.0907
28146SOL    HW285017   9.529   1.177   4.618 -1.0165  0.1817  2.6517
28147SOL     OW85018   0.346   3.565   7.170 -0.0648  0.2344 -0.6038
28147SOL    HW185019   0.277   3.539   7.110  1.0742  0.8034 -2.2474
28147SOL    HW285020   0.322   3.654   7.196 -1.2595 -0.4971  0.8935
28148SOL     OW85021   4.402   5.634   0.283 -0.3547  0.6672 -0.0888
28148SOL    HW185022   4.311   5.654   0.303 -0.9158 -0.8142 -0.9957
28148SOL    HW285023   4.451   5.710   0.315 -1.9981  1.9852 -0.5759
28149SOL     OW85024   5.966   8.484   1.157 -0.6632  0.4054 -0.5134
28149SOL    HW185025   6.026   8.410   1.168  0.7660  1.3459 -1.6480
28149SOL    HW285026   5.976   8.535   1.237 -1.6640 -0.5933  0.2814
28150SOL     OW85027   2.341   1.557   2.300 -1.0040 -0.8678  0.3466
28150SOL    HW185028   2.320   1.622   2.367  1.1224 -0.3984  0.6221
28150SOL    HW285029   2.400   1.496   2.343  1.0322 -0.1386 -1.2518
28151SOL     OW85030   1.643   2.575   2.233  0.7005  0.5258 -0.3272
28151SOL    HW185031   1.588   2.506   2.269 -0.4798  0.7085 -1.6636
28151SOL    HW285032   1.668   2.628   2.308 -0.2448 -0.0713  0.4316
28152SOL     OW85033   2.900   3.063   7.432  0.1542 -0.5960 -0.4756
28152SOL    HW185034   2.881   3.098   7.345  0.1886 -2.3875 -1.2502
28152SOL    HW285035   2.816   3.033   7.465  0.4614 -1.9217 -0.8446
28153SOL     OW85036   0.330   5.010   7.323  0.3981 -0.1202 -0.9083
28153SOL    HW185037   0.242   5.018   7.360  1.1647  2.1198  0.6083
28153SOL    HW285038   0.357   4.921   7.346 -0.3518  0.1514  1.2799
28154SOL     OW85039   7.240   7.158   0.662 -0.4798  0.2153 -0.6672
28154SOL    HW185040   7.281   7.079   0.696 -0.0241  0.8256  0.2298
28154SOL    HW285041   7.196   7.197   0.737 -0.5260  0.9299 -1.0545
28155SOL     OW85042   2.667   8.223   6.679  0.4385  0.2852  0.2497
28155SOL    HW185043   2.609   8.273   6.623 -1.2599  0.6433  2.2123
28155SOL    HW285044   2.681   8.141   6.631 -5.2331 -1.7601  1.2879
28156SOL     OW85045   6.343   0.954   9.365 -0.4031  0.3547 -0.2149
28156SOL    HW185046   6.422   0.901   9.350  0.1370  1.2648 -0.6413
28156SOL    HW285047   6.289   0.938   9.287 -0.1246  0.6282 -0.4665
28157SOL     OW85048   7.539   1.805   6.166 -0.0787 -0.2131  0.1553
28157SOL    HW185049   7.534   1.898   6.188 -3.0235  0.0120 -0.9529
28157SOL    HW285050   7.630   1.781   6.183  1.1740  3.2011 -0.8650
28158SOL     OW85051   2.671   7.535   4.491 -0.3417 -0.5845 -0.3124
28158SOL    HW185052   2.579   7.554   4.475 -0.5661 -1.1266  0.3207
28158SOL    HW285053   2.672   7.446   4.527  0.4415 -0.6524 -0.4794
28159SOL     OW85054   9.414   8.863   8.391 -0.0983 -0.3573 -0.4700
28159SOL    HW185055   9.441   8.832   8.478 -0.0266  1.9741  0.4017
28159SOL    HW285056   9.319   8.870   8.397 -0.1338 -0.6087 -0.7367
28160SOL     OW85057   2.896   4.458   6.316 -0.1080 -0.3839  0.2373
28160SOL    HW185058   2.861   4.453   6.405 -1.5267 -0.2895 -0.2839
28160SOL    HW285059   2.836   4.516   6.270  1.0886  0.2474 -0.5858
28161SOL     OW85060   3.366   5.143   9.591 -0.7549 -0.6534 -0.4543
28161SOL    HW185061   3.327   5.214   9.540 -0.4765 -0.0472  0.1525
28161SOL    HW285062   3.313   5.066   9.571 -2.0548  0.0718  0.0822
28162SOL     OW85063   8.635   7.112   5.814  0.1460  0.0772  0.1183
28162SOL    HW185064   8.565   7.114   5.748  1.4984  0.2518 -1.3613
28162SOL    HW285065   8.649   7.205   5.835  0.1532  0.0639  0.1692
28163SOL     OW85066   4.100   0.739   9.887 -0.2445 -0.1930  0.2580
28163SOL    HW185067   4.004   0.738   9.888 -0.2699 -2.3413  0.0900
28163SOL    HW285068   4.125   0.722   9.978  0.0043  0.7316  0.3729
28164SOL     OW85069   3.861   6.390   0.775  0.2590 -0.0999 -0.3344
28164SOL    HW185070   3.838   6.455   0.842 -0.1538  0.0246 -0.5929
28164SOL    HW285071   3.785   6.387   0.718  0.4865 -0.4356 -0.6220
28165SOL     OW85072   8.670   6.631   0.758 -0.3285 -0.1705  0.2629
28165SOL    HW185073   8.673   6.660   0.849 -1.6305  1.1781 -0.0804
28165SOL    HW285074   8.725   6.693   0.711 -0.0756 -0.5545  0.0464
28166SOL     OW85075   7.362   4.762   9.339 -0.0894 -0.0468  0.3100
28166SOL    HW185076   7.367   4.772   9.244  0.4207 -1.2709  0.1866
28166SOL    HW285077   7.378   4.849   9.374 -1.1226  0.5852 -0.7376
28167SOL     OW85078   4.943   9.085   1.845 -0.5415 -0.3789  0.3680
28167SOL    HW185079   4.956   9.145   1.918 -1.1555  0.7503 -0.4239
28167SOL    HW285080   5.030   9.050   1.826  0.0584  1.2167  0.0562
28168SOL     OW85081   2.325   4.907   4.641 -0.6803 -0.1879  0.0016
28168SOL    HW185082   2.321   4.969   4.713 -2.0244 -1.1739  0.8330
28168SOL    HW285083   2.342   4.960   4.563  1.7063  0.8116  1.1131
28169SOL     OW85084   2.578   0.214   8.291  0.5004  0.0812 -0.3874
28169SOL    HW185085   2.653   0.259   8.329  0.1935 -1.0834  1.7499
28169SOL    HW285086   2.502   0.254   8.333 -0.0385  0.5261 -1.7410
28170SOL     OW85087   4.221   5.472   8.807 -0.8084 -0.4640  0.4606
28170SOL    HW185088   4.223   5.565   8.785  1.0415 -1.0128 -2.0458
28170SOL    HW285089   4.262   5.468   8.894 -0.1927  0.9886  0.2723
28171SOL     OW85090   4.279   1.058   6.949  0.3336 -0.0032  0.0601
28171SOL    HW185091   4.249   1.120   7.016  0.3765 -0.0773  0.1466
28171SOL    HW285092   4.370   1.083   6.933  0.7749 -0.9168  1.0817
28172SOL     OW85093   9.280   8.685   0.410 -0.2026  0.0077 -0.2703
28172SOL    HW185094   9.232   8.703   0.329  0.9969  0.7021 -0.8450
28172SOL    HW285095   9.229   8.729   0.478  0.3237  1.9547 -1.0623
28173SOL     OW85096   9.072   1.345   1.390 -0.6605  0.7325  0.3635
28173SOL    HW185097   9.114   1.344   1.305  0.5127 -0.3195  0.9227
28173SOL    HW285098   9.130   1.293   1.446 -0.2363  3.1487  2.3438
28174SOL     OW85099   5.859   7.383   5.744 -0.2129 -0.0357  0.4021
28174SOL    HW185100   5.835   7.404   5.654 -1.8253 -0.2249  0.7477
28174SOL    HW285101   5.924   7.449   5.768  2.0624 -1.3808 -1.6307
28175SOL     OW85102   2.399   2.165   5.355  0.3873  0.1570 -0.3850
28175SOL    HW185103   2.355   2.087   5.323  0.5504  0.4923 -1.4782
28175SOL    HW285104   2.371   2.235   5.296  0.7953  0.7798  0.1363
28176SOL     OW85105   0.724   5.925   7.853  0.1963 -0.2985  0.0096
28176SOL    HW185106   0.672   6.003   7.837 -1.0927 -1.5330 -2.2493
28176SOL    HW285107   0.790   5.926   7.783  1.3668 -0.3001  1.0823
28177SOL     OW85108   5.292   1.938   3.606  0.6931 -0.2400  0.6813
28177SOL    HW185109   5.200   1.957   3.590  0.2100 -0.5140  2.7379
28177SOL    HW285110   5.326   1.903   3.523 -0.3172  2.3823 -0.9296
28178SOL     OW85111   6.057   7.642   9.445  0.0704  0.0659  1.1079
28178SOL    HW185112   6.044   7.614   9.536 -2.5738 -0.8683  0.5278
28178SOL    HW285113   5.991   7.710   9.431  0.1843 -0.0657 -0.2090
28179SOL     OW85114   6.597   3.836   0.851 -0.2067  0.3298  0.0913
28179SOL    HW185115   6.608   3.878   0.766 -1.9827 -1.2458 -0.9931
28179SOL    HW285116   6.575   3.908   0.911 -0.1412  1.3078 -1.0210
28180SOL     OW85117   1.348   7.534   1.102  0.7101  0.1615 -0.6426
28180SOL    HW185118   1.297   7.453   1.108  0.5677  0.2929 -0.0341
28180SOL    HW285119   1.438   7.504   1.092  0.6855 -0.0778 -0.1909
28181SOL     OW85120   0.082   5.618   9.760  1.0429  0.1666 -0.3198
28181SOL    HW185121   0.028   5.542   9.738 -0.2228  0.7329  0.6835
28181SOL    HW285122   0.141   5.587   9.828  0.5806  0.0457  0.0326
28182SOL     OW85123   0.458   6.119   9.665  0.1182  0.2853 -0.1879
28182SOL    HW185124   0.519   6.192   9.674 -1.0398  1.1235  1.2061
28182SOL    HW285125   0.514   6.044   9.645  1.8393  0.6597  2.7083
28183SOL     OW85126   9.228   7.880   1.086 -0.0319 -0.6132  0.5380
28183SOL    HW185127   9.228   7.784   1.089  2.2472 -0.6562  0.8772
28183SOL    HW285128   9.213   7.907   1.177  1.8535 -0.7338  0.9210
28184SOL     OW85129   4.664   0.188   9.710 -0.4849 -0.3655  0.8047
28184SOL    HW185130   4.587   0.161   9.660  0.0725  1.6609 -1.2958
28184SOL    HW285131   4.730   0.122   9.690 -0.8808 -0.6716  0.4907
28185SOL     OW85132   1.099   6.737   5.480  0.4785  0.1284 -0.2694
28185SOL    HW185133   1.186   6.742   5.440  0.5406 -0.7913 -0.2872
28185SOL    HW285134   1.045   6.795   5.428  1.4474  2.0785  0.7951
28186SOL     OW85135   2.278   1.023   5.061  0.5179  0.2350  0.9000
28186SOL    HW185136   2.203   0.965   5.069 -0.1287  0.6414 -1.5874
28186SOL    HW285137   2.350   0.974   5.101 -0.3458 -1.6286  0.2843
28187SOL     OW85138   0.736   6.003   0.351  0.3396 -0.3774  0.3383
28187SOL    HW185139   0.783   5.984   0.433  1.1772 -1.7950 -0.4489
28187SOL    HW285140   0.666   6.063   0.378  2.1893  1.3265  1.6555
28188SOL     OW85141   9.474   4.760   9.356 -0.3178  0.0624  0.1245
28188SOL    HW185142   9.462   4.815   9.280 -2.0728  0.4215  0.6209
28188SOL    HW285143   9.488   4.821   9.429  1.7652 -0.2807  0.0772
28189SOL     OW85144   5.899   1.043   2.558  0.4491  0.0048  0.2517
28189SOL    HW185145   5.873   1.004   2.474 -3.1196  1.3682  0.5508
28189SOL    HW285146   5.868   0.982   2.624  3.2483 -1.0599  0.7078
28190SOL     OW85147   8.889   4.581   0.133 -0.3340  0.0890 -0.0923
28190SOL    HW185148   8.915   4.495   0.166  0.4022 -0.0805 -1.0474
28190SOL    HW285149   8.903   4.575   0.038 -0.6451  1.1345 -0.2172
28191SOL     OW85150   9.016   3.181   4.663  0.1837  0.2200  0.4062
28191SOL    HW185151   9.091   3.121   4.660 -0.1384 -0.3771 -4.8076
28191SOL    HW285152   8.943   3.126   4.694  1.0217 -0.3943  1.3342
28192SOL     OW85153   6.102   6.939   4.448 -0.0282 -0.3213  0.3025
28192SOL    HW185154   6.033   6.874   4.449  1.3925 -1.8848  0.7469
28192SOL    HW285155   6.056   7.023   4.443 -1.8909 -1.3489 -0.6683
28193SOL     OW85156   0.931   6.993   8.128  0.2261  0.2200  0.2298
28193SOL    HW185157   0.981   7.009   8.047  0.9561  2.1913  0.9897
28193SOL    HW285158   0.854   7.049   8.119 -1.1993 -1.7555 -0.3194
28194SOL     OW85159   6.848   1.844   0.994  0.1834  0.4341 -0.7994
28194SOL    HW185160   6.889   1.927   0.968 -0.6311  0.4416 -2.2089
28194SOL    HW285161   6.831   1.854   1.088  1.6151  1.1765 -0.5909
28195SOL     OW85162   1.464   0.650   9.746  0.0259  0.5163  0.0347
28195SOL    HW185163   1.486   0.560   9.770  2.2367  1.0303  0.2138
28195SOL    HW285164   1.490   0.658   9.654 -2.3888  0.3649 -0.7353
28196SOL     OW85165   0.184   2.751   0.613 -0.1260  0.2574  0.0288
28196SOL    HW185166   0.235   2.804   0.674  0.7815 -0.8683  0.2873
28196SOL    HW285167   0.105   2.728   0.662 -0.5258  1.3197 -0.0812
28197SOL     OW85168   3.652   3.583   4.975  0.3033  0.3235  0.0989
28197SOL    HW185169   3.635   3.626   5.060  2.2812  0.3885  0.5192
28197SOL    HW285170   3.695   3.651   4.923 -0.7151  0.2168 -0.9250
28198SOL     OW85171   2.650   9.928   2.625  0.1497  0.3319 -0.0736
28198SOL    HW185172   2.675   9.840   2.652  1.7451  0.4252 -1.1117
28198SOL    HW285173   2.565   9.943   2.667  1.5546 -0.2231  3.3174
28199SOL     OW85174   7.614   1.399   2.185 -0.0982 -0.0464  0.4850
28199SOL    HW185175   7.709   1.386   2.182 -0.1592 -0.4302 -2.7801
28199SOL    HW285176   7.580   1.318   2.224  0.8676  0.0015  1.4784
28200SOL     OW85177   8.398   1.314   1.489  0.0841  0.4611  0.0201
28200SOL    HW185178   8.444   1.389   1.451  1.4532 -0.3594 -0.0090
28200SOL    HW285179   8.436   1.304   1.576  0.7338 -0.8762 -0.3926
28201SOL     OW85180   8.900   4.109   8.787 -0.2537 -0.1276  0.8564
28201SOL    HW185181   8.900   4.204   8.781  0.1242 -0.1104  1.1264
28201SOL    HW285182   8.876   4.080   8.699  1.5251  0.1872  0.2315
28202SOL     OW85183   1.381   8.166   2.115  0.0174  0.0223  0.1289
28202SOL    HW185184   1.422   8.244   2.153  0.3149  0.3113 -0.7702
28202SOL    HW285185   1.361   8.111   2.191  0.7574  0.5108  0.7010
28203SOL     OW85186   5.133   1.159   1.864  0.8852 -0.0356  0.2151
28203SOL    HW185187   5.131   1.096   1.935 -0.7894 -0.9186 -0.5308
28203SOL    HW285188   5.047   1.202   1.868  0.4343 -0.6487 -1.6815
28204SOL     OW85189   9.199   4.058   8.647  0.0332  0.3933 -0.0749
28204SOL    HW185190   9.261   4.122   8.683 -0.7193  1.6695 -0.9500
28204SOL    HW285191   9.137   4.111   8.597 -2.5279 -0.6756  1.7403
28205SOL     OW85192   8.638   1.687   7.776 -0.4722 -0.6464  0.6136
28205SOL    HW185193   8.731   1.699   7.797 -0.2931  1.1778 -0.9495
28205SOL    HW285194   8.597   1.669   7.861  1.3653 -2.1143  1.2522
28206SOL     OW85195   4.679   3.701   8.248  0.3193 -0.1893  0.3018
28206SOL    HW185196   4.635   3.785   8.263  0.0473  0.5422 -3.6249
28206SOL    HW285197   4.754   3.722   8.193  0.7388 -2.4262 -0.0807
28207SOL     OW85198   1.653   4.175   5.343 -0.7503  0.0022  0.4951
28207SOL    HW185199   1.635   4.132   5.426 -0.7156  0.5420  0.7835
28207SOL    HW285200   1.678   4.104   5.284 -1.1047 -0.4228  0.8490
28208SOL     OW85201   4.883   3.366   7.480  0.0261  0.1227  0.2565
28208SOL    HW185202   4.973   3.397   7.473  0.3667 -0.6551  0.9494
28208SOL    HW285203   4.878   3.329   7.568 -1.2977  1.1397  0.6404
28209SOL     OW85204   6.778   4.328   1.122  0.3644  0.1868  0.0448
28209SOL    HW185205   6.871   4.349   1.125  0.2831  0.4243  1.0772
28209SOL    HW285206   6.749   4.360   1.037  1.0886  0.6796 -0.0208
28210SOL     OW85207   8.443   6.900   8.231 -0.3683  0.2368 -0.2172
28210SOL    HW185208   8.485   6.919   8.147  0.5971 -1.1273 -0.0769
28210SOL    HW285209   8.390   6.977   8.249 -0.6633  0.5274 -2.1094
28211SOL     OW85210   2.821   3.107   5.158 -0.0450 -0.4276 -0.0242
28211SOL    HW185211   2.881   3.181   5.170 -0.4536 -0.2406  1.0439
28211SOL    HW285212   2.877   3.030   5.167  0.6253 -0.2869 -2.5075
28212SOL     OW85213   7.802   0.379   5.563 -0.1263 -0.4718  0.5543
28212SOL    HW185214   7.771   0.412   5.479  1.1718 -1.2891 -0.3082
28212SOL    HW285215   7.895   0.401   5.564  0.3563 -2.3388  0.7840
28213SOL     OW85216   1.260   7.931   5.502  0.2291 -0.2503  0.2265
28213SOL    HW185217   1.196   7.866   5.528  0.7700 -0.2125  1.7153
28213SOL    HW285218   1.338   7.881   5.479  0.0093 -0.2307 -0.6175
28214SOL     OW85219   7.765   4.094   9.348 -0.1868  0.3550  0.0081
28214SOL    HW185220   7.675   4.127   9.349  0.5123  2.6368 -2.0220
28214SOL    HW285221   7.792   4.099   9.256  1.6465 -1.4369  0.3670
28215SOL     OW85222   1.420   0.202   9.845 -0.3830 -0.2777 -0.2481
28215SOL    HW185223   1.405   0.151   9.765 -2.0574  0.4038 -0.4258
28215SOL    HW285224   1.332   0.214   9.882  0.3476 -0.5714  1.7155
28216SOL     OW85225   5.232   1.216   6.846 -0.0928  0.3874  0.3980
28216SOL    HW185226   5.171   1.154   6.885  0.9457 -0.2106  1.1263
28216SOL    HW285227   5.229   1.292   6.903 -2.1457  1.5105 -1.0619
28217SOL     OW85228   8.003   9.943   8.566  0.3522  0.2571 -0.2159
28217SOL    HW185229   7.926   9.964   8.619 -1.2897 -1.0002 -1.9552
28217SOL    HW285230   7.995   9.849   8.549  4.0263 -0.6993  2.1088
28218SOL     OW85231   9.691   1.697   2.925  0.0787  0.6501 -0.1283
28218SOL    HW185232   9.652   1.676   2.840  1.2663 -2.8622  0.0126
28218SOL    HW285233   9.625   1.667   2.989  0.1769  1.0645  0.1701
28219SOL     OW85234   7.002   7.937   0.181  0.1633  0.0080  0.4663
28219SOL    HW185235   6.954   8.002   0.130  0.4190 -0.3351 -0.2166
28219SOL    HW285236   7.087   7.978   0.199  0.3340 -0.1481  0.0133
28220SOL     OW85237   0.812   0.129   3.728 -0.0678 -0.5438  0.7859
28220SOL    HW185238   0.768   0.108   3.811 -1.6026 -0.4702  0.0370
28220SOL    HW285239   0.860   0.209   3.746 -0.4120 -0.5099  1.6074
28221SOL     OW85240   1.772   5.260   7.412 -0.0264 -0.1397 -0.1444
28221SOL    HW185241   1.824   5.309   7.476  0.7340 -1.5955  0.4017
28221SOL    HW285242   1.836   5.230   7.348 -0.5337 -0.1425 -0.6510
28222SOL     OW85243   2.734   7.619   0.683 -0.1314  0.0828 -0.1042
28222SOL    HW185244   2.760   7.539   0.636  1.6478 -1.1448  2.6978
28222SOL    HW285245   2.640   7.624   0.671 -0.2392 -2.2162 -0.7623
28223SOL     OW85246   7.384   4.375   4.645 -0.4632  0.0116  0.1322
28223SOL    HW185247   7.307   4.413   4.604 -0.5023 -1.1044 -0.9135
28223SOL    HW285248   7.434   4.449   4.678 -0.9215  0.9009 -1.1133
28224SOL     OW85249   9.112   7.989   2.409 -0.7705 -0.8473 -0.3067
28224SOL    HW185250   9.188   7.979   2.465  0.5164 -0.0789 -1.8235
28224SOL    HW285251   9.047   8.032   2.464  0.1831 -0.7771  0.7985
28225SOL     OW85252   2.183   3.062   6.384 -0.0307  0.9511  0.0342
28225SOL    HW185253   2.125   3.004   6.435  0.5862  0.8811  0.6712
28225SOL    HW285254   2.247   3.093   6.448 -0.5240  2.5826 -0.2371
28226SOL     OW85255   2.938   6.009   1.358  0.0890 -0.4196 -0.0657
28226SOL    HW185256   2.975   5.990   1.272 -0.8843  1.9992 -1.0949
28226SOL    HW285257   2.902   6.097   1.350  0.7283  0.2552  3.0772
28227SOL     OW85258   8.460   0.064   0.901  0.5490 -0.1340  0.0197
28227SOL    HW185259   8.460   0.083   0.995  0.0596 -2.3578  0.5340
28227SOL    HW285260   8.515  -0.014   0.893  0.8634  0.2297 -1.5961
28228SOL     OW85261   1.024   8.509   0.177 -0.1655  0.5868 -1.1674
28228SOL    HW185262   0.975   8.588   0.201 -0.3212  0.5868 -1.4833
28228SOL    HW285263   1.115   8.538   0.170  0.3577  0.0739  2.0231
28229SOL     OW85264   4.305   1.063   2.578 -0.4811 -0.2306 -0.8798
28229SOL    HW185265   4.268   1.125   2.516 -0.9842  1.4347  0.9878
28229SOL    HW285266   4.238   1.053   2.646  1.1043  0.2013  0.8389
28230SOL     OW85267   9.802   6.660   1.918  0.1177  0.2676 -0.1184
28230SOL    HW185268   9.729   6.646   1.979  0.5175 -0.5392  0.1878
28230SOL    HW285269   9.782   6.743   1.876 -1.2140 -0.1375 -0.3557
28231SOL     OW85270   0.809   6.018   8.806  0.3432 -0.1144 -0.3197
28231SOL    HW185271   0.858   5.944   8.771 -0.0049 -0.3570 -0.2986
28231SOL    HW285272   0.847   6.033   8.893 -0.1662 -0.8294  0.0323
28232SOL     OW85273   9.756   1.365   1.237 -0.4090  0.1857 -0.7361
28232SOL    HW185274   9.738   1.421   1.311 -1.9857 -1.2857  0.0570
28232SOL    HW285275   9.835   1.316   1.262 -1.0892 -0.5054  0.1347
28233SOL     OW85276   0.620   9.502   7.497  0.3216  0.2413 -0.3167
28233SOL    HW185277   0.543   9.460   7.459 -0.0534 -0.9801  1.6226
28233SOL    HW285278   0.695   9.456   7.458 -0.0528 -1.0668  0.4408
28234SOL     OW85279   4.150   4.801   0.547  0.2271  0.4022 -0.0654
28234SOL    HW185280   4.156   4.869   0.480  5.4802  0.4599  0.0906
28234SOL    HW285281   4.120   4.846   0.625  2.3720  2.3579 -0.2876
28235SOL     OW85282   6.963   7.118   2.991 -0.0089 -0.0159  0.1248
28235SOL    HW185283   6.873   7.121   3.024 -0.2967 -0.2506 -0.6255
28235SOL    HW285284   7.017   7.108   3.070 -0.7539 -1.9782  0.4253
28236SOL     OW85285   8.207   9.899   7.896 -0.1944  0.7227  0.2489
28236SOL    HW185286   8.256   9.912   7.814  1.3171 -1.7678  0.6595
28236SOL    HW285287   8.220   9.980   7.945  1.8594  0.9188 -0.5400
28237SOL     OW85288   4.486   9.649   5.413 -0.1500 -0.0837 -0.1519
28237SOL    HW185289   4.406   9.702   5.420  0.4218  0.7733  0.0892
28237SOL    HW285290   4.505   9.647   5.320  0.3907  1.0305 -0.0829
28238SOL     OW85291   2.989   6.913   2.272 -0.2079  0.4831 -0.3174
28238SOL    HW185292   3.043   6.930   2.195  0.9886 -0.3918  0.3062
28238SOL    HW285293   2.930   6.842   2.244  1.1149 -0.7562 -0.0464
28239SOL     OW85294   6.609   6.778   4.236  0.4868  0.3472 -0.3742
28239SOL    HW185295   6.704   6.778   4.230  0.6133 -2.1927  0.4548
28239SOL    HW285296   6.589   6.835   4.310  1.1472  2.7178 -1.9249
28240SOL     OW85297   2.830   8.546   8.822 -0.3218 -0.0105 -0.0617
28240SOL    HW185298   2.766   8.573   8.888 -0.6310  0.1513 -0.4231
28240SOL    HW285299   2.871   8.628   8.794 -0.7081  0.0098 -0.5930
28241SOL     OW85300   4.771   9.318   3.928  0.3564 -0.1003  0.2402
28241SOL    HW185301   4.849   9.372   3.915 -0.2694  1.1101  1.3350
28241SOL    HW285302   4.716   9.336   3.852  0.1475  0.8338  0.6031
28242SOL     OW85303   3.535   1.302   5.268 -0.0534  0.0680  0.3224
28242SOL    HW185304   3.515   1.359   5.342 -1.8423  0.0355 -0.0949
28242SOL    HW285305   3.556   1.218   5.307  1.2610  0.6149  0.8741
28243SOL     OW85306   7.362   9.992   4.231  0.2673  0.1281 -0.2362
28243SOL    HW185307   7.381   9.921   4.292  0.8790  1.6871  1.4725
28243SOL    HW285308   7.448  10.017   4.196 -0.0440 -0.5410 -1.5590
28244SOL     OW85309   6.273   7.110   8.643  1.0563 -0.0972 -0.4975
28244SOL    HW185310   6.264   7.187   8.700  0.4754  0.6236 -1.5178
28244SOL    HW285311   6.350   7.129   8.590  0.9840 -0.2857 -0.6691
28245SOL     OW85312   5.335   4.123   1.295 -0.4990 -0.3235 -0.1151
28245SOL    HW185313   5.427   4.139   1.316  0.0091 -2.0235 -0.8423
28245SOL    HW285314   5.333   4.116   1.199 -0.9696 -2.2702 -0.0190
28246SOL     OW85315   2.168   5.288   7.855  0.0557 -0.1676  0.1447
28246SOL    HW185316   2.217   5.218   7.812 -1.0718 -1.9252  1.5536
28246SOL    HW285317   2.229   5.324   7.920  0.3828 -0.4066 -0.0309
28247SOL     OW85318   8.251   6.761   1.504  0.2284  0.6744 -0.0426
28247SOL    HW185319   8.203   6.788   1.426 -0.0903  2.0548  0.6119
28247SOL    HW285320   8.327   6.819   1.506  0.5183  0.2819  0.3891
28248SOL     OW85321   8.631   2.839   9.658  0.2595  0.7302  0.0989
28248SOL    HW185322   8.589   2.852   9.743  0.6969 -2.0479  0.8265
28248SOL    HW285323   8.697   2.771   9.673  2.8726  2.6142 -1.7191
28249SOL     OW85324   6.353   9.439   8.488 -0.3059  0.6457 -0.0200
28249SOL    HW185325   6.383   9.385   8.560  2.0111  1.6217 -0.1679
28249SOL    HW285326   6.329   9.522   8.529 -0.6167  0.6390 -0.1855
28250SOL     OW85327   7.650   1.130   9.946  0.4084 -0.0035  0.3840
28250SOL    HW185328   7.562   1.107   9.915  0.0787 -0.9558  1.9569
28250SOL    HW285329   7.703   1.053   9.925  1.1838  0.9902 -1.5837
28251SOL     OW85330   0.962   0.781   6.194 -0.5104 -0.3680  0.6318
28251SOL    HW185331   0.904   0.766   6.120 -1.4773 -1.6588  1.6110
28251SOL    HW285332   1.049   0.760   6.161 -0.5810  1.3372 -0.7786
28252SOL     OW85333   0.851   4.224   0.184 -0.5025  0.2894  0.1451
28252SOL    HW185334   0.905   4.303   0.183 -0.4066  0.2199 -1.5363
28252SOL    HW285335   0.803   4.229   0.267  0.3116  1.5464  0.5609
28253SOL     OW85336   3.008   1.075   4.931 -0.2126 -0.3061 -0.4922
28253SOL    HW185337   2.918   1.100   4.908 -0.1676 -0.2516 -0.6153
28253SOL    HW285338   3.025   1.121   5.013 -0.8642 -1.6212  0.4163
28254SOL     OW85339   1.402   3.076   8.099 -0.1227 -0.4931 -0.3237
28254SOL    HW185340   1.429   3.041   8.014  1.2055  0.1213 -0.1821
28254SOL    HW285341   1.463   3.038   8.162 -1.1067 -0.9579  0.3774
28255SOL     OW85342   7.145   2.196   9.650  0.1711  0.2613  0.0508
28255SOL    HW185343   7.145   2.109   9.688  0.2684 -1.5058 -3.5784
28255SOL    HW285344   7.063   2.236   9.680 -0.6342 -1.6858  0.5599
28256SOL     OW85345   3.914   4.803   8.389  0.0097  0.6476  0.5327
28256SOL    HW185346   3.949   4.730   8.339  1.2810 -0.1621  2.4734
28256SOL    HW285347   3.869   4.763   8.464 -1.7282  1.8082  0.1814
28257SOL     OW85348   4.010   0.104   4.091  0.5728 -0.3438  0.4807
28257SOL    HW185349   4.044   0.142   4.011  1.9292 -1.0806  0.6909
28257SOL    HW285350   3.931   0.154   4.110  1.4965  1.3658 -0.0595
28258SOL     OW85351   0.711   3.076   6.821 -0.2897  0.2145  0.0456
28258SOL    HW185352   0.714   2.980   6.823  0.3143  0.2004 -1.0072
28258SOL    HW285353   0.687   3.101   6.910 -1.8264 -0.9619 -0.0011
28259SOL     OW85354   0.735   9.253   5.673 -0.0625 -0.1792  0.0809
28259SOL    HW185355   0.828   9.233   5.672 -0.3755 -1.8160  0.0971
28259SOL    HW285356   0.712   9.263   5.581 -0.0345 -0.7271  0.0077
28260SOL     OW85357   5.982   9.946   5.238 -0.0738 -0.5456  0.4609
28260SOL    HW185358   5.897   9.951   5.195  0.1105 -1.5873 -0.0607
28260SOL    HW285359   6.008  10.037   5.252 -1.0393 -0.2186  0.1668
28261SOL     OW85360   3.445   6.664   2.869 -0.5736  0.1031  0.2210
28261SOL    HW185361   3.379   6.621   2.815 -1.3115 -0.6946  1.6984
28261SOL    HW285362   3.504   6.593   2.895 -0.4519  0.3987  0.7655
28262SOL     OW85363   7.530   0.776   3.948 -0.0129  0.5048 -0.0185
28262SOL    HW185364   7.543   0.865   3.915 -0.8958 -0.0760 -2.1006
28262SOL    HW285365   7.437   0.760   3.938  0.1964 -0.7935 -0.0498
28263SOL     OW85366   7.552   4.833   0.013  0.1966 -0.3558 -0.1406
28263SOL    HW185367   7.498   4.909   0.033  0.8661 -0.1532  0.9799
28263SOL    HW285368   7.490   4.764  -0.011 -0.5025  0.1118  0.3183
28264SOL     OW85369   1.159   9.854   9.555  0.6731  0.1373  0.3386
28264SOL    HW185370   1.210   9.854   9.474  0.1597  0.0898  0.0156
28264SOL    HW285371   1.109   9.936   9.552 -0.8608 -0.7897 -0.3500
28265SOL     OW85372   1.683   2.943   2.681  0.1282 -0.2994 -0.0534
28265SOL    HW185373   1.760   2.895   2.652 -0.5208 -1.3068 -0.1838
28265SOL    HW285374   1.704   3.035   2.665  1.4818 -0.5208  0.3915
28266SOL     OW85375   2.650   9.587   9.380 -0.0345  0.1133 -0.1211
28266SOL    HW185376   2.674   9.585   9.472  0.2090 -1.5561 -0.1947
28266SOL    HW285377   2.611   9.674   9.367 -0.9933  0.0244  1.7836
28267SOL     OW85378   5.451   9.321   0.226  0.8595  0.0443  0.7073
28267SOL    HW185379   5.419   9.266   0.154 -0.1730  3.2063 -1.4501
28267SOL    HW285380   5.486   9.258   0.289  0.8808 -3.0101 -2.0348
28268SOL     OW85381   9.358   9.909   8.677  0.3090  0.1840 -0.6538
28268SOL    HW185382   9.355   9.832   8.734  0.5887 -0.0218 -0.9109
28268SOL    HW285383   9.270   9.945   8.680  0.2274 -0.0334 -0.3741
28269SOL     OW85384   1.912   3.422   1.886 -0.2490 -0.2858 -0.2307
28269SOL    HW185385   1.962   3.398   1.964 -0.5483  0.5276  0.2097
28269SOL    HW285386   1.824   3.441   1.918 -0.6786 -1.0234 -0.9176
28270SOL     OW85387   2.061   3.510   5.548 -0.3870 -0.0559 -0.0819
28270SOL    HW185388   2.134   3.566   5.575 -1.5254  0.5243  2.0552
28270SOL    HW285389   2.031   3.469   5.629 -0.7948 -2.3604 -1.3052
28271SOL     OW85390   8.879   3.779   2.710  0.2859 -0.0662  0.3846
28271SOL    HW185391   8.954   3.779   2.769  1.2147  0.2069 -0.7751
28271SOL    HW285392   8.877   3.690   2.674 -0.4870 -0.3367  1.0612
28272SOL     OW85393   9.187   8.109   7.442  0.0794 -0.2754 -0.2143
28272SOL    HW185394   9.092   8.113   7.446  0.0927 -0.6121  2.0162
28272SOL    HW285395   9.207   8.058   7.364 -1.6377 -1.6053  0.1618
28273SOL     OW85396   3.451   1.834   2.996  0.5657  0.9041 -0.5089
28273SOL    HW185397   3.370   1.856   3.040  0.6218 -0.4860  0.3585
28273SOL    HW285398   3.482   1.755   3.041  1.3264  0.2120 -2.1543
28274SOL     OW85399   2.372   1.833   4.762 -0.6174 -0.3418 -0.3216
28274SOL    HW185400   2.379   1.808   4.670  0.7292 -1.5726  0.0755
28274SOL    HW285401   2.462   1.853   4.788 -1.1634  1.4798  0.3719
28275SOL     OW85402   1.371   8.145   9.603 -0.0591  0.1859  0.8131
28275SOL    HW185403   1.298   8.193   9.564 -0.1061  1.0992  1.9780
28275SOL    HW285404   1.359   8.055   9.572 -0.7871  0.6196 -0.2500
28276SOL     OW85405   7.248   0.720   0.059  0.5406  0.1998  0.4617
28276SOL    HW185406   7.219   0.629   0.066  0.6826  0.1062 -0.1108
28276SOL    HW285407   7.177   0.770   0.099  0.6623 -0.1863  1.1749
28277SOL     OW85408   8.705   8.922   8.272  0.2700  0.6776  0.0373
28277SOL    HW185409   8.793   8.961   8.275  0.2585  0.8292 -1.2298
28277SOL    HW285410   8.646   8.995   8.286  0.2866  0.9422 -1.2016
28278SOL     OW85411   5.196   5.756   6.888 -0.1274  0.6365 -0.9435
28278SOL    HW185412   5.281   5.753   6.844  0.4300  2.4759 -0.0810
28278SOL    HW285413   5.146   5.823   6.841 -0.2370  1.2179 -0.0354
28279SOL     OW85414   3.727   2.760   6.407 -0.5926 -0.0028 -0.5539
28279SOL    HW185415   3.696   2.697   6.472 -2.0742 -0.5388 -1.7299
28279SOL    HW285416   3.698   2.724   6.323 -0.7423  1.8139 -1.3193
28280SOL     OW85417   7.745   6.067   3.600  0.6503 -0.6478 -0.1719
28280SOL    HW185418   7.656   6.093   3.578  0.2613  0.8142  2.5821
28280SOL    HW285419   7.735   5.985   3.647  0.1847  1.0689  3.0732
28281SOL     OW85420   7.926   2.684   8.496  0.2414 -0.0558 -0.0347
28281SOL    HW185421   7.848   2.633   8.519  0.6258 -0.2407  0.9161
28281SOL    HW285422   7.987   2.667   8.568  0.4290  1.6681  0.2416
28282SOL     OW85423   2.076   2.884   0.998  0.1797  0.1279  1.0539
28282SOL    HW185424   2.040   2.836   0.924 -0.3808  1.0334  0.7188
28282SOL    HW285425   2.026   2.966   1.000  0.4725  0.2961  2.1763
28283SOL     OW85426   7.155   1.816   4.734  0.0744  0.0195 -0.6331
28283SOL    HW185427   7.146   1.731   4.691 -0.7440 -0.2116 -0.0176
28283SOL    HW285428   7.243   1.814   4.772 -0.3987 -1.0604  0.4514
28284SOL     OW85429   1.241   7.932   6.295  0.1974 -0.0854 -0.0248
28284SOL    HW185430   1.181   7.868   6.335 -0.6625  0.1696 -0.8735
28284SOL    HW285431   1.185   8.006   6.273  0.5094 -0.4157 -2.1612
28285SOL     OW85432   0.993   4.290   1.543 -0.6489  0.2358 -0.0753
28285SOL    HW185433   1.084   4.318   1.541 -0.0294 -0.5618  4.8431
28285SOL    HW285434   0.995   4.200   1.511  0.8920 -0.6762  2.3105
28286SOL     OW85435   6.087   5.087   1.590 -0.3340 -0.1592 -0.4854
28286SOL    HW185436   6.031   5.159   1.619 -0.4232 -0.4137 -0.0127
28286SOL    HW285437   6.126   5.119   1.509 -1.5691 -0.1811 -1.1149
28287SOL     OW85438   5.969   5.253   4.882 -0.2791  0.7013  0.5792
28287SOL    HW185439   5.913   5.268   4.958 -0.6012  1.7535  0.1538
28287SOL    HW285440   6.042   5.314   4.893 -0.1902  0.6698  0.1822
28288SOL     OW85441   9.587   0.824   1.732 -0.3663 -0.5087 -0.2636
28288SOL    HW185442   9.584   0.919   1.736  0.5943 -0.4923  2.7961
28288SOL    HW285443   9.580   0.803   1.639  1.2349  2.6245 -1.2099
28289SOL     OW85444   7.124   8.580   9.337  0.0779 -0.0925  0.2119
28289SOL    HW185445   7.142   8.568   9.430 -0.0701  1.2879  0.4481
28289SOL    HW285446   7.143   8.673   9.321  2.1339 -0.7431 -1.6114
28290SOL     OW85447   0.531   0.041   7.673  0.7164  0.1167 -0.5161
28290SOL    HW185448   0.521  -0.044   7.629  1.1397 -0.2002 -0.0184
28290SOL    HW285449   0.622   0.042   7.703  1.3394  1.6285 -2.3033
28291SOL     OW85450   4.390   5.160   6.375  0.3526 -0.3479 -0.2721
28291SOL    HW185451   4.443   5.148   6.454 -0.9088 -2.2938  0.3672
28291SOL    HW285452   4.405   5.250   6.349  1.7122  0.0005  1.5264
28292SOL     OW85453   1.376   1.867   9.802  0.5517 -0.1647 -0.4939
28292SOL    HW185454   1.452   1.912   9.767  0.1761  0.6576 -0.2629
28292SOL    HW285455   1.348   1.809   9.731  2.7970 -2.2996  0.2216
28293SOL     OW85456   6.749   3.156   7.175 -0.0160  0.7362 -0.0862
28293SOL    HW185457   6.804   3.234   7.165  0.4159  0.5616  0.8091
28293SOL    HW285458   6.799   3.086   7.132  1.1927  0.2695  1.9611
28294SOL     OW85459   6.087   2.306   9.670  0.9322 -0.4273 -0.1611
28294SOL    HW185460   6.090   2.210   9.679  2.3586 -0.4104 -0.1633
28294SOL    HW285461   6.032   2.335   9.742  2.7604 -1.0890  1.6066
28295SOL     OW85462   6.282   6.243   8.781  0.1200 -0.1990  0.3011
28295SOL    HW185463   6.328   6.186   8.842 -0.6162  0.0405  1.0910
28295SOL    HW285464   6.351   6.276   8.723  0.9093  0.0014  1.3340
28296SOL     OW85465   8.033   3.969   9.737  0.2783  0.2654  0.1814
28296SOL    HW185466   7.961   3.964   9.675  0.9113  0.5707 -0.6058
28296SOL    HW285467   8.027   4.057   9.774 -1.7778 -0.7954  2.7089
28297SOL     OW85468   4.245   1.408   6.885 -0.0212 -0.6590 -0.0728
28297SOL    HW185469   4.239   1.485   6.829 -1.0370  0.9240  2.0713
28297SOL    HW285470   4.198   1.340   6.838 -3.7089  1.4933  0.1479
28298SOL     OW85471   0.579   1.132   1.725 -0.3606 -0.3703  0.4209
28298SOL    HW185472   0.491   1.150   1.693  0.0027 -0.7276 -0.8123
28298SOL    HW285473   0.575   1.153   1.818 -1.4685  0.6111  0.1736
28299SOL     OW85474   0.964   2.634   9.555  0.6077  0.2619  0.8803
28299SOL    HW185475   0.910   2.612   9.630  0.9627  1.7321  1.6028
28299SOL    HW285476   1.016   2.555   9.539  1.5266  0.3304  3.0817
28300SOL     OW85477   2.006   5.299   9.104 -0.9991  0.5395 -0.3884
28300SOL    HW185478   1.999   5.269   9.195  0.6997  2.3860  0.4152
28300SOL    HW285479   1.944   5.243   9.056 -1.9706 -0.4692  1.8758
28301SOL     OW85480   9.551   1.950   0.960  0.4270  0.0295  0.0534
28301SOL    HW185481   9.493   1.879   0.984  0.3700  0.2939  0.7264
28301SOL    HW285482   9.493   2.019   0.926  0.1955  0.7400  1.7845
28302SOL     OW85483   4.088   1.878   9.317  0.0962 -0.0889 -0.2515
28302SOL    HW185484   4.041   1.871   9.233 -0.2619 -2.3168  0.0760
28302SOL    HW285485   4.019   1.891   9.382  0.4161  2.3374 -0.2824
28303SOL     OW85486   6.422   8.838   3.882  0.2390  0.4684  0.2675
28303SOL    HW185487   6.331   8.840   3.912  0.6911  1.6295  1.6393
28303SOL    HW285488   6.422   8.772   3.812 -1.1497 -1.3160  1.8321
28304SOL     OW85489   9.819   1.144   3.732  0.7332  0.5894 -0.0813
28304SOL    HW185490   9.827   1.204   3.659  1.7363  0.4883 -0.0778
28304SOL    HW285491   9.817   1.200   3.810 -1.6090  0.7711 -0.2042
28305SOL     OW85492   5.331   3.589   0.659 -0.4497 -0.0848  0.1420
28305SOL    HW185493   5.290   3.659   0.711  0.3579  1.3534 -1.0719
28305SOL    HW285494   5.259   3.552   0.608 -0.8251  0.0947  0.5310
28306SOL     OW85495   5.342   1.145   8.328  0.0330 -0.0638  0.0313
28306SOL    HW185496   5.342   1.082   8.400  1.5992  0.3768  0.4466
28306SOL    HW285497   5.378   1.096   8.253  0.3607  0.0579  0.1066
28307SOL     OW85498   8.837   3.980   7.069  0.3120 -0.2217 -0.2173
28307SOL    HW185499   8.875   3.972   7.156  2.5047 -1.2620 -1.2051
28307SOL    HW285500   8.877   3.910   7.018 -0.0445  1.0477 -2.3823
28308SOL     OW85501   4.259   4.143   3.277  0.5147 -0.9489  0.0305
28308SOL    HW185502   4.178   4.180   3.313  0.7651  0.9094 -1.1750
28308SOL    HW285503   4.305   4.108   3.353 -0.5824 -0.3792  0.9970
28309SOL     OW85504   9.491   5.840   7.892  0.4915 -0.5421 -0.0260
28309SOL    HW185505   9.559   5.846   7.959 -0.2443 -2.2133  0.9264
28309SOL    HW285506   9.539   5.831   7.809  1.3993  0.4821  0.3691
28310SOL     OW85507   3.166   0.678   0.311  0.3692  0.7710 -0.3284
28310SOL    HW185508   3.104   0.710   0.378  2.2552  0.6240  1.6051
28310SOL    HW285509   3.160   0.742   0.240 -1.1237  1.3975  0.3262
28311SOL     OW85510   7.369   0.225   7.419 -0.4210  0.3516  0.3005
28311SOL    HW185511   7.363   0.145   7.367  1.2475  0.9049 -0.8289
28311SOL    HW285512   7.318   0.207   7.497 -1.4752 -1.1896 -0.7036
28312SOL     OW85513   3.036   3.174   8.362  0.8467  0.0023 -0.8048
28312SOL    HW185514   3.046   3.089   8.320  0.6295  0.2108 -1.2824
28312SOL    HW285515   3.082   3.165   8.446 -0.4117 -1.0497 -0.1954
28313SOL     OW85516   1.278   5.665   2.434  0.2533 -0.1411 -0.1190
28313SOL    HW185517   1.256   5.622   2.517  0.7191 -1.1255 -0.4921
28313SOL    HW285518   1.260   5.598   2.367  0.7175  0.3474 -0.7434
28314SOL     OW85519   2.514   5.332   9.565  0.3906 -0.5536 -0.2280
28314SOL    HW185520   2.463   5.317   9.645  0.2600 -0.0325 -0.2121
28314SOL    HW285521   2.473   5.277   9.499 -1.0572  0.8586 -0.5726
28315SOL     OW85522   8.822   7.011   8.302  0.0892  0.4133  0.4141
28315SOL    HW185523   8.794   6.924   8.274 -0.2675  0.2211  1.3248
28315SOL    HW285524   8.770   7.071   8.248 -1.8964  0.0602  1.7787
28316SOL     OW85525   4.824   9.145   8.252 -0.5461  0.7804 -0.4141
28316SOL    HW185526   4.891   9.130   8.185  0.6611 -1.4545  1.1904
28316SOL    HW285527   4.743   9.111   8.213  0.0586 -0.1734 -0.8619
28317SOL     OW85528   2.908   6.944   9.740  0.0028 -0.0490  0.7173
28317SOL    HW185529   2.850   7.020   9.750  0.0026  0.0083  0.2964
28317SOL    HW285530   2.993   6.974   9.769 -0.1763 -0.1405  1.3668
28318SOL     OW85531   9.363   3.658   4.760 -0.4432  0.3189 -0.1043
28318SOL    HW185532   9.307   3.602   4.707 -2.3068 -0.3434  2.3342
28318SOL    HW285533   9.420   3.703   4.697 -1.1341 -1.8152 -2.4091
28319SOL     OW85534   2.300   7.517   1.763 -0.0852 -0.1963 -0.1262
28319SOL    HW185535   2.296   7.526   1.858 -0.7587 -1.1103 -0.0631
28319SOL    HW285536   2.372   7.455   1.748 -1.0372 -1.3247 -0.1185
28320SOL     OW85537   2.294   9.136   8.082 -0.0728 -0.2242  0.1911
28320SOL    HW185538   2.280   9.224   8.116  0.4558 -0.3936  0.8667
28320SOL    HW285539   2.389   9.129   8.070 -0.0864 -0.7839  0.3695
28321SOL     OW85540   1.100   7.030   3.424 -0.0844 -0.1333 -0.0708
28321SOL    HW185541   1.087   6.946   3.381  0.7424 -0.8073  0.9320
28321SOL    HW285542   1.021   7.042   3.477  0.3496 -0.9568  0.8138
28322SOL     OW85543   5.351   7.082   2.633  0.5623  0.3789 -0.4008
28322SOL    HW185544   5.360   7.028   2.712  1.5695  0.1377 -0.6566
28322SOL    HW285545   5.361   7.019   2.561 -1.6151  0.3855 -0.7635
28323SOL     OW85546   6.185   7.835   7.815  0.2595 -0.0255 -0.5414
28323SOL    HW185547   6.252   7.776   7.782 -1.4407 -2.1903 -0.3666
28323SOL    HW285548   6.103   7.786   7.805 -1.0860  1.7853  0.8921
28324SOL     OW85549   4.891   5.789   7.108 -0.0566 -0.1170  0.4874
28324SOL    HW185550   4.901   5.870   7.060 -1.4944  0.1816  0.6305
28324SOL    HW285551   4.796   5.779   7.119  0.1374 -1.2825  1.3644
28325SOL     OW85552   8.127   1.545   3.680 -0.0261  0.2987  0.3399
28325SOL    HW185553   8.066   1.518   3.748  0.2994 -2.9025 -0.4692
28325SOL    HW285554   8.200   1.585   3.727 -0.6187 -0.1940  1.7201
28326SOL     OW85555   3.763   5.176   6.296  0.1212 -0.1680  0.0418
28326SOL    HW185556   3.810   5.099   6.264 -1.1494 -0.2618 -1.7657
28326SOL    HW285557   3.816   5.250   6.268  1.0007 -0.3432  1.1889
28327SOL     OW85558   2.638   5.101   1.686  0.1414 -0.1208 -0.3293
28327SOL    HW185559   2.692   5.179   1.699  0.2376 -0.2081 -0.1977
28327SOL    HW285560   2.635   5.090   1.591  0.1285  0.0425 -0.3480
28328SOL     OW85561   9.946   4.751   9.180  0.1896  0.1807  0.3158
28328SOL    HW185562   9.965   4.746   9.274 -0.4216  1.9689  0.5700
28328SOL    HW285563  10.011   4.812   9.145 -0.1832  0.2683 -0.2458
28329SOL     OW85564   2.555   5.969   8.241 -0.2651 -0.0678 -0.1226
28329SOL    HW185565   2.545   6.064   8.250  3.2320  0.4922 -0.7496
28329SOL    HW285566   2.559   5.936   8.331 -1.8640  0.2681  0.1018
28330SOL     OW85567   1.057   9.231   8.986  0.7167  0.0576  0.1098
28330SOL    HW185568   1.108   9.312   8.982  1.2069 -0.0840  2.2983
28330SOL    HW285569   1.109   9.168   8.936  0.7054  0.8800 -0.9793
28331SOL     OW85570   2.268   8.985   5.892 -0.3930 -0.1958 -0.1218
28331SOL    HW185571   2.320   8.926   5.947  0.2547 -1.1000 -1.6409
28331SOL    HW285572   2.226   9.044   5.954  0.4323 -1.0619  1.3305
28332SOL     OW85573   3.531   6.373   0.892 -0.4993  0.5614 -0.4029
28332SOL    HW185574   3.502   6.282   0.882  0.1164  0.2695  0.3917
28332SOL    HW285575   3.521   6.411   0.804  0.4394 -0.6362 -1.0638
28333SOL     OW85576   3.258   6.443   0.444 -0.6023  0.8984  0.0291
28333SOL    HW185577   3.187   6.390   0.480 -0.7888  1.0343 -0.1386
28333SOL    HW285578   3.215   6.505   0.385 -0.3915  1.2758  0.2690
28334SOL     OW85579   2.767   3.361   7.330 -0.1969 -0.2186  0.2626
28334SOL    HW185580   2.845   3.376   7.276 -1.0673  1.1189 -0.6675
28334SOL    HW285581   2.708   3.432   7.308 -2.0208 -1.6290  0.3608
28335SOL     OW85582   6.288   4.963   4.096  0.6553  0.0481  0.1121
28335SOL    HW185583   6.302   5.057   4.105 -3.1965  0.8218 -0.2180
28335SOL    HW285584   6.205   4.946   4.141 -0.5958 -2.4707 -2.7472
28336SOL     OW85585   2.390   0.264   5.008 -0.0353 -0.1609 -0.7074
28336SOL    HW185586   2.364   0.189   5.062 -0.7833  0.5316 -0.0749
28336SOL    HW285587   2.340   0.254   4.927 -0.5655 -0.0691 -0.4024
28337SOL     OW85588   1.394   7.924   7.834  0.1858  0.0647 -1.0031
28337SOL    HW185589   1.416   7.992   7.770 -0.8398 -0.7161 -2.2371
28337SOL    HW285590   1.414   7.964   7.919 -1.7597  2.4883 -1.5533
28338SOL     OW85591   7.178   0.527   4.781 -0.2244 -0.1371  0.5043
28338SOL    HW185592   7.157   0.522   4.875 -1.5887  2.0594  0.3737
28338SOL    HW285593   7.112   0.472   4.739  0.7484 -1.6176  0.8034
28339SOL     OW85594   0.185   9.912   8.371 -0.1121  0.3993  0.3843
28339SOL    HW185595   0.195   9.935   8.463 -2.7044  1.4021  0.5100
28339SOL    HW285596   0.179   9.996   8.325 -0.8526 -0.0554 -0.4004
28340SOL     OW85597   5.063   0.299   0.742 -0.1663  0.3307 -0.6241
28340SOL    HW185598   4.986   0.245   0.757  0.6750 -0.4625  1.2326
28340SOL    HW285599   5.039   0.385   0.775 -0.2983  0.0957 -0.0913
28341SOL     OW85600   7.463   4.525   1.077  0.4744 -0.3717 -0.1306
28341SOL    HW185601   7.399   4.583   1.035  0.6484  0.9794  1.3801
28341SOL    HW285602   7.526   4.505   1.008  0.1653  0.8831 -0.8092
28342SOL     OW85603   5.038   8.473   4.548 -0.2273  0.3594  0.7931
28342SOL    HW185604   5.124   8.440   4.522 -0.2458  0.2837  0.8274
28342SOL    HW285605   5.039   8.565   4.523 -0.6395  0.0427 -0.4559
28343SOL     OW85606   0.000   0.273   5.576 -0.4641 -0.0541 -0.5151
28343SOL    HW185607   0.093   0.255   5.561 -0.1826  1.3790 -0.7082
28343SOL    HW285608  -0.017   0.350   5.521 -1.7195 -0.1836 -0.3193
28344SOL     OW85609   6.037   9.396   1.461  0.3299 -0.1816 -0.0782
28344SOL    HW185610   6.088   9.360   1.388 -0.4643 -1.7748  0.1016
28344SOL    HW285611   6.055   9.490   1.459  0.2798 -0.1455 -2.3973
28345SOL     OW85612   7.800   0.198   7.807 -0.6384  0.2105  0.3759
28345SOL    HW185613   7.772   0.283   7.841 -0.6555  0.5766 -0.5277
28345SOL    HW285614   7.719   0.158   7.773 -0.7378 -0.4321  1.3332
28346SOL     OW85615   0.282   7.792   0.162  0.7425  0.1670 -0.0727
28346SOL    HW185616   0.296   7.862   0.227 -0.4708  0.8656 -0.5340
28346SOL    HW285617   0.294   7.711   0.212 -1.4593  0.6546  1.4079
28347SOL     OW85618   1.124   9.410   2.243 -0.9091 -0.5307  0.6099
28347SOL    HW185619   1.205   9.360   2.252 -1.2537 -1.5668 -1.4628
28347SOL    HW285620   1.071   9.383   2.318  0.9904  0.9770  2.6292
28348SOL     OW85621   0.218   6.647   9.737  0.4819 -0.1563 -0.1506
28348SOL    HW185622   0.250   6.651   9.647 -0.8527 -0.8022 -0.6729
28348SOL    HW285623   0.129   6.680   9.733  0.5860  0.3110  1.0381
28349SOL     OW85624   7.064   1.483   6.703 -0.3095 -0.1506 -0.0266
28349SOL    HW185625   7.129   1.553   6.695  1.0099 -1.3985 -0.6407
28349SOL    HW285626   7.082   1.425   6.629 -0.6879 -1.6789  1.0366
28350SOL     OW85627   6.426   6.588   5.364 -0.1769  0.1952 -0.0467
28350SOL    HW185628   6.439   6.549   5.277 -0.7751  0.6002 -0.3265
28350SOL    HW285629   6.335   6.618   5.363 -0.4164 -0.4440  0.9888
28351SOL     OW85630   7.950   0.331   9.080  0.3737 -0.1897 -0.7602
28351SOL    HW185631   7.866   0.313   9.039  0.4640  2.1957 -2.2194
28351SOL    HW285632   8.007   0.356   9.007  1.2602  1.8054  0.5261
28352SOL     OW85633   4.691   9.025   4.660  0.0105 -0.2852 -0.4236
28352SOL    HW185634   4.766   8.971   4.685 -0.5558 -0.5381  0.8317
28352SOL    HW285635   4.643   8.972   4.596 -0.4541 -1.2484  0.6737
28353SOL     OW85636   6.940   1.360   0.653  0.0149 -0.4634  0.2489
28353SOL    HW185637   6.992   1.377   0.574  0.3493 -0.7755  0.3972
28353SOL    HW285638   6.853   1.392   0.632  0.2240 -0.0908 -0.0693
28354SOL     OW85639   9.400   8.844   7.798 -0.1962  0.6321  0.1788
28354SOL    HW185640   9.376   8.765   7.749  1.0509 -0.5771  1.4056
28354SOL    HW285641   9.330   8.906   7.780 -0.6181 -0.3464 -1.7568
28355SOL     OW85642   9.483   4.503   1.271  0.3879  0.5338  0.3887
28355SOL    HW185643   9.575   4.477   1.280  0.1764 -1.5452 -2.1860
28355SOL    HW285644   9.484   4.569   1.202  0.0317  1.2488  1.0585
28356SOL     OW85645   1.642   0.111   7.314  0.5888 -1.1797  0.1213
28356SOL    HW185646   1.592   0.057   7.375  0.8115 -0.9979  0.4615
28356SOL    HW285647   1.614   0.201   7.332  1.4080 -1.0248  0.6591
28357SOL     OW85648   8.955   6.278   7.662 -0.0116  0.0027 -0.3209
28357SOL    HW185649   8.967   6.298   7.569  0.2812  1.8993  0.0777
28357SOL    HW285650   8.912   6.193   7.663  1.0519 -0.6152 -2.1597
28358SOL     OW85651   4.251   0.998   3.835 -0.0098 -0.1799  0.6789
28358SOL    HW185652   4.245   0.949   3.917 -0.5601 -0.6130  0.3886
28358SOL    HW285653   4.238   0.932   3.767 -0.3028  0.2971  0.2682
28359SOL     OW85654   3.857   4.205   8.341 -0.3096 -0.6425 -0.1865
28359SOL    HW185655   3.905   4.254   8.274 -0.2500 -0.8766 -0.3128
28359SOL    HW285656   3.765   4.214   8.315 -0.5845  1.7463  1.2903
28360SOL     OW85657   8.755   7.053   0.607  0.5696 -0.3120 -0.0926
28360SOL    HW185658   8.775   6.960   0.613  0.1916 -0.5047 -1.4367
28360SOL    HW285659   8.839   7.094   0.584  0.7569 -0.3052  0.5975
28361SOL     OW85660   9.222   6.906   1.577  0.0973 -0.2079 -0.4152
28361SOL    HW185661   9.175   6.825   1.556 -1.6039  0.7748 -0.5716
28361SOL    HW285662   9.298   6.904   1.518 -1.2487 -0.5283 -2.2640
28362SOL     OW85663   4.093   6.208   2.687  0.3660 -0.3483  0.0933
28362SOL    HW185664   4.171   6.155   2.670  1.5516  1.2345  0.4201
28362SOL    HW285665   4.046   6.159   2.755  0.9627 -1.4233 -0.2449
28363SOL     OW85666   2.291   2.187   2.934 -0.5865  0.1152 -0.7575
28363SOL    HW185667   2.313   2.230   2.852  1.0315 -0.0756 -0.4438
28363SOL    HW285668   2.361   2.124   2.949 -2.5697 -2.2737 -0.8980
28364SOL     OW85669   6.341   7.645   7.305 -0.1107  0.1713 -0.3608
28364SOL    HW185670   6.425   7.601   7.293  0.3086  1.0319 -0.6157
28364SOL    HW285671   6.332   7.702   7.228 -1.7331 -1.1746 -1.2494
28365SOL     OW85672   4.651   5.469   9.854 -0.0986 -0.4162 -0.1899
28365SOL    HW185673   4.587   5.508   9.913 -0.0721  0.8061 -0.9373
28365SOL    HW285674   4.613   5.384   9.829 -2.1464  0.8576 -1.7281
28366SOL     OW85675   2.177   0.599   1.798  0.4670  0.2315 -0.1716
28366SOL    HW185676   2.119   0.608   1.874  1.1234  0.0697  0.3585
28366SOL    HW285677   2.156   0.512   1.762 -0.2910  0.5660 -0.5684
28367SOL     OW85678   6.336   9.012   0.302  0.1210  0.0048 -0.4748
28367SOL    HW185679   6.278   8.946   0.264  0.5227 -0.9496  0.5052
28367SOL    HW285680   6.420   8.998   0.260  0.5860 -1.1030  0.7475
28368SOL     OW85681   1.979   3.368   5.312 -0.2413 -0.2421 -0.2543
28368SOL    HW185682   1.995   3.402   5.400 -1.8233 -1.6631  0.6334
28368SOL    HW285683   2.066   3.341   5.281  0.2693 -0.2845  1.1273
28369SOL     OW85684   5.254   3.628   1.859 -0.2376  0.2909  0.6028
28369SOL    HW185685   5.285   3.704   1.809  0.9253 -0.1629  0.6195
28369SOL    HW285686   5.190   3.665   1.920 -2.2276  0.7736 -1.6374
28370SOL     OW85687   9.744   4.049   4.518 -0.2167  0.4585 -0.1249
28370SOL    HW185688   9.832   4.086   4.528 -0.2646  0.6653 -0.4467
28370SOL    HW285689   9.743   4.015   4.429 -0.7087  1.1259 -0.3810
28371SOL     OW85690   7.083   9.792   2.586  0.2971  0.1815 -0.3030
28371SOL    HW185691   7.078   9.801   2.681  1.0903  3.1024 -0.4254
28371SOL    HW285692   6.993   9.774   2.559 -0.1611  0.4825  0.9355
28372SOL     OW85693   3.586   9.119   5.675 -0.3056 -0.0741  0.5647
28372SOL    HW185694   3.642   9.197   5.671  1.0080 -1.0315 -0.5303
28372SOL    HW285695   3.545   9.114   5.589 -1.7498  0.3225  1.1872
28373SOL     OW85696   5.785   8.866   2.536 -0.0499 -0.6119 -0.1778
28373SOL    HW185697   5.781   8.856   2.631  0.6622  0.3624 -0.0252
28373SOL    HW285698   5.697   8.895   2.511  0.3614  1.3724  0.5013
28374SOL     OW85699   3.804   1.851   0.693 -0.0947  0.3783  0.6230
28374SOL    HW185700   3.709   1.860   0.696 -0.2403 -0.3973 -0.6445
28374SOL    HW285701   3.819   1.756   0.691  0.6914  0.4950  0.5490
28375SOL     OW85702   7.788   7.669   5.841 -0.4662  0.3758  0.3710
28375SOL    HW185703   7.771   7.624   5.923  1.6091 -1.7103 -0.2535
28375SOL    HW285704   7.707   7.658   5.790 -0.7840 -0.7267  1.0854
28376SOL     OW85705   6.037   5.212   2.018  0.2332 -0.0004 -0.0494
28376SOL    HW185706   6.115   5.162   1.994 -0.6189 -0.7163 -1.4870
28376SOL    HW285707   6.037   5.214   2.113  2.2995  0.5059 -0.0163
28377SOL     OW85708   1.475   2.585   6.964 -0.2137  0.4644 -0.2365
28377SOL    HW185709   1.539   2.526   6.923 -0.9432 -0.2910 -0.3238
28377SOL    HW285710   1.508   2.673   6.945  0.5481  0.0961 -0.6827
28378SOL     OW85711   8.015   5.280   8.187  0.6682 -0.4337  0.0831
28378SOL    HW185712   7.985   5.369   8.168 -0.3661 -0.5324  1.1580
28378SOL    HW285713   8.111   5.286   8.181  0.5710  0.5213 -0.7855
28379SOL     OW85714   7.656   4.362   6.660  0.3220 -0.1994 -0.0319
28379SOL    HW185715   7.670   4.341   6.753 -0.5408  1.6854  0.5716
28379SOL    HW285716   7.563   4.386   6.655  0.4557  0.1056 -1.3082
28380SOL     OW85717   4.247   4.346   6.829 -0.1642 -0.5209  0.2369
28380SOL    HW185718   4.265   4.384   6.915 -0.0710  0.8966 -0.3676
28380SOL    HW285719   4.159   4.378   6.807 -0.7439 -1.9778  0.3602
28381SOL     OW85720   5.533   2.313   0.583  0.3931  0.0785  0.2685
28381SOL    HW185721   5.586   2.392   0.595  0.2717  0.6191 -2.2431
28381SOL    HW285722   5.443   2.343   0.596  0.3345  0.4250 -0.8341
28382SOL     OW85723   2.071   2.721   7.256 -0.1921  0.2228 -0.2079
28382SOL    HW185724   2.104   2.768   7.180 -1.8774  0.3554 -0.8970
28382SOL    HW285725   2.084   2.781   7.329  0.9065  0.3237 -0.4759
28383SOL     OW85726   4.598   9.322   7.825  0.4221  0.2392  0.6641
28383SOL    HW185727   4.685   9.357   7.807  0.4437  0.6620  1.5592
28383SOL    HW285728   4.539   9.396   7.810 -0.0775 -0.6309 -2.2746
28384SOL     OW85729   4.659   1.547   6.556  0.1044 -0.0077  0.0919
28384SOL    HW185730   4.609   1.468   6.579  1.0414 -0.9238 -0.8600
28384SOL    HW285731   4.672   1.539   6.461  1.7031  0.4028  0.2524
28385SOL     OW85732   9.727   4.397   6.539 -0.5293 -0.1964 -0.2326
28385SOL    HW185733   9.812   4.385   6.581 -0.5787  1.6753  0.4867
28385SOL    HW285734   9.670   4.427   6.609 -1.4395 -0.0816 -1.0075
28386SOL     OW85735   6.749   1.908   4.895  0.3830  0.4208 -0.1613
28386SOL    HW185736   6.700   1.850   4.838 -0.8384  0.3882  0.8831
28386SOL    HW285737   6.827   1.857   4.920 -0.6756 -0.8106  0.7570
28387SOL     OW85738   9.925   8.312   5.363 -0.9861  0.0045 -0.2477
28387SOL    HW185739   9.914   8.224   5.327 -0.7932  0.2092 -0.8182
28387SOL    HW285740   9.883   8.308   5.449  1.4189 -1.4467  0.9650
28388SOL     OW85741   6.726   2.373   7.776 -0.0077 -0.2552  0.1506
28388SOL    HW185742   6.757   2.345   7.689 -0.2470 -1.1256  0.3316
28388SOL    HW285743   6.637   2.405   7.760  1.0598  2.7252 -0.4554
28389SOL     OW85744   8.914   0.237   5.309  0.2488  0.1814  0.1365
28389SOL    HW185745   8.971   0.182   5.364  0.4294  0.1374 -0.0925
28389SOL    HW285746   8.826   0.219   5.340  0.3053 -0.2657  0.0419
28390SOL     OW85747   7.447   3.441   3.772 -0.5006  0.0155  0.6040
28390SOL    HW185748   7.510   3.464   3.704  0.8677 -0.5574  1.6317
28390SOL    HW285749   7.362   3.455   3.731  0.2777  0.1924 -1.0455
28391SOL     OW85750   4.336   5.877   3.130  0.1073 -0.1120 -0.0804
28391SOL    HW185751   4.423   5.917   3.123  0.2797 -0.6181 -1.0974
28391SOL    HW285752   4.334   5.839   3.218  0.8169  0.1293  0.0480
28392SOL     OW85753   4.113   4.908   0.168  0.1304 -0.3634 -0.1442
28392SOL    HW185754   4.077   4.880   0.084 -0.8303  2.4143 -0.7575
28392SOL    HW285755   4.044   4.961   0.207  0.8252 -1.0308  2.1124
28393SOL     OW85756   9.686   3.911   7.734  0.5988  0.0700 -0.6908
28393SOL    HW185757   9.697   3.982   7.797  0.4747 -0.3149 -0.2251
28393SOL    HW285758   9.772   3.869   7.729  0.2401 -0.8585  0.4098
28394SOL     OW85759   4.805   6.320   3.998  0.0504  0.2275 -0.5370
28394SOL    HW185760   4.842   6.383   4.060 -1.0628  0.3297  0.0443
28394SOL    HW285761   4.879   6.263   3.976  0.4179  0.0134  1.0856
28395SOL     OW85762   5.828   2.084   0.282  0.1541  0.4585 -0.0906
28395SOL    HW185763   5.869   2.003   0.311  0.2564  0.4970 -0.1270
28395SOL    HW285764   5.766   2.056   0.215 -0.6116  0.2888  0.6748
28396SOL     OW85765   9.195   0.063   3.902 -1.2142  0.0214  0.3250
28396SOL    HW185766   9.209   0.157   3.915  0.3478 -0.1304 -0.0631
28396SOL    HW285767   9.224   0.046   3.812 -2.5979 -0.6417 -0.0250
28397SOL     OW85768   7.782   5.276   2.368 -0.1303  0.2763  0.3103
28397SOL    HW185769   7.688   5.270   2.384 -0.2189  1.1277  0.1397
28397SOL    HW285770   7.823   5.247   2.450 -0.5581  2.2327  1.2609
28398SOL     OW85771   3.600   0.920   7.634  0.2439  0.5346 -0.8610
28398SOL    HW185772   3.646   0.959   7.559  0.3270  0.3409 -0.9114
28398SOL    HW285773   3.608   0.985   7.703  0.2741  0.6618 -0.9840
28399SOL     OW85774   7.377   9.800   8.774 -0.0238 -0.0979 -0.5661
28399SOL    HW185775   7.393   9.756   8.857  0.8939  1.1478 -0.0555
28399SOL    HW285776   7.333   9.882   8.798  0.5940  0.4527 -1.2691
28400SOL     OW85777   6.326   5.980   7.103  0.2541 -0.2585 -0.6330
28400SOL    HW185778   6.370   6.042   7.045  0.9319 -1.1139 -1.0647
28400SOL    HW285779   6.353   5.894   7.071  0.2502 -0.7614  0.6544
28401SOL     OW85780   2.861   7.073   8.678 -0.1467  0.6916 -0.3656
28401SOL    HW185781   2.853   7.001   8.615  1.0454 -0.0776  0.3287
28401SOL    HW285782   2.898   7.032   8.757  0.2803  2.0200  0.1453
28402SOL     OW85783   3.636   9.850   3.372  0.0750  0.3959 -0.1281
28402SOL    HW185784   3.676   9.763   3.366  0.5902  0.6543 -0.5476
28402SOL    HW285785   3.610   9.871   3.283  2.2196  1.7003 -0.5062
28403SOL     OW85786   1.459   8.064   9.903  0.1399  0.7526  0.1530
28403SOL    HW185787   1.529   8.069   9.839 -0.2505  1.0432 -0.2582
28403SOL    HW285788   1.386   8.022   9.857  0.1745  0.0770  0.6979
28404SOL     OW85789   3.876   9.527   6.036  0.0409  0.3138  0.0339
28404SOL    HW185790   3.911   9.606   5.996 -0.8334 -0.7027 -3.0353
28404SOL    HW285791   3.861   9.551   6.128  0.4971  3.4222 -0.5873
28405SOL     OW85792   8.428   1.643   8.286 -0.1430  0.4992  0.2557
28405SOL    HW185793   8.505   1.620   8.338 -0.6495 -1.2845  0.2748
28405SOL    HW285794   8.372   1.692   8.347 -1.5800 -3.1173  2.1561
28406SOL     OW85795   4.851   3.951   0.911  0.0060 -0.3414 -0.4199
28406SOL    HW185796   4.883   3.966   1.000  0.7214  0.9383 -0.8701
28406SOL    HW285797   4.931   3.937   0.859 -0.3254  0.1064 -1.0658
28407SOL     OW85798   2.473   5.453   0.823 -0.5646  0.4099  0.1721
28407SOL    HW185799   2.430   5.407   0.751  1.8036  0.7283 -1.5670
28407SOL    HW285800   2.554   5.403   0.839  0.7964  2.4190  0.0050
28408SOL     OW85801   9.182   1.529   5.487  0.2067 -0.1069  0.1785
28408SOL    HW185802   9.106   1.472   5.471 -1.1090  1.7781 -0.6418
28408SOL    HW285803   9.152   1.617   5.464  2.9186  0.6238 -0.9909
28409SOL     OW85804   7.287   7.230   1.715  0.6066  0.0355  0.5186
28409SOL    HW185805   7.262   7.322   1.719 -1.5442 -0.4264 -0.6049
28409SOL    HW285806   7.379   7.229   1.741  0.9320  2.5747 -0.2442
28410SOL     OW85807   0.177   9.072   7.437 -0.4185  0.8084 -0.0835
28410SOL    HW185808   0.210   8.994   7.481 -0.0771  0.7790 -0.3835
28410SOL    HW285809   0.115   9.111   7.499 -0.1704  0.6059  0.2908
28411SOL     OW85810   6.783   8.431   0.644 -0.4770  0.1402 -0.0837
28411SOL    HW185811   6.804   8.345   0.609 -1.1924  0.2671 -0.8490
28411SOL    HW285812   6.703   8.457   0.599 -0.2366  1.2369  0.0876
28412SOL     OW85813   0.382   4.366   7.875  0.7895 -0.9864  0.1099
28412SOL    HW185814   0.447   4.396   7.938  0.4376  0.8247 -0.3390
28412SOL    HW285815   0.419   4.386   7.789  0.3631 -1.4989 -0.2054
28413SOL     OW85816   1.575   5.729   9.927 -0.3451 -0.1010  0.3631
28413SOL    HW185817   1.655   5.742   9.978  0.3454 -0.5802 -0.5706
28413SOL    HW285818   1.598   5.756   9.839 -1.7457  1.4158  0.4214
28414SOL     OW85819   7.609   8.722   6.126 -0.3479  0.4993 -0.3624
28414SOL    HW185820   7.595   8.629   6.109  1.5682 -0.0592  0.8976
28414SOL    HW285821   7.538   8.765   6.078 -1.1165 -1.5666 -1.2124
28415SOL     OW85822   6.523   7.627   0.276  0.2827  0.2217  0.0966
28415SOL    HW185823   6.473   7.655   0.199 -0.2854 -0.5651  0.1693
28415SOL    HW285824   6.598   7.687   0.279 -0.9638  1.8523  0.3369
28416SOL     OW85825   9.125   6.610   7.990  0.4016 -0.0406 -0.3136
28416SOL    HW185826   9.183   6.589   7.917  0.1378  0.8464 -0.7888
28416SOL    HW285827   9.038   6.620   7.951  0.2447  0.3832  0.1270
28417SOL     OW85828   9.862   1.996   9.017 -0.8897 -0.5420 -0.4769
28417SOL    HW185829   9.838   1.958   8.933 -3.0301  0.8881 -0.5776
28417SOL    HW285830   9.945   2.041   9.000 -1.5084  0.1005 -1.9527
28418SOL     OW85831   3.373   3.160   4.829  0.0640 -0.0869 -0.3112
28418SOL    HW185832   3.324   3.080   4.813  0.0570 -0.2975  0.6824
28418SOL    HW285833   3.386   3.162   4.924  3.7179 -1.1173 -0.6157
28419SOL     OW85834   3.965   2.987   7.508  0.3542 -0.2710  0.2601
28419SOL    HW185835   3.922   2.915   7.554  1.5506 -0.8895  0.4629
28419SOL    HW285836   3.895   3.047   7.486 -0.4914 -0.8443  1.3006
28420SOL     OW85837   7.163   9.579   1.403  0.4149  0.0750  0.3629
28420SOL    HW185838   7.211   9.498   1.419 -1.0187 -0.4802  2.3241
28420SOL    HW285839   7.102   9.558   1.333  0.4060 -0.3733  0.5040
28421SOL     OW85840   6.196   0.036   2.372 -0.3982 -0.1252 -0.3711
28421SOL    HW185841   6.170   0.043   2.464 -0.6642  0.6873 -0.5025
28421SOL    HW285842   6.123   0.073   2.323 -0.3709 -0.8060 -0.9268
28422SOL     OW85843   2.148   1.861   3.086  0.2325 -0.1481 -0.1674
28422SOL    HW185844   2.058   1.894   3.093  0.1993 -0.4796  1.2773
28422SOL    HW285845   2.201   1.926   3.132  0.8057  0.2598 -1.3802
28423SOL     OW85846   0.276   7.660   2.558 -0.3251 -0.0882  0.4824
28423SOL    HW185847   0.282   7.733   2.619  0.2433 -0.4561  0.8751
28423SOL    HW285848   0.211   7.602   2.597 -1.1282  0.4174 -0.0674
28424SOL     OW85849   3.416   4.851   0.403 -0.1513  0.0195 -0.0683
28424SOL    HW185850   3.430   4.912   0.331  2.8775  1.1433  1.3086
28424SOL    HW285851   3.482   4.783   0.390  0.0213 -0.0959  1.2619
28425SOL     OW85852   2.487   2.859   5.744 -0.2178 -0.1671 -0.4993
28425SOL    HW185853   2.484   2.913   5.823 -0.9653 -0.5731 -0.2406
28425SOL    HW285854   2.396   2.839   5.725  0.0953 -2.7280  0.3662
28426SOL     OW85855   6.548   1.377   7.762  0.2871 -0.1675  0.4153
28426SOL    HW185856   6.456   1.396   7.747  0.3065 -0.1522  0.3175
28426SOL    HW285857   6.586   1.461   7.787  0.3644 -0.0866  0.0215
28427SOL     OW85858   2.184   7.283   4.949  0.0797  0.2549 -0.6946
28427SOL    HW185859   2.145   7.237   5.024  2.3613 -1.3261 -0.3679
28427SOL    HW285860   2.109   7.309   4.896 -1.5420 -0.0531  1.2816
28428SOL     OW85861   6.543   2.159   3.323  0.6228  0.1551  0.2724
28428SOL    HW185862   6.486   2.191   3.254 -0.7464  1.0225  1.7181
28428SOL    HW285863   6.625   2.208   3.311 -0.6791  2.7667  1.1032
28429SOL     OW85864   4.391   6.711   4.894  0.3167 -0.2729  0.2497
28429SOL    HW185865   4.371   6.761   4.973 -0.8384 -1.1981  0.5728
28429SOL    HW285866   4.305   6.686   4.859  0.7341  1.1374 -1.9964
28430SOL     OW85867   0.967   8.544   1.072 -0.1514  0.0348 -1.1539
28430SOL    HW185868   0.902   8.474   1.066  0.1818 -0.3854  0.0127
28430SOL    HW285869   0.915   8.625   1.074 -0.5866 -0.2386 -1.2972
28431SOL     OW85870   9.883   7.399   4.826  0.0297  0.2054 -0.5849
28431SOL    HW185871   9.927   7.468   4.776 -2.2744  0.4678 -2.4105
28431SOL    HW285872   9.861   7.332   4.761  0.7281 -1.5223  0.8682
28432SOL     OW85873   4.921   6.445   4.582 -0.1032 -0.5335  0.3284
28432SOL    HW185874   4.921   6.539   4.565 -0.2715 -0.7274 -0.7752
28432SOL    HW285875   5.007   6.415   4.555 -0.9236 -1.1136 -1.8038
28433SOL     OW85876   4.816   2.507   2.562 -0.6444  1.2485  0.0654
28433SOL    HW185877   4.856   2.467   2.639 -0.4077 -0.0266 -0.6788
28433SOL    HW285878   4.773   2.586   2.595 -0.2162  0.9459  1.4205
28434SOL     OW85879   8.439   2.722   7.005 -0.3754 -0.7802  0.5067
28434SOL    HW185880   8.503   2.793   7.006  0.0455 -1.0585 -1.5787
28434SOL    HW285881   8.407   2.717   7.095  0.0691  1.5883  0.8593
28435SOL     OW85882   4.072   1.647   2.787  0.1809 -0.2664  0.1714
28435SOL    HW185883   4.086   1.641   2.692 -0.7742 -0.6832  0.0471
28435SOL    HW285884   4.050   1.739   2.802  0.6805 -0.1206  0.0471
28436SOL     OW85885   8.915   9.604   1.880  0.0892 -0.1246  0.2960
28436SOL    HW185886   8.894   9.693   1.852  2.1036  0.5496  0.7006
28436SOL    HW285887   8.856   9.548   1.830  0.9263  1.2414 -2.4344
28437SOL     OW85888   9.106   7.439   6.374 -0.1902  0.1657  0.6596
28437SOL    HW185889   9.039   7.453   6.442 -0.9981 -3.9623  0.9861
28437SOL    HW285890   9.163   7.371   6.411  0.3996 -0.9322 -2.0558
28438SOL     OW85891   7.723   3.311   7.051 -0.4367  0.4100 -0.2389
28438SOL    HW185892   7.792   3.317   6.985 -1.3649 -0.4070 -1.3067
28438SOL    HW285893   7.767   3.272   7.127 -0.0047 -1.5740 -1.4120
28439SOL     OW85894   3.637   2.459   6.350  0.2793 -0.1305  0.3184
28439SOL    HW185895   3.542   2.451   6.340  0.4007 -1.4442  0.0747
28439SOL    HW285896   3.666   2.500   6.269  0.0625 -0.9718 -0.1962
28440SOL     OW85897   0.941   8.899   3.513  0.1025 -0.5570  1.1777
28440SOL    HW185898   0.874   8.967   3.517  1.6713  1.1360  0.2224
28440SOL    HW285899   0.896   8.821   3.481 -1.2696  0.7137 -0.0835
28441SOL     OW85900   5.848   1.615   7.456  0.2388  0.0069 -0.7669
28441SOL    HW185901   5.764   1.584   7.423  0.5441 -0.6943 -0.9039
28441SOL    HW285902   5.832   1.705   7.482 -0.7222 -0.3036 -0.2169
28442SOL     OW85903   1.466   1.892   1.347 -0.5082  0.4026  0.4616
28442SOL    HW185904   1.494   1.969   1.298  1.3389 -0.7846 -0.4841
28442SOL    HW285905   1.538   1.875   1.408  1.6189 -3.1722 -2.5446
28443SOL     OW85906   3.990   6.629   8.538  0.3832 -0.1564 -0.3077
28443SOL    HW185907   4.052   6.607   8.468 -0.3067 -0.6898 -0.7663
28443SOL    HW285908   3.966   6.544   8.575 -0.1709  0.0395 -0.2217
28444SOL     OW85909   4.117   5.525   9.579 -0.0456  0.2866  0.7348
28444SOL    HW185910   4.072   5.512   9.663 -0.0230  1.7252  0.9956
28444SOL    HW285911   4.205   5.492   9.593 -0.5965 -1.3439  0.6276
28445SOL     OW85912   7.029   2.181   6.291 -0.0814 -0.1091 -0.8033
28445SOL    HW185913   7.055   2.206   6.203  2.2605 -0.6087 -0.3362
28445SOL    HW285914   7.011   2.264   6.335  2.3370  0.4878 -0.7773
28446SOL     OW85915   1.407   8.835   0.608  0.2684  0.3408 -0.1606
28446SOL    HW185916   1.460   8.757   0.622 -0.0155 -0.3007 -2.3834
28446SOL    HW285917   1.329   8.821   0.661  1.4783  0.4909  1.7526
28447SOL     OW85918   6.535   3.974   5.118  0.5988  0.5206 -0.1178
28447SOL    HW185919   6.597   4.032   5.074 -0.8949  2.1802 -0.1573
28447SOL    HW285920   6.522   4.013   5.204  0.9307 -0.8220  0.5740
28448SOL     OW85921   1.760   7.141   0.673 -0.0115  0.1090 -0.5331
28448SOL    HW185922   1.835   7.116   0.727  0.2839  0.3649 -0.8249
28448SOL    HW285923   1.744   7.064   0.618 -0.7389 -0.4137  0.3768
28449SOL     OW85924   3.076   1.599   1.129 -0.0143  0.8082  0.2174
28449SOL    HW185925   3.097   1.691   1.149  0.5701  0.4984  1.0662
28449SOL    HW285926   3.158   1.552   1.141 -1.0675 -0.4442  3.6479
28450SOL     OW85927   3.763   7.545   8.237  0.1060  0.0683  0.1271
28450SOL    HW185928   3.760   7.638   8.260  1.0120  1.3144 -3.8625
28450SOL    HW285929   3.850   7.533   8.199  0.4108 -2.7630  1.5128
28451SOL     OW85930   3.886   4.536   6.507 -0.2844 -0.1207 -0.1827
28451SOL    HW185931   3.969   4.559   6.465 -1.1896  0.8553 -1.5115
28451SOL    HW285932   3.880   4.596   6.582  1.0237 -1.4229  1.0403
28452SOL     OW85933   0.080   4.041   1.791  0.0018 -1.0744  0.5978
28452SOL    HW185934   0.164   4.032   1.836 -0.1649 -1.6517  0.7985
28452SOL    HW285935   0.040   3.955   1.797 -1.9983 -0.0652  3.2538
28453SOL     OW85936   0.950   8.763   9.069 -0.0390  0.1272  0.7344
28453SOL    HW185937   1.037   8.802   9.063  0.1091 -0.0872  1.3581
28453SOL    HW285938   0.944   8.705   8.993  0.6722 -0.4474  1.1041
28454SOL     OW85939   7.596   7.083   3.630  0.2126  0.7791  0.6298
28454SOL    HW185940   7.537   7.149   3.666 -0.2606  0.6303  0.1497
28454SOL    HW285941   7.578   7.004   3.681  0.3663  0.8699  0.8243
28455SOL     OW85942   7.513   3.146   3.010 -0.1902 -0.4273  0.0685
28455SOL    HW185943   7.422   3.155   3.037 -1.0337 -2.3337 -1.8270
28455SOL    HW285944   7.518   3.192   2.926  0.9452  0.7274  0.7348
28456SOL     OW85945   1.763   9.525   2.010 -0.3339 -0.4481  0.1309
28456SOL    HW185946   1.705   9.470   1.957 -0.6811  1.3582 -1.4758
28456SOL    HW285947   1.838   9.542   1.954  0.1691  0.0315  0.9285
28457SOL     OW85948   0.051   7.144   8.059  0.3177  0.1013 -0.1137
28457SOL    HW185949  -0.038   7.115   8.041  0.4936 -0.3510 -0.2640
28457SOL    HW285950   0.041   7.234   8.091 -0.1336  0.3206 -0.8512
28458SOL     OW85951   9.654   0.579   4.408 -0.2435 -0.3210 -0.0678
28458SOL    HW185952   9.663   0.671   4.383 -1.3209 -0.6330 -1.8630
28458SOL    HW285953   9.603   0.540   4.336 -0.5123 -2.1428  1.0402
28459SOL     OW85954   9.532   0.604   8.248  0.2903  0.3306 -0.2756
28459SOL    HW185955   9.576   0.536   8.197  0.9619  0.3962  0.2008
28459SOL    HW285956   9.498   0.558   8.325 -0.6887  0.2373 -0.7571
28460SOL     OW85957   3.432   6.569   6.484  0.1087 -0.3079  0.5597
28460SOL    HW185958   3.499   6.515   6.525  1.4936  0.3445 -0.7723
28460SOL    HW285959   3.416   6.640   6.547  2.2153  0.6860  0.0715
28461SOL     OW85960   5.908   3.005   8.576 -0.3385 -0.6882 -0.0655
28461SOL    HW185961   5.970   3.031   8.508  1.4895 -0.5473  1.5529
28461SOL    HW285962   5.846   3.078   8.581  0.7560  0.2806 -0.1516
28462SOL     OW85963   6.753   3.529   7.129 -0.5648  0.0069  0.3487
28462SOL    HW185964   6.739   3.623   7.117  1.2632  0.1778 -0.7512
28462SOL    HW285965   6.696   3.488   7.063 -0.0904  0.4378 -0.3438
28463SOL     OW85966   8.382   7.631   6.588 -0.2215  0.4347  0.5039
28463SOL    HW185967   8.439   7.639   6.664 -0.4246  0.1297  0.6934
28463SOL    HW285968   8.407   7.548   6.547 -1.9908 -0.8329  1.8432
28464SOL     OW85969   9.887   1.522   0.875  0.1888 -0.1066  0.0150
28464SOL    HW185970   9.902   1.572   0.795  1.2051 -3.6824 -2.2734
28464SOL    HW285971   9.974   1.492   0.901 -0.3614 -0.6613  1.2911
28465SOL     OW85972   7.344   3.687   9.036  0.0409  0.3545 -0.3708
28465SOL    HW185973   7.394   3.608   9.057 -1.1150 -0.1186  0.7545
28465SOL    HW285974   7.285   3.659   8.966 -0.8253 -0.0173  0.4662
28466SOL     OW85975   8.530   7.042   7.275 -0.2333 -0.4444 -0.2175
28466SOL    HW185976   8.451   7.046   7.221 -0.4780  0.1557  0.1673
28466SOL    HW285977   8.591   6.988   7.225 -0.1409  0.7862 -1.5127
28467SOL     OW85978   1.464   9.968   3.291 -0.3269  0.1184 -0.4883
28467SOL    HW185979   1.397   9.911   3.329  0.4449  0.0541  0.8338
28467SOL    HW285980   1.463   9.948   3.198 -2.0092 -0.0094 -0.4621
28468SOL     OW85981   1.178   7.284   7.150  0.1810 -0.2813 -0.0099
28468SOL    HW185982   1.139   7.368   7.172 -1.2730 -1.1605  0.8759
28468SOL    HW285983   1.241   7.305   7.081 -1.0015  1.3521 -0.6542
28469SOL     OW85984   9.371   4.185   4.519 -0.0205 -0.2494 -0.2184
28469SOL    HW185985   9.380   4.265   4.468 -0.2611  1.2097  1.9232
28469SOL    HW285986   9.277   4.175   4.533  0.1318  0.4744  1.5344
28470SOL     OW85987   2.044   4.778   4.047 -0.1329 -0.2242 -0.6029
28470SOL    HW185988   2.069   4.696   4.005 -1.7873 -1.4743  0.7268
28470SOL    HW285989   2.081   4.772   4.135 -1.0593  0.0171 -0.1861
28471SOL     OW85990   9.946   5.115   7.989  0.4767  0.1258 -0.1765
28471SOL    HW185991   9.965   5.124   8.082  1.9711 -0.8111 -0.3665
28471SOL    HW285992   9.893   5.035   7.983  2.2800 -1.1238 -0.3146
28472SOL     OW85993   3.435   2.824   4.571 -0.0144 -0.3260 -0.2332
28472SOL    HW185994   3.455   2.749   4.516  0.7477  0.4005 -0.9782
28472SOL    HW285995   3.340   2.822   4.580  0.1222 -2.4828  1.4016
28473SOL     OW85996   9.399   2.396   6.953  0.6296  0.3199  0.6708
28473SOL    HW185997   9.383   2.339   7.028  0.8758  0.0134  0.4878
28473SOL    HW285998   9.397   2.338   6.877  0.7095  0.5797  0.4673
28474SOL     OW85999   0.609   4.360   7.712  0.0269 -0.1649 -0.0032
28474SOL    HW186000   0.604   4.291   7.646  0.6435 -0.0531 -0.1685
28474SOL    HW286001   0.691   4.344   7.758 -1.5117 -1.7813  2.4588
28475SOL     OW86002   5.142   0.180   4.847 -0.1061  0.1228  0.1931
28475SOL    HW186003   5.062   0.224   4.874  0.2768 -0.2019  2.0168
28475SOL    HW286004   5.160   0.117   4.917  0.5175 -1.4357 -1.2976
28476SOL     OW86005   2.479   4.404   3.915 -0.1593  0.4691  0.4383
28476SOL    HW186006   2.472   4.487   3.866 -1.2680  1.6797  2.5141
28476SOL    HW286007   2.542   4.422   3.984 -0.4878 -0.3775  0.9715
28477SOL     OW86008   3.077   6.086   5.589 -0.1920  0.1423  0.6633
28477SOL    HW186009   3.044   6.164   5.633 -0.1307 -0.3634  1.6274
28477SOL    HW286010   2.999   6.043   5.555 -0.3307  0.0517  1.0908
28478SOL     OW86011   7.304   7.805   2.410  0.3021  0.1188 -0.1595
28478SOL    HW186012   7.333   7.714   2.415  1.8736  0.5751 -0.2331
28478SOL    HW286013   7.316   7.839   2.499 -1.6692 -0.1036  0.2337
28479SOL     OW86014   9.074   8.709   7.910 -0.8797  0.3734  0.3680
28479SOL    HW186015   9.101   8.621   7.883 -1.0559  0.0058  1.3599
28479SOL    HW286016   9.096   8.714   8.003 -1.0398  1.3216  0.3698
28480SOL     OW86017   5.605   6.168   6.555  0.2385  0.1181 -0.4584
28480SOL    HW186018   5.680   6.109   6.549 -0.3173 -1.1508  2.8374
28480SOL    HW286019   5.643   6.255   6.565  1.4341 -0.5644  1.8601
28481SOL     OW86020   1.658   1.550   2.880 -0.2827  0.5424  0.1790
28481SOL    HW186021   1.562   1.540   2.881 -0.3922  1.4007 -0.6107
28481SOL    HW286022   1.675   1.603   2.803  0.9200 -0.3777 -0.2126
28482SOL     OW86023   6.376   7.334   1.232 -0.0638  0.0891 -0.3604
28482SOL    HW186024   6.291   7.292   1.220 -0.6039  1.0520 -0.0181
28482SOL    HW286025   6.436   7.280   1.180 -0.6521 -1.2992  0.3396
28483SOL     OW86026   5.206   6.350   4.656 -0.3308  0.4001 -0.4186
28483SOL    HW186027   5.271   6.381   4.593  1.1079 -1.4769  0.0407
28483SOL    HW286028   5.192   6.259   4.632 -0.8635  0.0704  1.0679
28484SOL     OW86029   7.337   2.528   9.017 -0.0025  0.0605  0.9442
28484SOL    HW186030   7.265   2.575   9.059  0.7435  2.7485 -0.5281
28484SOL    HW286031   7.395   2.503   9.089 -0.4922  1.3610  1.8358
28485SOL     OW86032   4.186   7.495   0.312  0.4361  0.3701 -0.0029
28485SOL    HW186033   4.177   7.477   0.406  3.1110  1.2199  0.4915
28485SOL    HW286034   4.280   7.501   0.297  0.0878  0.2827 -2.7754
28486SOL     OW86035   1.642   6.373   7.165  0.2107 -0.6021  0.1565
28486SOL    HW186036   1.691   6.442   7.121  0.2962 -1.9077 -1.9277
28486SOL    HW286037   1.707   6.324   7.215  0.7192 -1.0535 -0.9127
28487SOL     OW86038   9.113   5.806   2.068 -0.0452 -0.2900 -0.1711
28487SOL    HW186039   9.136   5.893   2.102 -0.0026 -0.3376 -0.0800
28487SOL    HW286040   9.145   5.807   1.978 -0.2302 -0.1344 -0.2353
28488SOL     OW86041   1.664   4.352   9.272  0.2948  0.4547 -0.1287
28488SOL    HW186042   1.688   4.361   9.364 -0.1722 -0.6393  0.1134
28488SOL    HW286043   1.651   4.442   9.242  0.2249  0.8112  0.9308
28489SOL     OW86044   7.121   6.155   4.253 -0.3324  0.3001 -0.9582
28489SOL    HW186045   7.027   6.147   4.269 -0.3902  1.9328 -0.2079
28489SOL    HW286046   7.161   6.132   4.337 -0.1764  1.1163 -0.7967
28490SOL     OW86047   5.374   5.256   0.843 -0.2727  0.3940 -0.4895
28490SOL    HW186048   5.304   5.191   0.836 -1.6825  1.8794 -0.8053
28490SOL    HW286049   5.364   5.309   0.764  0.3198  1.4906  0.1536
28491SOL     OW86050   3.056   8.888   0.168 -0.0956  0.7552  0.5179
28491SOL    HW186051   3.141   8.932   0.172  0.5026 -0.4399  1.5222
28491SOL    HW286052   3.027   8.882   0.259 -0.4623 -0.3302  0.3496
28492SOL     OW86053   6.681   9.632   2.031  0.7134 -0.5591  0.0114
28492SOL    HW186054   6.754   9.592   1.983 -0.7922 -0.5025 -2.5370
28492SOL    HW286055   6.628   9.558   2.060  0.6189 -0.5524 -0.1415
28493SOL     OW86056   0.641   3.782   3.076  0.2500  0.2742 -0.5694
28493SOL    HW186057   0.568   3.741   3.029  1.2430 -2.6299  0.2300
28493SOL    HW286058   0.621   3.876   3.073 -2.1079 -0.1762 -2.6792
28494SOL     OW86059   0.595   3.329   9.595  0.0932  0.2593  0.0480
28494SOL    HW186060   0.676   3.379   9.592  2.5663 -3.3895 -0.0630
28494SOL    HW286061   0.570   3.328   9.687 -0.8519  2.7149 -0.1129
28495SOL     OW86062   9.477   5.142   3.872 -0.2583  0.1507 -0.3834
28495SOL    HW186063   9.408   5.079   3.852 -1.0759 -0.2054  3.0752
28495SOL    HW286064   9.534   5.096   3.934  0.4339  2.0129  0.4198
28496SOL     OW86065   2.306   9.928   7.227  0.0866  0.3147  0.0278
28496SOL    HW186066   2.234   9.874   7.195 -0.0839  0.1175  0.7237
28496SOL    HW286067   2.366   9.866   7.270  0.9586  0.4005 -1.0310
28497SOL     OW86068   3.604   0.067   8.576  0.2055  0.4982  0.1970
28497SOL    HW186069   3.557  -0.015   8.564  1.1473 -0.4628  2.4525
28497SOL    HW286070   3.590   0.115   8.495  0.1088 -2.1248 -1.4612
28498SOL     OW86071   2.398   6.775   3.110 -0.0755  0.5051 -0.0197
28498SOL    HW186072   2.459   6.788   3.182  0.1155  0.6618 -0.2088
28498SOL    HW286073   2.446   6.723   3.046 -0.3985 -0.0296  0.1628
28499SOL     OW86074   1.920   5.764  -0.018 -0.5042 -0.3943 -0.2419
28499SOL    HW186075   1.951   5.791   0.068 -1.2078  0.7315 -0.3356
28499SOL    HW286076   1.905   5.669  -0.009 -2.2768 -0.0102  1.4052
28500SOL     OW86077   6.035   8.165   9.015  0.3321 -0.1307  0.8880
28500SOL    HW186078   6.016   8.246   8.968  0.5019 -0.8737 -0.5335
28500SOL    HW286079   5.984   8.171   9.095 -2.0328  0.1206 -0.5364
28501SOL     OW86080   9.247   1.522   9.502 -0.5066 -0.0023  0.1558
28501SOL    HW186081   9.208   1.493   9.584 -2.4167 -0.6088 -0.8968
28501SOL    HW286082   9.281   1.609   9.520 -0.5228 -0.2911  1.6828
28502SOL     OW86083   7.726   3.411   4.722 -0.7296  0.3690 -0.2663
28502SOL    HW186084   7.756   3.328   4.685  0.5185  0.9025 -0.5010
28502SOL    HW286085   7.630   3.405   4.720 -0.6797 -1.7034  1.2206
28503SOL     OW86086   7.715   0.626   0.652  0.3633  0.0240 -0.3320
28503SOL    HW186087   7.646   0.597   0.712  1.1565  1.8846  1.5702
28503SOL    HW286088   7.796   0.599   0.694  0.9183  0.8376 -0.8678
28504SOL     OW86089   2.661   3.490   9.722  0.2366 -0.0367  0.1082
28504SOL    HW186090   2.694   3.454   9.640  1.9323  0.4042  0.5710
28504SOL    HW286091   2.595   3.426   9.750 -1.0115  0.2221 -1.9756
28505SOL     OW86092   2.251   9.452   7.955  0.1217  0.1467 -0.1912
28505SOL    HW186093   2.282   9.387   7.892  0.1659  0.1942 -0.2192
28505SOL    HW286094   2.184   9.502   7.907  1.2217  1.1697 -0.6983
28506SOL     OW86095   1.657   1.438   5.526 -0.1193 -0.5949 -0.1039
28506SOL    HW186096   1.566   1.462   5.507  0.0834  2.6716  2.1544
28506SOL    HW286097   1.709   1.502   5.478  0.8238 -0.5947  0.8752
28507SOL     OW86098   2.593   0.827   4.960 -0.5056  0.4640  0.1641
28507SOL    HW186099   2.640   0.748   4.987 -3.6980 -1.7141 -0.1916
28507SOL    HW286100   2.608   0.833   4.865 -0.4045  0.2177  0.1651
28508SOL     OW86101   8.938   7.970   3.284  0.5007 -0.5010  0.8602
28508SOL    HW186102   8.917   7.942   3.195  0.3990 -1.4452  1.1647
28508SOL    HW286103   9.032   7.987   3.282  0.1033  2.0262 -0.0583
28509SOL     OW86104   6.750   7.792   0.213  0.2163 -0.0229 -0.2231
28509SOL    HW186105   6.716   7.823   0.129  1.3729  1.7567 -0.0951
28509SOL    HW286106   6.844   7.780   0.198  0.1155 -1.7207  0.2802
28510SOL     OW86107   4.453   2.065   5.667 -0.9206 -0.3038  0.2816
28510SOL    HW186108   4.484   2.087   5.755 -1.1101 -1.0309  0.5391
28510SOL    HW286109   4.479   1.974   5.655  0.0025  0.0863 -0.8210
28511SOL     OW86110   5.915   4.882   0.495  0.1444  0.1241  0.1089
28511SOL    HW186111   5.909   4.792   0.461 -1.7037 -0.6903  2.3485
28511SOL    HW286112   5.845   4.929   0.449  0.7963  0.3298 -0.7039
28512SOL     OW86113   3.684   9.174   4.101 -0.4050 -0.2649 -0.1960
28512SOL    HW186114   3.767   9.126   4.093  0.4522  1.2579 -0.7681
28512SOL    HW286115   3.640   9.157   4.017  0.1546  0.3875 -0.6332
28513SOL     OW86116   2.519   8.688   1.761 -0.2421  0.0837  0.9065
28513SOL    HW186117   2.453   8.703   1.693  1.9074 -2.2582 -1.9619
28513SOL    HW286118   2.569   8.769   1.764 -1.6979  1.0115  1.3976
28514SOL     OW86119   5.855   0.274   6.279 -0.4555 -0.9049  0.0800
28514SOL    HW186120   5.837   0.254   6.371 -3.1435 -0.5359 -0.2808
28514SOL    HW286121   5.872   0.189   6.239 -2.7303 -1.5250  0.3060
28515SOL     OW86122   2.977   1.295   8.348 -0.5211 -0.3991 -0.4727
28515SOL    HW186123   3.007   1.369   8.295 -0.8530  1.0577  1.2769
28515SOL    HW286124   3.044   1.228   8.337  0.0062  0.3118 -1.7771
28516SOL     OW86125   7.099   8.681   7.296  0.0017 -0.4339  0.1764
28516SOL    HW186126   7.193   8.661   7.297  0.5998  1.8479 -1.8954
28516SOL    HW286127   7.091   8.764   7.342 -0.8648 -0.2127 -0.3400
28517SOL     OW86128   3.682   1.585   9.080  0.2910 -0.3919  0.0671
28517SOL    HW186129   3.751   1.556   9.140 -0.0088 -0.4785  0.3801
28517SOL    HW286130   3.615   1.517   9.088 -0.9294  0.9093  1.6835
28518SOL     OW86131   5.612   1.749   6.323 -0.1250  0.0006 -0.0310
28518SOL    HW186132   5.530   1.718   6.285 -0.9186 -0.6043  2.0456
28518SOL    HW286133   5.592   1.837   6.355  0.3947  0.3268 -0.5850
28519SOL     OW86134   1.333   2.244   7.388  0.0504 -0.3446 -0.2410
28519SOL    HW186135   1.404   2.302   7.360 -1.2015  0.9955 -0.7929
28519SOL    HW286136   1.254   2.297   7.377 -1.2960 -2.5348 -1.8937
28520SOL     OW86137   5.776   8.387   7.961 -0.4874  0.5873 -0.6945
28520SOL    HW186138   5.844   8.435   8.008  0.7203 -1.7066  0.0816
28520SOL    HW286139   5.711   8.367   8.028 -0.0828 -0.3562 -0.5550
28521SOL     OW86140   0.610   0.359   3.930 -0.1845 -0.7067  0.0497
28521SOL    HW186141   0.577   0.449   3.934  2.5900  0.4859 -1.3373
28521SOL    HW286142   0.570   0.322   3.851  0.7359  0.2811 -0.9061
28522SOL     OW86143   4.996   0.491   3.789  0.1513 -0.2031 -0.1585
28522SOL    HW186144   5.032   0.427   3.727  0.9105 -1.2162  1.2737
28522SOL    HW286145   4.921   0.447   3.828  0.4735 -0.0932  0.5923
28523SOL     OW86146   1.311   4.649   8.224 -0.2106  0.7951  0.2859
28523SOL    HW186147   1.340   4.737   8.247 -0.7525  1.4702 -1.4297
28523SOL    HW286148   1.288   4.608   8.307 -0.4406  2.4565  1.0731
28524SOL     OW86149   0.221   7.013   6.954 -0.1588  0.0355 -0.8935
28524SOL    HW186150   0.300   7.012   6.900  0.7512  1.4366  0.3103
28524SOL    HW286151   0.233   6.939   7.015 -0.2487 -0.3384 -1.3232
28525SOL     OW86152   6.862   6.557   9.039  0.4120 -0.1183 -0.6335
28525SOL    HW186153   6.800   6.488   9.064 -0.2881 -0.2121 -2.4852
28525SOL    HW286154   6.911   6.575   9.119  0.4337 -2.5767 -0.0268
28526SOL     OW86155   3.825   1.211   8.525 -0.8066 -0.1061 -0.0139
28526SOL    HW186156   3.880   1.136   8.501  0.2164 -0.0123  1.8664
28526SOL    HW286157   3.880   1.264   8.583 -1.9251  1.4950 -0.3264
28527SOL     OW86158   0.646   7.596   4.343 -0.7488 -0.6508  0.0836
28527SOL    HW186159   0.552   7.613   4.331 -0.9756 -0.2134  2.0906
28527SOL    HW286160   0.688   7.678   4.320 -0.6435 -1.3418 -2.4738
28528SOL     OW86161   8.859   7.482   1.222 -0.1953 -0.1527 -0.0685
28528SOL    HW186162   8.905   7.486   1.306  1.8048  1.9883 -1.1656
28528SOL    HW286163   8.786   7.543   1.232  0.4426  0.6331 -0.0546
28529SOL     OW86164   9.440   2.612   9.674 -0.5141 -0.0101  0.3575
28529SOL    HW186165   9.464   2.616   9.581 -2.3913  0.0304 -0.1695
28529SOL    HW286166   9.399   2.697   9.691  0.8378  0.4418  1.5643
28530SOL     OW86167   9.720   1.897   1.212 -0.7945 -0.2064 -0.5247
28530SOL    HW186168   9.705   1.827   1.149  0.4339  0.0286 -1.1057
28530SOL    HW286169   9.708   1.977   1.162 -1.1035 -0.0059 -0.1362
28531SOL     OW86170   5.107   2.796   9.884 -0.4933  0.4247  0.3994
28531SOL    HW186171   5.017   2.765   9.888 -0.5196  0.6108  1.6520
28531SOL    HW286172   5.147   2.764   9.965  0.6823  0.0090 -0.3095
28532SOL     OW86173   8.396   2.815   1.498 -0.1503 -0.9021 -0.4800
28532SOL    HW186174   8.473   2.864   1.527  0.5518 -0.3656 -3.0498
28532SOL    HW286175   8.329   2.881   1.483 -0.0205 -0.9668 -1.4397
28533SOL     OW86176   6.191   4.402   2.971  0.0234 -0.1950  0.0077
28533SOL    HW186177   6.101   4.419   2.996  0.4624  0.5400  1.1848
28533SOL    HW286178   6.221   4.335   3.033  0.3173 -0.3689 -0.3186
28534SOL     OW86179   3.749   2.971   8.991  0.3658 -0.2517 -0.2474
28534SOL    HW186180   3.828   2.929   9.027  0.4694  0.6152  0.5737
28534SOL    HW286181   3.771   3.064   8.988 -0.6241 -0.0047 -0.0273
28535SOL     OW86182   3.711   4.053   6.370 -0.0732 -0.0382  0.3206
28535SOL    HW186183   3.717   3.981   6.307  1.0762 -0.5326  0.9721
28535SOL    HW286184   3.636   4.031   6.425  0.2785 -0.7575  0.5245
28536SOL     OW86185   0.080   4.808   2.685  0.3944  0.3903 -0.0491
28536SOL    HW186186   0.130   4.770   2.612 -0.7765  0.4238 -0.9026
28536SOL    HW286187   0.016   4.740   2.707 -0.4336  1.0812 -0.2742
28537SOL     OW86188   3.144   5.927   3.096  0.2254  0.0942 -0.0310
28537SOL    HW186189   3.166   6.021   3.098  0.4740  0.0742 -1.1975
28537SOL    HW286190   3.143   5.905   3.003  1.8451 -1.4519  0.2617
28538SOL     OW86191   1.725   8.609   8.382 -0.7310 -0.5736  0.2410
28538SOL    HW186192   1.719   8.647   8.469 -0.4711 -0.8810  0.3932
28538SOL    HW286193   1.660   8.538   8.382  0.9244 -2.1834  1.0163
28539SOL     OW86194   3.368   9.210   9.483 -0.8246 -0.3249 -0.1725
28539SOL    HW186195   3.309   9.135   9.493 -0.0910 -1.4485 -3.0558
28539SOL    HW286196   3.455   9.174   9.500 -0.6639  0.5023  0.8102
28540SOL     OW86197   8.565   4.014   3.851 -0.0556 -0.1844  0.1104
28540SOL    HW186198   8.491   4.053   3.896 -0.0224  0.0749 -0.0584
28540SOL    HW286199   8.597   4.083   3.793  0.4269 -0.2349  0.3093
28541SOL     OW86200   8.722   8.904   1.339 -0.1977 -0.0705  0.2729
28541SOL    HW186201   8.766   8.823   1.367 -0.4555 -0.2285  0.2228
28541SOL    HW286202   8.738   8.908   1.244  0.5098  0.3636  0.4079
28542SOL     OW86203   3.252   1.852   1.312 -0.0255 -0.2925 -0.2512
28542SOL    HW186204   3.200   1.932   1.301 -0.8665 -0.9756 -1.5122
28542SOL    HW286205   3.340   1.876   1.281 -0.1393  0.2792 -0.1463
28543SOL     OW86206   5.577   6.178   1.494  0.0438 -0.0511 -0.4098
28543SOL    HW186207   5.509   6.133   1.443  0.0146  0.5006 -0.8820
28543SOL    HW286208   5.580   6.266   1.455  0.3497  0.2322  0.2495
28544SOL     OW86209   6.778   6.124   5.525 -0.2580  0.4241  0.3284
28544SOL    HW186210   6.874   6.117   5.519 -0.2143  1.0244  0.2985
28544SOL    HW286211   6.754   6.187   5.457 -0.7129  0.0076  0.1033
28545SOL     OW86212   9.377   6.111   6.478  0.0723  0.0444 -0.1782
28545SOL    HW186213   9.430   6.068   6.544 -0.1353 -0.7833 -0.5298
28545SOL    HW286214   9.436   6.173   6.436  0.9974 -1.3465 -1.0331
28546SOL     OW86215   7.154   7.323   3.144 -0.3431  0.5193  0.5407
28546SOL    HW186216   7.062   7.335   3.168 -0.6856 -2.4732  1.1705
28546SOL    HW286217   7.202   7.354   3.221 -0.9071  0.7799  0.7984
28547SOL     OW86218   5.907   1.712   7.851 -0.4413 -0.2768  0.0028
28547SOL    HW186219   5.951   1.734   7.933 -2.8384  2.5835  0.7200
28547SOL    HW286220   5.973   1.727   7.784  0.9545 -0.5541  1.2610
28548SOL     OW86221   9.145   9.503   7.836 -0.7157  0.3137 -0.4298
28548SOL    HW186222   9.171   9.411   7.834 -0.8722  0.2692 -1.7101
28548SOL    HW286223   9.060   9.505   7.791 -2.3700  0.6400  2.4668
28549SOL     OW86224   0.654   7.606   8.543  0.1467  0.1703  0.0799
28549SOL    HW186225   0.611   7.692   8.546  0.7631  0.5320 -0.9563
28549SOL    HW286226   0.727   7.618   8.482 -0.4029 -1.3874 -0.9159
28550SOL     OW86227   9.094   9.391   6.656 -0.6088  0.0192 -0.1699
28550SOL    HW186228   9.026   9.417   6.717  1.4028 -2.6525  3.6468
28550SOL    HW286229   9.109   9.298   6.675  2.8120  0.0110 -2.0828
28551SOL     OW86230   7.906   6.054   9.024  0.0284  0.1224  0.3688
28551SOL    HW186231   7.926   6.001   9.101  0.2714 -0.1805  0.1027
28551SOL    HW286232   7.989   6.096   9.001 -0.1874  0.7108  0.6407
28552SOL     OW86233   0.611   5.840   2.401  0.2280  0.3339 -0.2893
28552SOL    HW186234   0.579   5.903   2.335 -0.0671  0.7068  0.2025
28552SOL    HW286235   0.559   5.761   2.386 -0.6015  0.7764  0.1901
28553SOL     OW86236   5.167   8.986   1.604  0.3958 -0.2872 -0.0259
28553SOL    HW186237   5.218   8.924   1.552 -1.0549 -1.2258 -0.3919
28553SOL    HW286238   5.211   9.070   1.591 -0.4782 -0.2175 -3.7288
28554SOL     OW86239   1.450   6.901   5.013 -0.7710 -0.2015 -0.0047
28554SOL    HW186240   1.436   6.975   5.072 -3.5381 -0.9867  0.4638
28554SOL    HW286241   1.461   6.825   5.072 -1.4075 -0.6613 -0.4663
28555SOL     OW86242   7.264   7.052   6.109 -0.3494 -0.3560  0.4314
28555SOL    HW186243   7.229   7.127   6.158  1.1438  0.8261 -0.2308
28555SOL    HW286244   7.289   7.088   6.024 -1.1096 -1.9794 -0.5334
28556SOL     OW86245   2.215   0.069   5.747 -0.0780  0.8377 -0.3338
28556SOL    HW186246   2.251   0.145   5.793  0.6789 -0.7259  1.7939
28556SOL    HW286247   2.285   0.041   5.689  0.3981  0.6007  0.3441
28557SOL     OW86248   5.223   7.484   1.882  1.0120 -0.1634 -0.1860
28557SOL    HW186249   5.221   7.536   1.961 -1.2869 -0.6548  0.1546
28557SOL    HW286250   5.232   7.394   1.913  0.4431 -0.3285 -0.4839
28558SOL     OW86251   5.566   4.877   7.198  0.2170  0.3185  0.3626
28558SOL    HW186252   5.601   4.953   7.245 -1.1542  0.9762  0.3836
28558SOL    HW286253   5.521   4.915   7.122 -0.8532 -0.4256  0.6004
28559SOL     OW86254   5.417   0.490   9.033 -0.1594  0.2599 -0.1416
28559SOL    HW186255   5.393   0.566   8.979 -0.1268  0.6108  0.3356
28559SOL    HW286256   5.431   0.526   9.120 -0.1854 -0.3050  0.0979
28560SOL     OW86257   5.790   5.681   9.435  0.4774  0.1625 -0.3045
28560SOL    HW186258   5.832   5.734   9.503 -1.5427  1.5671 -0.0945
28560SOL    HW286259   5.789   5.737   9.358 -1.7505  0.5522 -0.0620
28561SOL     OW86260   6.618   6.794   8.395 -0.4583 -0.4903  0.0967
28561SOL    HW186261   6.546   6.752   8.442 -2.2099  1.4450 -0.6991
28561SOL    HW286262   6.617   6.753   8.309  0.5180 -1.6343  0.6103
28562SOL     OW86263   9.721   1.586   9.087 -0.3845  0.7101  0.4796
28562SOL    HW186264   9.696   1.529   9.159  1.2025  1.0093  1.3064
28562SOL    HW286265   9.745   1.669   9.129  1.3899  0.6253 -0.2634
28563SOL     OW86266   8.265   4.343   2.445  0.0955  0.2222  0.3263
28563SOL    HW186267   8.243   4.404   2.516 -0.4082 -1.5649  1.7956
28563SOL    HW286268   8.182   4.300   2.424  0.0972  1.1713 -1.8713
28564SOL     OW86269   9.653   8.876   8.261 -0.1464  0.1145  0.5540
28564SOL    HW186270   9.645   8.887   8.166  0.5667  2.7204  0.6995
28564SOL    HW286271   9.568   8.902   8.295  0.2693  1.4024  0.6894
28565SOL     OW86272   6.473   0.881   3.480  0.2892 -0.2429 -0.2276
28565SOL    HW186273   6.510   0.950   3.534  0.4056  0.4222 -1.1270
28565SOL    HW286274   6.379   0.885   3.495  0.3882 -0.6253  0.5523
28566SOL     OW86275   4.317   0.502   4.100 -0.1767 -0.1024 -0.1869
28566SOL    HW186276   4.351   0.572   4.045 -0.0647 -0.1517 -0.1784
28566SOL    HW286277   4.273   0.443   4.039  0.3144 -0.3800 -0.2738
28567SOL     OW86278   0.607   7.430   0.673  0.1491  0.0870 -0.0459
28567SOL    HW186279   0.624   7.338   0.654 -1.2365 -0.3208  0.5334
28567SOL    HW286280   0.543   7.457   0.606 -0.7693  0.1077  0.8097
28568SOL     OW86281   1.345   6.187   3.499 -0.4620  0.1493  0.0019
28568SOL    HW186282   1.327   6.107   3.449  1.2367 -0.2584 -0.0214
28568SOL    HW286283   1.278   6.188   3.567  0.0837 -1.8752  0.6558
28569SOL     OW86284   4.390   4.238   5.964 -0.2335 -0.0471  0.1785
28569SOL    HW186285   4.414   4.172   5.899  2.3522  0.2566  0.7140
28569SOL    HW286286   4.463   4.300   5.963 -0.1521  0.0351  3.2536
28570SOL     OW86287   2.317   6.596   7.707  0.1680  0.3676 -0.6970
28570SOL    HW186288   2.411   6.613   7.708  0.3481 -0.5741 -0.1688
28570SOL    HW286289   2.306   6.515   7.758 -0.8685  0.1714 -1.1895
28571SOL     OW86290   7.917   2.627   5.408  0.4041 -0.0227 -0.1005
28571SOL    HW186291   8.001   2.672   5.400 -0.1921  1.2427  0.4493
28571SOL    HW286292   7.940   2.540   5.441  1.4070  0.8196  1.5508
28572SOL     OW86293   7.198   5.457   4.334 -0.3505 -0.0834  0.1343
28572SOL    HW186294   7.137   5.445   4.261  1.0233 -0.9386 -0.9125
28572SOL    HW286295   7.252   5.531   4.308  0.3491 -0.5849  0.1345
28573SOL     OW86296   6.579   8.974   5.034  0.3330 -0.4148  0.2165
28573SOL    HW186297   6.620   9.017   4.959  0.9687 -0.3554  0.5867
28573SOL    HW286298   6.644   8.983   5.105  0.1671 -1.3380  0.5004
28574SOL     OW86299   9.614   3.015   5.818  0.1473 -0.2191  0.4385
28574SOL    HW186300   9.566   2.968   5.885  1.3059 -0.2608  1.2824
28574SOL    HW286301   9.701   3.029   5.856  0.8847 -0.3493 -1.0999
28575SOL     OW86302   1.766   7.994   0.778 -0.3252  0.5212 -0.5487
28575SOL    HW186303   1.694   7.933   0.797 -1.5320  2.3158  1.0236
28575SOL    HW286304   1.722   8.074   0.749  1.1413  1.1927 -1.0140
28576SOL     OW86305   0.359   6.809   8.236 -0.1381  0.0588 -0.0011
28576SOL    HW186306   0.366   6.758   8.156  0.9249 -0.0080  0.1205
28576SOL    HW286307   0.279   6.861   8.224 -1.0296 -1.3216 -0.2862
28577SOL     OW86308   4.263   9.888   5.844  0.1898  0.0763  0.2703
28577SOL    HW186309   4.280   9.794   5.841  0.5360  0.1434  0.1752
28577SOL    HW286310   4.220   9.901   5.928  1.8357  0.1136  1.1303
28578SOL     OW86311   0.473   1.928   0.467  0.1319  0.3150 -0.0300
28578SOL    HW186312   0.478   2.012   0.422  1.0528 -0.8565 -2.2445
28578SOL    HW286313   0.564   1.907   0.487 -0.1570  0.1683  1.2232
28579SOL     OW86314   5.116   3.675   6.487  0.1793 -0.0723  0.1471
28579SOL    HW186315   5.125   3.660   6.393 -0.3158 -0.6038  0.1725
28579SOL    HW286316   5.052   3.608   6.515 -0.5881  0.8501  0.6488
28580SOL     OW86317   0.871   4.842   2.165  0.2865 -0.1639 -0.0419
28580SOL    HW186318   0.945   4.902   2.157  0.8991 -1.0117 -0.9709
28580SOL    HW286319   0.808   4.873   2.100  0.2854 -0.1023 -0.0122
28581SOL     OW86320   2.674   4.880   1.855 -0.4012  0.2058  0.3150
28581SOL    HW186321   2.641   4.959   1.812 -1.2393  0.2512  1.0098
28581SOL    HW286322   2.628   4.878   1.939 -1.0683 -1.4945 -0.0568
28582SOL     OW86323   7.222   8.179   9.680  0.0465 -0.1578  0.0622
28582SOL    HW186324   7.175   8.263   9.687 -0.4372 -0.4727  0.6919
28582SOL    HW286325   7.210   8.137   9.765  2.0568  0.0358  0.4983
28583SOL     OW86326   8.747   3.869   4.944 -0.5858  0.0139  0.0570
28583SOL    HW186327   8.775   3.823   5.023 -2.0815  0.9125  1.1520
28583SOL    HW286328   8.766   3.961   4.961  0.9120  0.0344 -1.4703
28584SOL     OW86329   9.598   5.718   4.147 -0.6786  0.1160  0.2012
28584SOL    HW186330   9.637   5.675   4.223  0.3329 -0.1535 -0.4411
28584SOL    HW286331   9.621   5.810   4.157 -0.5851  0.0877  0.2478
28585SOL     OW86332   6.522   7.933   5.980  0.0302 -0.0092  0.1898
28585SOL    HW186333   6.476   7.878   5.916  0.5903 -0.7269  0.3906
28585SOL    HW286334   6.551   8.009   5.930 -2.8697  1.3694  0.3941
28586SOL     OW86335   4.104   7.134   2.994  0.0324  0.2641 -0.0450
28586SOL    HW186336   4.123   7.096   3.080 -1.4074 -0.2960  0.0459
28586SOL    HW286337   4.037   7.200   3.011 -0.7678 -0.3327 -0.8260
28587SOL     OW86338   2.826   1.837   2.932  0.4284  0.2175 -0.0005
28587SOL    HW186339   2.811   1.910   2.871 -2.3095  0.2693  0.5990
28587SOL    HW286340   2.813   1.759   2.878 -1.2238  0.2608  0.2748
28588SOL     OW86341   6.294   4.043   9.710 -0.4712 -0.2884 -0.0224
28588SOL    HW186342   6.307   4.004   9.797 -2.6139 -2.2325 -0.4880
28588SOL    HW286343   6.252   3.974   9.659 -0.2250  1.1713 -2.3195
28589SOL     OW86344   8.345   3.589   2.821  0.5737 -0.1539 -0.7526
28589SOL    HW186345   8.427   3.627   2.854  1.0020 -0.0721 -1.8776
28589SOL    HW286346   8.373   3.522   2.758 -0.2289  0.5894 -1.9316
28590SOL     OW86347   3.578   0.720   6.562  0.0350 -0.2854 -0.1303
28590SOL    HW186348   3.645   0.777   6.524 -0.3055 -0.1852 -0.5889
28590SOL    HW286349   3.590   0.729   6.657 -1.2321  2.0472 -0.1337
28591SOL     OW86350   6.831   7.288   4.767 -0.6947  0.0889 -0.0527
28591SOL    HW186351   6.896   7.334   4.820 -1.2975  1.7912 -0.7109
28591SOL    HW286352   6.764   7.261   4.830  0.0346 -0.5823  0.4512
28592SOL     OW86353   2.336   1.441   3.960 -0.4923  0.2368  0.2737
28592SOL    HW186354   2.384   1.425   4.042  0.6069 -1.8611 -0.6931
28592SOL    HW286355   2.404   1.470   3.899 -1.1764  1.0466 -0.1204
28593SOL     OW86356   1.127   0.206   9.828 -0.0215 -0.0004  0.7558
28593SOL    HW186357   1.143   0.204   9.734 -1.3782  1.2490  0.4629
28593SOL    HW286358   1.084   0.123   9.847 -1.9175  0.6865 -0.2075
28594SOL     OW86359   8.186   3.068   3.508  0.4583 -0.1228 -0.5129
28594SOL    HW186360   8.242   3.133   3.550  0.3725 -0.5458  0.2561
28594SOL    HW286361   8.244   3.024   3.445  0.2886  1.3372 -1.7642
28595SOL     OW86362   7.513   0.983   6.606  0.0872 -0.2916  0.1965
28595SOL    HW186363   7.427   0.958   6.573  0.2485  0.8277 -1.2185
28595SOL    HW286364   7.496   1.034   6.685 -0.4553 -1.2212  0.6862
28596SOL     OW86365   9.271   1.705   7.421  0.0056 -0.3739 -0.2564
28596SOL    HW186366   9.366   1.699   7.431  0.1743  2.4443  0.7498
28596SOL    HW286367   9.236   1.654   7.495  0.7704 -0.6110 -0.0555
28597SOL     OW86368   6.160   3.314   0.350  0.4302 -0.2468  0.9693
28597SOL    HW186369   6.235   3.304   0.409  0.7403 -0.5114  0.5331
28597SOL    HW286370   6.153   3.408   0.336  0.5947 -0.2100  1.1239
28598SOL     OW86371   6.017   4.643   6.415  0.1664 -0.3803 -0.4841
28598SOL    HW186372   6.048   4.573   6.358  0.3082 -0.4158 -0.3624
28598SOL    HW286373   6.001   4.601   6.499  1.4233 -0.0412 -0.0499
28599SOL     OW86374   2.129   1.088   6.007 -0.0231  0.8019  0.0428
28599SOL    HW186375   2.080   1.118   6.084 -1.8619 -0.8160 -0.4193
28599SOL    HW286376   2.064   1.089   5.937  0.4586 -1.8111 -0.5182
28600SOL     OW86377   1.914   4.351   4.816  0.3635  0.7460  0.1156
28600SOL    HW186378   1.831   4.312   4.790  0.1362  0.4971  1.2041
28600SOL    HW286379   1.896   4.394   4.899  1.5911 -0.2816  0.9462
28601SOL     OW86380   1.744   2.890   7.134 -0.0212  0.2467 -0.3800
28601SOL    HW186381   1.809   2.945   7.090 -1.8715  0.3299 -3.2640
28601SOL    HW286382   1.683   2.953   7.173  1.0330  0.1621  1.5163
28602SOL     OW86383   8.638   5.878   5.353 -0.0110 -0.5414 -1.0049
28602SOL    HW186384   8.583   5.812   5.395 -0.1409  0.0152 -0.2752
28602SOL    HW286385   8.618   5.871   5.260 -0.4076 -1.1732 -0.8745
28603SOL     OW86386   1.280   6.458   6.144 -0.4524 -0.4283 -0.4601
28603SOL    HW186387   1.251   6.516   6.074  0.5413 -0.3071 -0.7852
28603SOL    HW286388   1.199   6.426   6.183 -1.0596  1.4590 -0.0319
28604SOL     OW86389   5.987   8.851   3.029  0.4720  0.3779  0.3788
28604SOL    HW186390   5.965   8.853   2.936  0.4287  0.2038  0.3840
28604SOL    HW286391   5.921   8.794   3.068 -1.4196  2.8713  1.0437
28605SOL     OW86392   7.991   6.272   6.833 -0.4725 -0.1112  0.2409
28605SOL    HW186393   7.951   6.254   6.918  1.3309  0.7162  1.3300
28605SOL    HW286394   8.085   6.268   6.849 -0.0720 -0.3659 -1.8379
28606SOL     OW86395   8.256   4.395   5.865  0.6119 -0.3672 -0.3315
28606SOL    HW186396   8.219   4.475   5.829 -1.6017 -1.4322 -0.5743
28606SOL    HW286397   8.331   4.376   5.808  1.9066  2.0903  0.4493
28607SOL     OW86398   3.016   8.198   1.444  0.1703  0.4282 -0.0472
28607SOL    HW186399   3.034   8.268   1.507  1.5256  0.6921 -0.6912
28607SOL    HW286400   2.957   8.139   1.490 -0.1340  1.4324  0.8967
28608SOL     OW86401   1.821   2.983   9.604  0.5534  0.2781 -0.5456
28608SOL    HW186402   1.779   2.905   9.569  0.0162  1.3646 -2.4880
28608SOL    HW286403   1.783   2.995   9.691 -0.1455 -1.0112 -0.6598
28609SOL     OW86404   4.003   3.458   9.761  0.1442  0.1519 -0.4271
28609SOL    HW186405   3.939   3.432   9.827  0.2768 -1.0990 -0.7627
28609SOL    HW286406   3.969   3.540   9.725 -1.1317 -0.3436 -0.3968
28610SOL     OW86407   3.835   1.996   1.338 -0.5023  0.5112  0.6141
28610SOL    HW186408   3.776   1.965   1.406 -1.8216 -0.4350 -0.8937
28610SOL    HW286409   3.861   1.918   1.290 -0.3088  1.2385 -0.5176
28611SOL     OW86410   5.364   3.295   0.534 -0.3077  0.1496 -0.0809
28611SOL    HW186411   5.345   3.389   0.535  1.3721  0.5192  1.1245
28611SOL    HW286412   5.330   3.263   0.617  0.2291 -0.0635  0.0597
28612SOL     OW86413   9.871   1.789   4.975 -0.5393 -0.1644  0.0107
28612SOL    HW186414   9.939   1.857   4.972  1.4121 -2.0311  0.1837
28612SOL    HW286415   9.877   1.746   4.889 -0.6800 -1.1058  0.4643
28613SOL     OW86416   7.477   9.868   8.279  0.5202  0.2093  0.3647
28613SOL    HW186417   7.452   9.876   8.371 -1.0734 -1.0873  0.0871
28613SOL    HW286418   7.396   9.849   8.233  1.4358 -0.1481 -1.1948
28614SOL     OW86419   0.552   7.003   0.841 -0.1416  0.2215  0.8089
28614SOL    HW186420   0.608   6.931   0.812 -1.1925 -0.1465 -0.3871
28614SOL    HW286421   0.602   7.046   0.910  2.0796  0.5444 -0.8910
28615SOL     OW86422   8.203   5.036   3.328 -0.2929 -0.9337  0.5399
28615SOL    HW186423   8.209   5.124   3.291  0.3439 -1.1172  0.1875
28615SOL    HW286424   8.126   4.998   3.285 -0.9959 -0.3170  1.2223
28616SOL     OW86425   4.850   5.776   0.192 -0.0240  0.5589 -0.6154
28616SOL    HW186426   4.939   5.743   0.181 -0.5544 -0.6113 -1.5273
28616SOL    HW286427   4.839   5.838   0.120  0.2278  1.1185 -0.1803
28617SOL     OW86428   1.310   5.908   0.134  0.5700 -0.0310  0.2169
28617SOL    HW186429   1.324   5.821   0.096  0.4387 -0.1221  0.3763
28617SOL    HW286430   1.223   5.903   0.173 -0.3516  0.8235 -1.5947
28618SOL     OW86431   6.123   0.164   1.002 -0.7377  0.1210  0.0106
28618SOL    HW186432   6.069   0.211   1.065 -0.6413  0.3175 -0.0514
28618SOL    HW286433   6.116   0.072   1.027 -0.4844  0.2246  0.4689
28619SOL     OW86434   0.372   1.347   3.178 -0.1932 -0.4817 -0.2502
28619SOL    HW186435   0.294   1.292   3.179 -0.7107  0.2361 -0.4142
28619SOL    HW286436   0.394   1.360   3.270 -1.4934  0.9972 -0.1026
28620SOL     OW86437   7.439   5.883   8.701  0.3302 -0.3220  0.8399
28620SOL    HW186438   7.451   5.967   8.747 -1.5099 -0.5630  1.8203
28620SOL    HW286439   7.435   5.907   8.608 -0.0893  0.6745  1.1044
28621SOL     OW86440   4.016   6.341   9.519 -1.0283 -0.0154  0.4604
28621SOL    HW186441   4.001   6.330   9.613 -0.8780 -0.6034  0.4185
28621SOL    HW286442   4.100   6.300   9.502 -1.8011 -1.3887 -0.2060
28622SOL     OW86443   7.644   2.318   8.129 -0.2864 -0.1365  0.1936
28622SOL    HW186444   7.590   2.396   8.141 -0.7580 -0.3697 -0.4230
28622SOL    HW286445   7.686   2.305   8.214 -2.6563 -1.0574  1.3117
28623SOL     OW86446   0.134   1.063   7.532  0.3114  0.5355  0.5199
28623SOL    HW186447   0.136   1.119   7.455 -3.7730  0.5970  0.2489
28623SOL    HW286448   0.184   0.985   7.507  0.6619  1.3527 -1.4514
28624SOL     OW86449   4.203   9.912   6.443  0.3225 -0.0882 -0.5815
28624SOL    HW186450   4.114   9.946   6.439  0.6894  1.0045  0.1336
28624SOL    HW286451   4.259   9.990   6.440  1.2474 -0.7300 -0.5744
28625SOL     OW86452   9.476   5.904   1.555 -0.4955  0.4003 -0.1438
28625SOL    HW186453   9.435   5.818   1.558  0.8675 -0.2572  0.7849
28625SOL    HW286454   9.512   5.910   1.467  1.2618 -0.9403  0.4258
28626SOL     OW86455   9.789   5.536   3.611  0.2929 -0.3370 -0.2007
28626SOL    HW186456   9.767   5.496   3.695  1.8837 -0.4133  0.2103
28626SOL    HW286457   9.729   5.611   3.604 -1.4499 -1.6439 -0.1281
28627SOL     OW86458   3.641   5.916   5.892  0.3080 -0.1918 -0.2231
28627SOL    HW186459   3.578   5.858   5.847  1.4921 -0.3576 -1.7518
28627SOL    HW286460   3.681   5.861   5.958  1.0441 -1.0112 -1.3134
28628SOL     OW86461   9.014   6.494   5.491  0.5384  0.3691 -0.0515
28628SOL    HW186462   9.110   6.492   5.486  0.6419  0.9643  1.3028
28628SOL    HW286463   8.990   6.403   5.510  0.9699  0.4747  1.1387
28629SOL     OW86464   9.425   4.238   1.151 -0.0873 -0.1493  0.1062
28629SOL    HW186465   9.469   4.227   1.067 -0.7636  0.1067 -0.2917
28629SOL    HW286466   9.418   4.333   1.162 -0.0463 -0.1832  0.4218
28630SOL     OW86467   9.795   4.805   7.434 -0.4799 -0.0724 -0.5223
28630SOL    HW186468   9.845   4.797   7.353  0.2511  0.4316 -0.1409
28630SOL    HW286469   9.710   4.838   7.407 -1.0633 -2.0579 -1.3205
28631SOL     OW86470   6.222   9.667   0.336  0.1439 -0.3677 -0.4757
28631SOL    HW186471   6.236   9.762   0.338 -2.1909  0.0300 -0.0278
28631SOL    HW286472   6.181   9.650   0.251  1.0909 -1.1097 -0.8125
28632SOL     OW86473   1.446   5.960   9.584  0.0611  0.5545  0.0629
28632SOL    HW186474   1.457   5.900   9.657 -2.7240  1.2264  1.1286
28632SOL    HW286475   1.387   5.915   9.523 -0.7904  1.5547  0.1257
28633SOL     OW86476   7.194   0.921   5.163 -0.0621 -0.4290  0.4180
28633SOL    HW186477   7.172   1.014   5.169 -0.7360 -0.6174  1.0233
28633SOL    HW286478   7.278   0.913   5.209  1.4664  0.3233 -2.0440
28634SOL     OW86479   6.639   0.584   3.794 -0.2188 -0.5223 -0.6620
28634SOL    HW186480   6.723   0.566   3.753  1.4733  2.7734  1.0240
28634SOL    HW286481   6.657   0.590   3.887 -2.2412  0.6889 -0.2790
28635SOL     OW86482   1.901   0.848   1.347  0.0960  0.6030  0.5671
28635SOL    HW186483   1.855   0.923   1.386 -2.0501  0.2541 -1.0691
28635SOL    HW286484   1.871   0.773   1.398 -0.9460  0.4199 -0.2749
28636SOL     OW86485   9.694   8.296   8.294  0.1860  0.2458  0.0463
28636SOL    HW186486   9.764   8.331   8.238  1.3737 -0.8651  0.7923
28636SOL    HW286487   9.727   8.308   8.384 -1.1572  0.8824  0.4827
28637SOL     OW86488   7.361   1.188   0.695  0.5836 -0.4246 -0.4060
28637SOL    HW186489   7.355   1.274   0.653 -0.0352  0.4287  1.3486
28637SOL    HW286490   7.351   1.126   0.623 -0.7073  0.9695 -1.5001
28638SOL     OW86491   6.597   4.002   6.927 -0.3072  0.1955  0.0741
28638SOL    HW186492   6.502   4.001   6.911 -0.1799 -1.0524 -0.6779
28638SOL    HW286493   6.606   3.973   7.018 -0.6193  0.0324  0.0544
28639SOL     OW86494   7.231   9.769   8.253 -0.2715  0.8402 -0.0221
28639SOL    HW186495   7.207   9.794   8.164 -2.0328  0.8512  0.4148
28639SOL    HW286496   7.169   9.816   8.309  1.8950  2.2422  1.3636
28640SOL     OW86497   1.081   2.874   0.098 -0.3251  0.1809 -0.0137
28640SOL    HW186498   1.015   2.922   0.149  0.3607  0.8519  0.2514
28640SOL    HW286499   1.048   2.878   0.008 -1.7667 -1.3774  0.3989
28641SOL     OW86500   8.056   9.871   6.885 -0.0441  0.3740 -0.1714
28641SOL    HW186501   8.002   9.875   6.964 -0.3856 -1.5360 -0.2585
28641SOL    HW286502   8.106   9.953   6.887 -1.0191  0.9950  1.2927
28642SOL     OW86503   5.558   6.517   3.533  0.3716 -0.0503  0.2088
28642SOL    HW186504   5.517   6.447   3.583  0.8959 -0.1555  0.4999
28642SOL    HW286505   5.648   6.520   3.565  0.2632  0.9893  0.4476
28643SOL     OW86506   2.454   5.003   8.596 -0.4410 -0.9425  0.5442
28643SOL    HW186507   2.436   5.066   8.527 -0.8831 -0.9639  0.6401
28643SOL    HW286508   2.549   4.989   8.591 -0.0218  1.0343  1.6188
28644SOL     OW86509   6.040   6.295   4.747 -0.4808 -0.1737 -0.3775
28644SOL    HW186510   6.121   6.329   4.786 -0.6599  0.6112 -0.6781
28644SOL    HW286511   6.068   6.216   4.700 -0.2992 -1.2807  1.5055
28645SOL     OW86512   6.809   9.609   2.741  0.2600 -0.2742 -0.0594
28645SOL    HW186513   6.782   9.664   2.668 -0.3049  0.1161  0.4324
28645SOL    HW286514   6.830   9.524   2.702 -0.9773 -0.3691 -0.5404
28646SOL     OW86515   1.346   2.422   8.530  1.0623 -0.0394  0.0382
28646SOL    HW186516   1.362   2.516   8.525 -0.9302  0.4262  1.4902
28646SOL    HW286517   1.362   2.399   8.621  0.6443 -0.9302 -0.1021
28647SOL     OW86518   0.590   5.303   4.072 -0.6170  0.2961  0.1406
28647SOL    HW186519   0.541   5.377   4.108  1.4272  1.1384  1.3730
28647SOL    HW286520   0.572   5.306   3.978 -1.0786  1.9714  0.2512
28648SOL     OW86521   5.785   7.959   1.250 -0.4063  0.1180 -0.2526
28648SOL    HW186522   5.829   8.028   1.201  0.8052 -1.2639 -1.1722
28648SOL    HW286523   5.780   7.885   1.190 -2.8656 -0.2239  0.2628
28649SOL     OW86524   4.773   1.476   1.069 -0.4022  0.3936 -0.1134
28649SOL    HW186525   4.866   1.496   1.080 -0.0862 -1.1032  0.2567
28649SOL    HW286526   4.772   1.387   1.033 -1.6961 -0.2251  1.3052
28650SOL     OW86527   5.495   6.137   4.498 -0.6153  0.6904  0.1820
28650SOL    HW186528   5.539   6.211   4.541  1.2909  0.4649 -1.2533
28650SOL    HW286529   5.433   6.177   4.437 -0.5731  1.0607  0.3790
28651SOL     OW86530   0.574   9.884   8.114 -0.8079  0.1726 -0.2980
28651SOL    HW186531   0.616   9.847   8.193  2.2936  1.4932 -1.1962
28651SOL    HW286532   0.505   9.821   8.093 -2.0283 -0.0762  3.6027
28652SOL     OW86533   7.144   9.379   4.971  0.6082 -0.0386  0.2957
28652SOL    HW186534   7.191   9.379   4.888  1.5017 -1.2264  0.7628
28652SOL    HW286535   7.064   9.330   4.954  1.2690 -1.1724  0.3623
28653SOL     OW86536   8.253   6.768   6.613  0.3023  0.0156 -0.2867
28653SOL    HW186537   8.184   6.787   6.550 -0.1099 -1.4603 -0.3145
28653SOL    HW286538   8.263   6.850   6.663  0.4807  1.1368 -2.0730
28654SOL     OW86539   1.680   6.663   0.210  0.0718  0.1990 -0.2051
28654SOL    HW186540   1.648   6.743   0.253  0.2513 -0.2769  0.8323
28654SOL    HW286541   1.689   6.688   0.118  1.3694  1.7623  0.2972
28655SOL     OW86542   4.849   7.948   5.155 -0.0699 -0.4269 -0.1840
28655SOL    HW186543   4.913   7.982   5.218  0.2361 -1.1333 -0.1003
28655SOL    HW286544   4.899   7.938   5.074 -0.6527  1.2479 -0.7960
28656SOL     OW86545   7.914   5.602   7.888 -0.4141 -0.9118 -0.1599
28656SOL    HW186546   7.985   5.564   7.835  0.0954 -0.5563  0.2597
28656SOL    HW286547   7.848   5.628   7.824  1.6645  2.8124 -1.0866
28657SOL     OW86548   3.118   5.351   1.066 -0.2481  0.0297  0.1289
28657SOL    HW186549   3.185   5.298   1.108 -0.1701  1.6529  2.1878
28657SOL    HW286550   3.153   5.366   0.977  0.3209 -2.1795 -0.0836
28658SOL     OW86551   8.023   8.638   6.610 -0.2185  0.1799  0.1210
28658SOL    HW186552   7.972   8.718   6.620 -0.6125 -0.0857  0.2932
28658SOL    HW286553   8.061   8.644   6.523 -0.3296  0.5062  0.0925
28659SOL     OW86554   1.410   0.605   9.451 -0.4665  0.1903 -0.0355
28659SOL    HW186555   1.355   0.683   9.461  1.7607  1.5695  3.5138
28659SOL    HW286556   1.490   0.639   9.411  0.4392 -0.2490  1.3472
28660SOL     OW86557   9.679   4.665   5.526 -0.1663 -0.5968  0.1530
28660SOL    HW186558   9.744   4.598   5.506  2.5804  2.3971 -1.8615
28660SOL    HW286559   9.596   4.628   5.496  0.7107 -3.9643  1.4184
28661SOL     OW86560   1.189   3.834   5.305  0.6095 -0.0108 -0.2667
28661SOL    HW186561   1.279   3.809   5.284  0.7153 -0.0444  0.2090
28661SOL    HW286562   1.195   3.926   5.331  1.0821 -0.8334  3.0044
28662SOL     OW86563   6.017   0.379   5.121  0.3031 -0.1007 -0.4899
28662SOL    HW186564   6.007   0.314   5.190  0.9175 -0.5637 -0.8175
28662SOL    HW286565   6.109   0.406   5.127  0.7209 -1.0888 -1.9160
28663SOL     OW86566   3.853   5.355   3.718  0.0952 -0.5055 -0.3263
28663SOL    HW186567   3.757   5.349   3.716  0.0356  0.0891  0.3940
28663SOL    HW286568   3.877   5.318   3.803  0.2498  2.2027  0.9009
28664SOL     OW86569   0.110   6.989   0.196  0.2330  0.0958  0.0510
28664SOL    HW186570   0.201   7.018   0.197 -0.4010  2.2692  0.6617
28664SOL    HW286571   0.108   6.919   0.132  2.4871 -0.6020  0.6391
28665SOL     OW86572   0.617   6.760   7.614 -0.0945 -0.1927 -0.4595
28665SOL    HW186573   0.619   6.779   7.708 -1.5284  0.5315 -0.5460
28665SOL    HW286574   0.702   6.721   7.596 -0.3482 -1.8309  1.4520
28666SOL     OW86575   5.780   0.413   0.747  0.5550  0.0042 -0.0796
28666SOL    HW186576   5.777   0.487   0.807 -0.5052  0.0742 -0.1918
28666SOL    HW286577   5.792   0.337   0.803  2.2053  0.2932 -0.0102
28667SOL     OW86578   2.030   7.510   5.185  0.1803 -0.0374 -0.7032
28667SOL    HW186579   2.098   7.447   5.212  0.2510  0.3482  0.0610
28667SOL    HW286580   2.000   7.549   5.267 -1.8976 -1.1056 -0.8866
28668SOL     OW86581   2.268   4.039   0.926  0.5108 -0.0218  0.2099
28668SOL    HW186582   2.342   4.099   0.927  0.6891 -0.0149  4.1583
28668SOL    HW286583   2.211   4.072   0.856  3.3187  1.0112 -1.7698
28669SOL     OW86584   4.706   5.273   4.835  0.5360 -0.2329 -0.0681
28669SOL    HW186585   4.751   5.190   4.848  0.7861 -0.1056 -0.1053
28669SOL    HW286586   4.774   5.331   4.800  0.4718  0.1125  0.3716
28670SOL     OW86587   2.331   0.099   9.546 -0.2637 -0.3061 -0.1417
28670SOL    HW186588   2.281   0.130   9.470  0.5092  0.3714 -0.3880
28670SOL    HW286589   2.268   0.048   9.597 -0.9498 -0.2746 -0.9327
28671SOL     OW86590   7.978   9.532   0.468  0.2619  0.4637 -0.2394
28671SOL    HW186591   7.926   9.483   0.532 -0.0240  1.4621  0.3092
28671SOL    HW286592   7.985   9.472   0.393  0.4471 -0.6482  0.6309
28672SOL     OW86593   8.976   0.872   7.812  0.2035  0.2099  0.0465
28672SOL    HW186594   8.919   0.819   7.757  0.8987  0.7473 -1.2328
28672SOL    HW286595   8.927   0.953   7.827 -0.6999 -0.5936  1.6871
28673SOL     OW86596   7.605   0.934   7.828 -0.2881 -0.0221  0.0101
28673SOL    HW186597   7.695   0.941   7.860 -0.6107  1.0026  0.7588
28673SOL    HW286598   7.613   0.933   7.733  0.4677  1.4132  0.0225
28674SOL     OW86599   0.292   2.428   1.218 -0.8428 -0.4326  0.0755
28674SOL    HW186600   0.307   2.334   1.204 -2.9796 -0.6603 -1.0919
28674SOL    HW286601   0.209   2.432   1.266  0.0406  0.8390  1.5704
28675SOL     OW86602   5.270   7.049   9.377  0.1913 -0.7000 -0.3298
28675SOL    HW186603   5.365   7.055   9.377  0.2550 -0.8197 -2.5895
28675SOL    HW286604   5.245   7.054   9.284 -2.0623  0.1306  0.2483
28676SOL     OW86605   4.295   3.974   5.479 -0.2774  0.0541 -0.1472
28676SOL    HW186606   4.263   3.885   5.495 -1.9890  0.5693 -0.4878
28676SOL    HW286607   4.304   3.979   5.384  0.0536  0.1778 -0.1099
28677SOL     OW86608   6.979   3.619   6.264 -0.1007  0.6681  0.5301
28677SOL    HW186609   6.900   3.649   6.309 -0.7373 -1.8969  1.3206
28677SOL    HW286610   6.970   3.523   6.261  2.3733  0.3846 -0.5272
28678SOL     OW86611   5.521   9.052   9.296  0.5173  0.0726  0.3081
28678SOL    HW186612   5.509   9.132   9.347  3.2710  0.1267  1.0403
28678SOL    HW286613   5.456   8.991   9.331  1.9507  0.2525  3.7284
28679SOL     OW86614   1.736   4.064   0.077 -0.6145  0.3476  0.1431
28679SOL    HW186615   1.807   4.093   0.019 -0.5046 -1.3874 -0.6386
28679SOL    HW286616   1.776   4.062   0.164 -0.0656  0.6005 -0.0958
28680SOL     OW86617   2.994   3.295   8.946 -0.4234 -0.4423 -0.0578
28680SOL    HW186618   2.927   3.364   8.946 -0.3351 -0.3398 -1.4859
28680SOL    HW286619   2.956   3.225   9.000 -0.9517  0.2911  0.5482
28681SOL     OW86620   4.993   5.118   8.506 -0.2879  0.1881  0.3174
28681SOL    HW186621   4.945   5.195   8.476  0.2074  0.7439  0.9392
28681SOL    HW286622   5.082   5.131   8.474 -0.0371  0.2126  1.0218
28682SOL     OW86623   0.712   0.858   2.969  0.0791 -0.2111 -0.4939
28682SOL    HW186624   0.795   0.835   3.009  0.1978 -0.9525 -1.1359
28682SOL    HW286625   0.703   0.952   2.983 -0.5458 -0.6122  2.4824
28683SOL     OW86626   2.825   7.170   8.385 -0.1218  0.0477  0.0844
28683SOL    HW186627   2.878   7.207   8.455  0.8960  0.2814 -0.7794
28683SOL    HW286628   2.871   7.091   8.358 -0.8254 -0.3724  0.0661
28684SOL     OW86629   8.200   7.612   1.026 -0.3024 -0.6267  0.4971
28684SOL    HW186630   8.172   7.532   0.983  0.5769 -0.4824 -0.3946
28684SOL    HW286631   8.188   7.681   0.960 -0.4708 -0.1270  1.0381
28685SOL     OW86632   0.507   1.212   4.325 -0.0728  0.7581 -0.1182
28685SOL    HW186633   0.434   1.182   4.271  0.5165  0.9886 -1.0595
28685SOL    HW286634   0.529   1.137   4.380 -0.0047  0.1758 -0.9336
28686SOL     OW86635   2.160   7.248   5.520 -0.6971 -0.3093 -0.5347
28686SOL    HW186636   2.069   7.228   5.540 -0.8730  0.5513 -0.4130
28686SOL    HW286637   2.185   7.314   5.585  0.3709 -1.3484  0.1582
28687SOL     OW86638   4.158   5.583   3.409 -0.3377  0.7211  0.1123
28687SOL    HW186639   4.204   5.530   3.344  0.9531  2.9160 -0.8662
28687SOL    HW286640   4.146   5.524   3.484  3.2758 -0.3109  0.0791
28688SOL     OW86641   8.478   3.373   6.214  0.5637  0.5004  0.0791
28688SOL    HW186642   8.475   3.430   6.291 -0.0670  2.9751 -1.6242
28688SOL    HW286643   8.571   3.364   6.195  0.6882  2.4446 -0.5209
28689SOL     OW86644   9.847   5.210   0.697  0.2060  0.0278 -0.6331
28689SOL    HW186645   9.777   5.230   0.760  1.6403 -1.5062  1.6094
28689SOL    HW286646   9.823   5.124   0.661  1.3940 -1.0205  0.9629
28690SOL     OW86647   4.293   7.893   8.908  0.5732  0.4003 -0.3371
28690SOL    HW186648   4.298   7.940   8.824 -0.3734  2.4190  0.6610
28690SOL    HW286649   4.351   7.818   8.896 -0.3221  0.0198 -3.1431
28691SOL     OW86650   2.316   6.472   2.596  0.2117 -1.0630 -0.1116
28691SOL    HW186651   2.367   6.399   2.630  0.5934 -1.5241 -1.6039
28691SOL    HW286652   2.329   6.469   2.501 -0.9172  0.0770 -0.3385
28692SOL     OW86653   4.896   0.117   3.983 -0.2193 -0.1112  0.6666
28692SOL    HW186654   4.943   0.124   4.066  2.7436  0.1740 -0.8689
28692SOL    HW286655   4.864   0.205   3.966  2.5268  0.8546 -0.1560
28693SOL     OW86656   4.695   2.961   2.816  0.6183  0.0722 -0.0548
28693SOL    HW186657   4.711   2.908   2.893 -1.3067  0.9342  1.0282
28693SOL    HW286658   4.765   3.027   2.816  1.5916 -0.9469 -0.0216
28694SOL     OW86659   6.729   0.678   4.048 -0.2521  0.4596 -0.2045
28694SOL    HW186660   6.804   0.636   4.089 -0.6798 -1.2636 -1.0802
28694SOL    HW286661   6.663   0.684   4.117 -0.3330 -0.7493 -0.1583
28695SOL     OW86662   4.318   2.820   9.210 -0.1906 -0.3192  0.9241
28695SOL    HW186663   4.335   2.799   9.118  1.6367  2.9175  0.3548
28695SOL    HW286664   4.397   2.793   9.256 -0.3313 -0.2319  1.2208
28696SOL     OW86665   3.596   3.442   6.356 -0.0956 -0.6990 -0.4000
28696SOL    HW186666   3.579   3.395   6.437  0.8114 -0.9431 -0.3442
28696SOL    HW286667   3.685   3.418   6.332 -1.2096 -2.7903 -2.9301
28697SOL     OW86668   6.066   1.854   7.485 -0.2051 -0.2091 -0.2095
28697SOL    HW186669   6.055   1.939   7.527 -1.1586 -0.2392 -0.3638
28697SOL    HW286670   6.076   1.792   7.558 -1.0792 -0.1584 -0.0278
28698SOL     OW86671   1.058   5.823   9.976 -0.0354  0.2045 -0.1770
28698SOL    HW186672   1.004   5.743   9.976 -0.2843  0.3034  2.3199
28698SOL    HW286673   1.136   5.799   9.925 -0.8280 -1.0907 -0.8388
28699SOL     OW86674   1.884   5.981   0.637 -0.0305 -0.3322 -0.2865
28699SOL    HW186675   1.798   6.007   0.604  0.1864  0.5481 -0.1788
28699SOL    HW286676   1.945   6.043   0.597  0.5111 -0.7004 -0.0475
28700SOL     OW86677   4.295   6.967   2.240 -0.2673  0.0224  0.3701
28700SOL    HW186678   4.254   6.888   2.275  0.5368 -0.9480 -0.7957
28700SOL    HW286679   4.288   6.958   2.145 -0.5985  1.6060  0.2109
28701SOL     OW86680   3.634   1.053   0.584 -0.1674 -0.1732  0.2827
28701SOL    HW186681   3.629   1.141   0.620  1.1883 -0.0847  0.2849
28701SOL    HW286682   3.720   1.048   0.541 -1.5006 -0.3941 -2.6261
28702SOL     OW86683   2.387   7.827   4.936  0.0665 -0.0424 -0.1342
28702SOL    HW186684   2.297   7.793   4.931  0.0492  0.0678 -0.6336
28702SOL    HW286685   2.399   7.874   4.854  0.6852 -0.3042 -0.1968
28703SOL     OW86686   3.364   8.977   7.504  0.7321 -0.5365  0.3605
28703SOL    HW186687   3.341   9.024   7.424 -0.4217 -0.3435  0.7812
28703SOL    HW286688   3.393   9.044   7.565 -1.1304 -0.2716  1.0372
28704SOL     OW86689   5.580   2.247   2.040 -0.2484 -0.2116 -0.7401
28704SOL    HW186690   5.520   2.322   2.044  1.7221  1.4109  0.6501
28704SOL    HW286691   5.571   2.205   2.125 -1.8434 -2.0674 -1.7539
28705SOL     OW86692   4.717   0.546   2.227  0.1126  0.2072 -0.3785
28705SOL    HW186693   4.751   0.494   2.300 -2.0382 -0.7064  0.0500
28705SOL    HW286694   4.794   0.587   2.189  1.5519 -1.0200  1.0647
28706SOL     OW86695   1.241   6.405   1.467  0.3446  0.2440 -0.6565
28706SOL    HW186696   1.176   6.360   1.521  0.6341  0.0687 -0.4470
28706SOL    HW286697   1.278   6.336   1.412  2.2510 -0.2413  1.0926
28707SOL     OW86698   3.894   6.612   5.456 -0.9353 -0.1374  0.3192
28707SOL    HW186699   3.891   6.623   5.551 -0.8437 -2.1984  0.6082
28707SOL    HW286700   3.804   6.626   5.427 -0.7517  1.6959  0.5120
28708SOL     OW86701   3.239   6.184   8.782  0.0147  0.0886  0.3546
28708SOL    HW186702   3.173   6.154   8.720  0.0179  0.1547  0.3193
28708SOL    HW286703   3.250   6.111   8.843  0.8913 -0.4616 -0.4410
28709SOL     OW86704   2.924   1.258   8.686 -0.0668  0.6988  0.1083
28709SOL    HW186705   2.857   1.322   8.659 -0.4879  0.7225  1.1812
28709SOL    HW286706   2.883   1.173   8.669  0.3641  0.6934 -0.9987
28710SOL     OW86707   2.126   8.602   5.020 -0.2246  0.6620  0.4605
28710SOL    HW186708   2.056   8.635   4.963 -1.2331 -0.4727  0.9881
28710SOL    HW286709   2.199   8.587   4.960 -0.5202  1.5874 -0.1615
28711SOL     OW86710   1.965   6.428   0.615 -0.3564  0.2379 -0.0309
28711SOL    HW186711   1.960   6.492   0.686 -1.1627 -1.0372  1.1307
28711SOL    HW286712   1.957   6.343   0.659 -1.5979 -0.5884 -1.6969
28712SOL     OW86713   6.616   7.398   2.260  0.1249  0.0388  0.1466
28712SOL    HW186714   6.591   7.489   2.246 -1.7012 -0.7906 -2.7389
28712SOL    HW286715   6.712   7.397   2.250  0.4861  1.9295  2.6512
28713SOL     OW86716   6.583   3.062   7.739  0.1600 -0.5623  0.1444
28713SOL    HW186717   6.524   3.125   7.781  0.2995 -0.1873 -0.2097
28713SOL    HW286718   6.653   3.116   7.703 -1.2646 -0.5327 -2.8753
28714SOL     OW86719   3.537   6.444   3.022 -0.3103  0.2327 -0.0754
28714SOL    HW186720   3.556   6.350   3.026  1.7168  0.6186  0.6503
28714SOL    HW286721   3.525   6.469   3.113 -1.6989  0.5515 -0.3284
28715SOL     OW86722   6.472   0.500   6.698 -0.3612  0.6488 -0.0622
28715SOL    HW186723   6.430   0.422   6.735 -0.6435  0.1536 -1.3901
28715SOL    HW286724   6.400   0.550   6.660  0.0319  0.6954 -0.7506
28716SOL     OW86725   2.836   9.649   5.357 -0.4437  0.1454 -0.1229
28716SOL    HW186726   2.837   9.745   5.363 -0.5848  0.1231  0.2482
28716SOL    HW286727   2.898   9.620   5.424  0.4655  0.0126 -0.9969
28717SOL     OW86728   3.493   5.859   7.043  0.3397 -0.2353  0.3729
28717SOL    HW186729   3.521   5.918   7.112  0.6421  1.3406 -1.0292
28717SOL    HW286730   3.460   5.782   7.089 -0.0512  0.9981  2.2780
28718SOL     OW86731   1.635   6.258   0.918 -0.6979 -0.7038 -0.4616
28718SOL    HW186732   1.716   6.277   0.871  0.7088 -1.1584  1.6967
28718SOL    HW286733   1.653   6.177   0.966 -2.4893 -0.8841 -0.0290
28719SOL     OW86734   1.187   3.076   7.747 -0.2682 -0.0859 -0.4068
28719SOL    HW186735   1.175   3.109   7.836  0.3058  0.3116 -0.4728
28719SOL    HW286736   1.280   3.087   7.729 -0.2738 -0.6836 -0.8583
28720SOL     OW86737   0.887   4.041   5.388 -0.2609 -0.1125  0.0216
28720SOL    HW186738   0.947   3.995   5.448 -0.6161  1.4977  1.6963
28720SOL    HW286739   0.800   4.024   5.424 -0.3275  3.0300  1.6635
28721SOL     OW86740   6.684   2.513   4.443  0.0327  0.8534 -1.0880
28721SOL    HW186741   6.726   2.519   4.357  0.2529  0.2016 -1.0305
28721SOL    HW286742   6.636   2.596   4.452  0.2125  1.0330 -1.7272
28722SOL     OW86743   4.923   2.739   6.896 -0.1472  0.2279  0.2432
28722SOL    HW186744   4.859   2.674   6.924 -2.2491  1.5668 -1.1646
28722SOL    HW286745   4.923   2.805   6.966  1.3615 -0.8194  1.2716
28723SOL     OW86746   2.277   0.781   2.057  0.3069 -0.0785 -0.1811
28723SOL    HW186747   2.338   0.735   2.000 -1.6841 -3.0695 -0.0996
28723SOL    HW286748   2.234   0.844   2.000  1.5059  0.1655 -0.8577
28724SOL     OW86749   4.713   5.007   8.531  0.5323 -0.0378 -0.0589
28724SOL    HW186750   4.792   5.061   8.538  1.2229 -1.2173  2.2640
28724SOL    HW286751   4.746   4.917   8.529 -0.7290 -0.5156 -0.2408
28725SOL     OW86752   3.951   7.698   7.768  0.1642 -0.5274 -0.4970
28725SOL    HW186753   4.034   7.697   7.719  1.7074 -1.0788  1.9530
28725SOL    HW286754   3.975   7.729   7.855 -2.5104  0.6608 -0.0922
28726SOL     OW86755   3.995   3.100   4.318 -0.4047 -0.0413 -0.3552
28726SOL    HW186756   4.033   3.115   4.405  2.9782 -2.8173 -1.1373
28726SOL    HW286757   3.904   3.076   4.335  0.7660 -3.0605  2.7908
28727SOL     OW86758   2.860   8.221   6.100 -0.2286 -0.6768 -0.3281
28727SOL    HW186759   2.785   8.279   6.085 -0.1592 -0.7949 -1.1604
28727SOL    HW286760   2.915   8.232   6.023  1.3983  0.5489  0.9271
28728SOL     OW86761   2.679   0.667   8.754 -0.0578  0.2719 -0.0167
28728SOL    HW186762   2.737   0.730   8.796  0.5920 -0.6643  0.5514
28728SOL    HW286763   2.598   0.671   8.805  0.3279 -0.0428  0.6415
28729SOL     OW86764   1.038   4.529   9.436  0.1535  0.1277  0.0590
28729SOL    HW186765   0.955   4.515   9.391  0.4266 -0.5925 -0.2524
28729SOL    HW286766   1.028   4.612   9.482  0.5108  1.9357 -2.8450
28730SOL     OW86767   7.535   0.149   1.490  0.0496 -0.3240 -0.3342
28730SOL    HW186768   7.529   0.131   1.584 -0.7735 -0.5930 -0.4307
28730SOL    HW286769   7.588   0.228   1.484  0.1211 -0.3138  0.3590
28731SOL     OW86770   1.411   1.108   7.271  0.0078 -0.2739  0.1903
28731SOL    HW186771   1.493   1.067   7.245  0.6588  1.4228 -0.6070
28731SOL    HW286772   1.435   1.199   7.290 -1.3340 -0.2643  2.0495
28732SOL     OW86773   8.181   6.785   5.490  0.2546  0.7179 -0.3521
28732SOL    HW186774   8.249   6.720   5.510 -0.1612 -0.5997 -2.7152
28732SOL    HW286775   8.225   6.869   5.498  1.9025 -0.0526 -0.8231
28733SOL     OW86776   0.142   7.400   4.960 -0.0005 -0.1670 -0.2984
28733SOL    HW186777   0.184   7.319   4.929 -1.0147 -2.0130  2.7369
28733SOL    HW286778   0.051   7.392   4.932 -0.2482 -0.4179  0.5540
28734SOL     OW86779   9.489   7.979   7.625  0.3958  0.2259  0.2797
28734SOL    HW186780   9.556   7.929   7.579  0.1419  1.5867 -1.6931
28734SOL    HW286781   9.446   8.031   7.557 -0.7297  1.5672  1.9124
28735SOL     OW86782   6.016   0.826   1.553 -0.1808 -0.4458  0.4623
28735SOL    HW186783   6.087   0.819   1.489 -0.6766 -0.5511 -0.0839
28735SOL    HW286784   6.028   0.751   1.610  0.3092 -0.3118  0.5478
28736SOL     OW86785   8.307   7.319   0.580 -0.3498 -0.0598  0.5480
28736SOL    HW186786   8.310   7.273   0.496  2.7765  0.2353  0.3902
28736SOL    HW286787   8.306   7.412   0.556  2.7031  0.1158  0.6601
28737SOL     OW86788   8.692   1.139   4.166  0.4816  0.1718  0.0386
28737SOL    HW186789   8.783   1.131   4.195  1.1821  2.0592 -1.4074
28737SOL    HW286790   8.697   1.136   4.070 -1.2307 -1.5884 -0.0415
28738SOL     OW86791   1.106   6.963   9.607  0.1300  0.0149 -0.5839
28738SOL    HW186792   1.129   7.024   9.537 -1.7393  1.3164 -0.1499
28738SOL    HW286793   1.041   6.904   9.567 -1.6297  1.3236  0.2072
28739SOL     OW86794   8.274   5.680   4.513  0.0742  0.1566 -0.1823
28739SOL    HW186795   8.324   5.759   4.532 -0.1802  0.1200  0.6722
28739SOL    HW286796   8.214   5.671   4.587 -1.2025  0.2081 -1.1774
28740SOL     OW86797   0.889   4.175   1.814 -0.2466  0.0396  0.0393
28740SOL    HW186798   0.841   4.234   1.872 -0.1512  0.1851 -0.0289
28740SOL    HW286799   0.889   4.219   1.729  0.0476  0.0626  0.0505
28741SOL     OW86800   1.762   6.058   1.068  0.5837 -0.2490  0.4690
28741SOL    HW186801   1.755   6.091   1.158  0.3769  0.7472  0.0989
28741SOL    HW286802   1.736   5.966   1.074  1.7521 -0.5509  1.6413
28742SOL     OW86803   4.814   7.822   3.997  0.2649 -0.8018  0.0648
28742SOL    HW186804   4.750   7.793   3.932  0.8900 -0.9928 -0.4858
28742SOL    HW286805   4.895   7.776   3.972  0.3771 -1.2974  1.3111
28743SOL     OW86806   5.860   2.944   2.112  0.1297  0.1376  0.7171
28743SOL    HW186807   5.807   2.867   2.093  0.2668  0.2735 -0.2665
28743SOL    HW286808   5.800   3.018   2.096 -0.0392  0.2443  1.7674
28744SOL     OW86809   3.999   1.093   8.887  0.4750  0.0233  0.4285
28744SOL    HW186810   4.083   1.138   8.896  1.2977 -1.5540  0.9494
28744SOL    HW286811   3.965   1.088   8.976 -0.1321  0.5359  0.2358
28745SOL     OW86812   2.484   3.127   8.907 -0.2336  0.3744  0.3791
28745SOL    HW186813   2.480   3.212   8.862  0.3852  0.1992 -0.0161
28745SOL    HW286814   2.577   3.114   8.923 -0.2577 -0.5830 -0.2211
28746SOL     OW86815   2.716   9.681   6.827  0.2464 -0.8483 -0.1548
28746SOL    HW186816   2.627   9.656   6.803 -0.4989  1.5156 -0.0992
28746SOL    HW286817   2.708   9.713   6.917  0.7049  1.2870 -0.8196
28747SOL     OW86818   4.607   1.671   7.358  0.2997 -0.5448 -0.4561
28747SOL    HW186819   4.591   1.660   7.264 -0.2054 -0.2270 -0.4116
28747SOL    HW286820   4.596   1.765   7.373 -0.2790 -0.6858  0.0395
28748SOL     OW86821   8.028   3.147   6.287  0.7691  0.2251 -0.4714
28748SOL    HW186822   8.104   3.146   6.345 -0.2052 -1.0284  0.8503
28748SOL    HW286823   8.039   3.070   6.231 -0.2073 -0.7808  0.6845
28749SOL     OW86824   0.709   1.918   1.079  0.0421 -0.3135  0.1228
28749SOL    HW186825   0.664   1.970   1.145  1.9516 -1.2845  2.3244
28749SOL    HW286826   0.738   1.840   1.125  1.7401 -0.9065 -1.7895
28750SOL     OW86827   3.437   1.820   1.843 -0.1896 -0.3267 -0.2113
28750SOL    HW186828   3.367   1.760   1.815  0.6091 -1.2683 -0.2219
28750SOL    HW286829   3.395   1.875   1.910 -0.7897 -1.2848  0.2294
28751SOL     OW86830   1.943   5.212   1.631 -0.4531  0.4601  0.0269
28751SOL    HW186831   1.993   5.250   1.703 -0.2749  0.8316 -0.2923
28751SOL    HW286832   1.851   5.219   1.660 -0.3142 -0.6464  0.8150
28752SOL     OW86833   6.303   0.698   9.667 -0.4746 -0.1222 -0.0261
28752SOL    HW186834   6.227   0.718   9.721  0.0250  0.8167  0.3676
28752SOL    HW286835   6.358   0.777   9.673 -0.3659 -0.0144 -1.8409
28753SOL     OW86836   3.005   6.143   0.205  0.6640 -0.3927 -0.5142
28753SOL    HW186837   3.087   6.142   0.155  0.7028  2.3526 -0.6370
28753SOL    HW286838   3.026   6.100   0.287  2.8196  1.8106  0.2021
28754SOL     OW86839   1.435   7.931   4.333 -0.0141 -0.4103  0.2317
28754SOL    HW186840   1.452   7.931   4.239  0.0365  0.2533  0.2332
28754SOL    HW286841   1.426   8.024   4.356  1.4127 -0.4601  1.1295
28755SOL     OW86842   8.822   8.639   0.654  0.0580  0.0292  0.2899
28755SOL    HW186843   8.846   8.640   0.561 -0.2637  1.0719  0.2054
28755SOL    HW286844   8.749   8.578   0.659  1.5921 -1.9248  0.2830
28756SOL     OW86845   5.695   1.566   9.795 -0.2160 -0.2177  0.0636
28756SOL    HW186846   5.777   1.614   9.786  0.1282 -0.7241  0.4691
28756SOL    HW286847   5.715   1.478   9.764 -0.6374 -0.3159  0.0580
28757SOL     OW86848   4.302   5.973   8.514 -0.3015  0.0526 -0.4703
28757SOL    HW186849   4.319   5.955   8.606  1.9022  0.8858 -0.6572
28757SOL    HW286850   4.260   5.894   8.481 -0.4593 -0.5335  1.0713
28758SOL     OW86851   0.329   0.100   1.296 -0.6952  0.4796  0.9292
28758SOL    HW186852   0.263   0.162   1.266 -0.9498  1.1721  2.8007
28758SOL    HW286853   0.393   0.153   1.342  0.4428 -0.3596  0.3570
28759SOL     OW86854   9.321   9.946   3.680  0.4258 -1.0010 -0.2442
28759SOL    HW186855   9.240   9.920   3.636 -0.8539  0.7629  0.9413
28759SOL    HW286856   9.383   9.962   3.609 -1.1124  0.3140 -1.3524
28760SOL     OW86857   8.479   3.997   7.822 -0.6820  0.2205 -0.1144
28760SOL    HW186858   8.487   4.087   7.854  0.2816 -0.2295  0.9931
28760SOL    HW286859   8.461   4.007   7.729  0.2831  1.5683 -0.1973
28761SOL     OW86860   9.130   8.723   4.643 -0.1843 -0.3109 -0.3078
28761SOL    HW186861   9.078   8.790   4.598  0.2646 -0.9108 -1.7694
28761SOL    HW286862   9.153   8.764   4.727 -1.4206  0.6698 -0.4112
28762SOL     OW86863   8.154   5.141   5.936 -0.0663 -0.0584 -0.5120
28762SOL    HW186864   8.066   5.170   5.958  0.1330  0.6116 -0.5915
28762SOL    HW286865   8.212   5.188   5.996  0.3328  0.4212 -1.2503
28763SOL     OW86866   0.912   9.367   3.045 -0.2982 -0.2641 -0.6078
28763SOL    HW186867   0.846   9.397   2.983 -0.5203  0.9003  0.1605
28763SOL    HW286868   0.993   9.363   2.994 -0.4683  0.6905 -0.9794
28764SOL     OW86869   6.114   3.515   3.949  0.3596  0.5895 -0.8448
28764SOL    HW186870   6.181   3.522   4.017  1.0537  0.7318 -1.5323
28764SOL    HW286871   6.121   3.425   3.918 -1.1280 -0.0181  0.4321
28765SOL     OW86872   1.040   3.290   9.650  0.2189 -0.2308  0.2787
28765SOL    HW186873   1.077   3.220   9.705 -0.7770  0.9771  2.6583
28765SOL    HW286874   1.077   3.370   9.686 -0.4210  0.6263 -0.9048
28766SOL     OW86875   5.735   9.317   6.387  0.1445 -0.3990  0.5656
28766SOL    HW186876   5.809   9.356   6.435  0.5893  0.6927 -0.9309
28766SOL    HW286877   5.732   9.366   6.305 -2.1124 -0.5701  0.4859
28767SOL     OW86878   1.195   0.120   3.134 -0.0453 -0.1667  0.3336
28767SOL    HW186879   1.106   0.155   3.139  0.8309  2.1465  1.1232
28767SOL    HW286880   1.210   0.106   3.041  0.4621  4.5046 -0.5319
28768SOL     OW86881   8.767   1.681   4.834  0.0373 -0.1798 -0.0495
28768SOL    HW186882   8.699   1.692   4.900  0.0082  2.0878 -0.3625
28768SOL    HW286883   8.849   1.677   4.883 -0.2129 -2.7611  0.3184
28769SOL     OW86884   5.502   6.786   8.517  0.5571 -0.0803  0.8291
28769SOL    HW186885   5.425   6.751   8.560 -0.1120 -0.8566 -0.9123
28769SOL    HW286886   5.478   6.876   8.494  0.4964 -0.0392  1.0564
28770SOL     OW86887   2.266   5.936   9.246  0.4176 -0.1290  0.5306
28770SOL    HW186888   2.180   5.922   9.207  0.6302 -1.0129  0.3657
28770SOL    HW286889   2.248   5.988   9.324 -0.1186  0.7967 -0.1872
28771SOL     OW86890   0.716   2.794   3.395  0.0593  0.4030 -0.3725
28771SOL    HW186891   0.638   2.835   3.356 -0.7852 -1.0362 -0.2632
28771SOL    HW286892   0.723   2.709   3.352  0.5503 -0.1976  0.8563
28772SOL     OW86893   9.801   1.290   0.947 -0.2674  0.4091  0.0642
28772SOL    HW186894   9.805   1.319   1.038  1.2047  0.8664 -0.1252
28772SOL    HW286895   9.829   1.366   0.896 -0.4212 -0.0473 -0.7289
28773SOL     OW86896   5.275   1.765   3.870  0.1126  0.4093  0.3948
28773SOL    HW186897   5.236   1.840   3.827  2.0518  2.4115  1.8714
28773SOL    HW286898   5.256   1.778   3.963  0.9971 -0.6135  0.7456
28774SOL     OW86899   0.031   3.578   6.584 -0.3868 -0.1851  0.0387
28774SOL    HW186900   0.089   3.628   6.526 -1.7059  2.4349  0.8090
28774SOL    HW286901   0.008   3.500   6.534  2.7197 -0.7256 -0.7738
28775SOL     OW86902   0.901   0.603   2.034 -0.3947 -0.2196  0.5882
28775SOL    HW186903   0.848   0.523   2.028 -0.8224  0.0490  0.7031
28775SOL    HW286904   0.906   0.621   2.128  0.1145 -0.3779  0.5952
28776SOL     OW86905   3.237   1.277   5.899 -0.3887 -0.1676  0.2904
28776SOL    HW186906   3.176   1.349   5.907  0.4547  0.4578  1.3144
28776SOL    HW286907   3.182   1.198   5.894 -1.3447  0.5551 -1.4997
28777SOL     OW86908   8.065   1.546   9.576 -0.3071  0.4804  0.3357
28777SOL    HW186909   8.023   1.505   9.652 -1.9418  0.3007 -0.6068
28777SOL    HW286910   8.082   1.636   9.603  1.3452 -0.2132  1.7069
28778SOL     OW86911   9.425   6.097   4.093  0.3267 -0.1125  0.1652
28778SOL    HW186912   9.343   6.117   4.137 -0.5336 -2.0181 -0.4750
28778SOL    HW286913   9.405   6.099   4.000  0.8857 -0.9594  0.0084
28779SOL     OW86914   9.376   8.016   4.831 -0.1052  0.2602 -0.0544
28779SOL    HW186915   9.389   8.111   4.835  0.0855  0.3376 -1.7092
28779SOL    HW286916   9.281   8.005   4.837 -0.1467  0.5723 -0.1080
28780SOL     OW86917   7.206   6.389   1.100 -0.1774  0.4156 -0.0975
28780SOL    HW186918   7.175   6.411   1.188  2.1687 -0.2372  0.9744
28780SOL    HW286919   7.157   6.447   1.042 -1.2683  1.3911  1.7118
28781SOL     OW86920   2.246   0.021   1.674  0.4910 -0.2111  0.6566
28781SOL    HW186921   2.302   0.098   1.683 -0.5678  0.5616  0.8371
28781SOL    HW286922   2.160   0.056   1.653  0.2062 -1.4063 -0.3062
28782SOL     OW86923   6.118   8.479   4.191 -0.0828 -0.2453 -0.0924
28782SOL    HW186924   6.162   8.394   4.187 -0.1767 -0.5471  2.7669
28782SOL    HW286925   6.061   8.480   4.115  1.7806 -1.6180 -1.6021
28783SOL     OW86926   0.071   4.482   9.566 -0.7133 -0.0089 -0.4942
28783SOL    HW186927   0.022   4.554   9.605  0.7243 -0.1089  1.6379
28783SOL    HW286928   0.111   4.437   9.640  2.1250 -0.2752 -2.0557
28784SOL     OW86929   9.509   1.484   5.888  0.4096 -0.0616  0.2212
28784SOL    HW186930   9.493   1.508   5.797  0.7254 -2.4045 -0.5011
28784SOL    HW286931   9.421   1.475   5.926  0.1588  4.3056  1.2690
28785SOL     OW86932   2.114   8.208   2.430 -0.3081  0.1198  0.5137
28785SOL    HW186933   2.031   8.161   2.418 -0.2056 -0.1418  0.8266
28785SOL    HW286934   2.176   8.140   2.455  0.1314  0.2274 -0.2602
28786SOL     OW86935   6.135   7.883   9.746  0.3262 -0.3661  0.1700
28786SOL    HW186936   6.184   7.899   9.666 -1.1493 -1.2676 -0.9823
28786SOL    HW286937   6.196   7.902   9.816  2.0121 -0.5803 -1.1728
28787SOL     OW86938   7.361   1.136   8.161 -0.6795 -0.2747  0.1844
28787SOL    HW186939   7.278   1.181   8.179 -0.8688 -0.9673  1.1952
28787SOL    HW286940   7.382   1.092   8.244  0.9680  0.2893  0.1022
28788SOL     OW86941   1.166   5.303   4.927  0.0287  0.3568 -0.0050
28788SOL    HW186942   1.231   5.273   4.865 -1.3602 -1.5011 -0.6723
28788SOL    HW286943   1.216   5.333   5.003  1.7217  2.0268 -1.6946
28789SOL     OW86944   9.738   8.047   4.707 -0.4092  0.0753  0.3734
28789SOL    HW186945   9.720   8.111   4.637 -0.5557  0.7532  1.0208
28789SOL    HW286946   9.683   7.972   4.684 -0.4192  0.2701 -0.2703
28790SOL     OW86947   6.696   8.676   5.205 -0.0899  0.4976 -0.0306
28790SOL    HW186948   6.708   8.598   5.259  0.3718  1.1373  0.8257
28790SOL    HW286949   6.770   8.675   5.145 -1.0985 -0.7092 -1.3159
28791SOL     OW86950   3.855   8.980   0.894  0.1876 -0.0690  0.3130
28791SOL    HW186951   3.931   8.957   0.840 -1.3036 -0.6861 -1.6571
28791SOL    HW286952   3.834   9.070   0.868 -1.0941 -0.6775 -0.9613
28792SOL     OW86953   2.059   3.103   5.915  0.4570 -0.1553  0.1481
28792SOL    HW186954   2.084   3.144   5.998  1.4818  0.0222 -0.2296
28792SOL    HW286955   2.131   3.123   5.856 -1.3679  1.8135 -1.5369
28793SOL     OW86956   0.570   5.832   8.974  0.1624 -0.2692  0.1985
28793SOL    HW186957   0.559   5.739   8.994  0.8620 -0.6144 -0.9088
28793SOL    HW286958   0.661   5.850   8.996  0.3710 -0.1599 -0.7251
28794SOL     OW86959   9.575   9.305   6.850  0.4635 -0.3719  0.0796
28794SOL    HW186960   9.510   9.357   6.802 -0.4514 -0.8352  0.7942
28794SOL    HW286961   9.629   9.371   6.895  1.6261  0.0959 -1.8830
28795SOL     OW86962   9.965   8.429   7.564  0.1997 -0.3304  0.0908
28795SOL    HW186963   9.954   8.523   7.575 -1.3507 -0.4747  0.0130
28795SOL    HW286964   9.877   8.393   7.572  0.8903 -1.9235  1.3639
28796SOL     OW86965   4.648   6.548   9.441  0.4079 -0.3767 -0.0613
28796SOL    HW186966   4.573   6.492   9.464  1.2965 -1.9083 -0.7011
28796SOL    HW286967   4.676   6.585   9.525 -0.0872 -1.0691  0.4298
28797SOL     OW86968   7.918   9.652   3.894  0.2826 -0.0373 -0.2715
28797SOL    HW186969   8.012   9.673   3.892 -0.1096  2.2233  1.2610
28797SOL    HW286970   7.910   9.585   3.961  0.8415 -0.5639 -0.7219
28798SOL     OW86971   7.755   1.940   5.461  0.2623  0.0748  0.2010
28798SOL    HW186972   7.744   1.864   5.404  1.0591  1.4185 -1.8526
28798SOL    HW286973   7.674   1.943   5.512 -0.1221 -1.6545 -0.2298
28799SOL     OW86974   4.668   7.628   9.665 -0.1719 -0.0550 -0.3008
28799SOL    HW186975   4.625   7.615   9.580  0.1063 -0.6687 -0.3584
28799SOL    HW286976   4.637   7.713   9.695 -2.1141 -0.8291  0.0599
28800SOL     OW86977   4.507   1.523   9.227 -0.2690  0.4326 -0.2098
28800SOL    HW186978   4.543   1.506   9.314 -1.0542  0.8554  0.1990
28800SOL    HW286979   4.456   1.604   9.237  0.0549  0.7740 -1.1795
28801SOL     OW86980   3.941   0.025   6.464  0.7273 -0.1633 -0.4440
28801SOL    HW186981   3.894   0.103   6.434  2.1599  0.2454 -1.7228
28801SOL    HW286982   3.940   0.032   6.560 -0.8588  0.3785 -0.4760
28802SOL     OW86983   1.978   4.022   8.293  0.1534  0.1029 -0.3066
28802SOL    HW186984   2.056   4.075   8.278  0.0729  0.5596  0.8185
28802SOL    HW286985   1.935   4.020   8.207  1.8808 -0.9892 -1.1993
28803SOL     OW86986   4.026   6.344   8.529  0.4296 -0.1729  0.1042
28803SOL    HW186987   4.111   6.388   8.534 -0.4684  1.4397  2.4138
28803SOL    HW286988   3.996   6.360   8.439  2.9655 -1.7180 -1.1231
28804SOL     OW86989   0.105   0.418   8.042 -0.5158 -0.0407 -0.0692
28804SOL    HW186990   0.171   0.349   8.043  0.0462  0.4849  0.7635
28804SOL    HW286991   0.026   0.376   8.009  0.5720 -0.3426 -2.4612
28805SOL     OW86992   7.402   0.277   8.971  0.1656  0.2757  0.0008
28805SOL    HW186993   7.376   0.185   8.963  0.8515  0.0401  0.4371
28805SOL    HW286994   7.442   0.298   8.886 -1.8801  0.8069 -0.8993
28806SOL     OW86995   3.685   6.270   0.540  0.5720  0.4053  0.1883
28806SOL    HW186996   3.617   6.242   0.479  0.0772  1.4620  0.2228
28806SOL    HW286997   3.752   6.312   0.485  1.0945 -0.4189  0.1793
28807SOL     OW86998   7.187   7.276   6.241  0.0463 -0.5335 -0.8857
28807SOL    HW186999   7.130   7.317   6.176  0.2357  0.5335 -0.3873
28807SOL    HW287000   7.240   7.347   6.276 -1.8165 -0.5338  2.3172
28808SOL     OW87001   4.281   7.552   4.499  0.1758  0.3683 -0.0646
28808SOL    HW187002   4.351   7.611   4.471  0.3419 -0.1387 -0.7215
28808SOL    HW287003   4.229   7.605   4.560 -0.9943  1.9683 -2.3129
28809SOL     OW87004   7.440   1.549   6.145  0.4720 -0.9254 -0.1669
28809SOL    HW187005   7.489   1.629   6.129  0.5452 -0.9365 -0.0041
28809SOL    HW287006   7.384   1.539   6.068 -1.3516  0.6010  0.8856
28810SOL     OW87007   5.822   3.433   0.835 -0.3463 -0.2788  0.0206
28810SOL    HW187008   5.804   3.360   0.894 -0.3987  0.1783  0.5755
28810SOL    HW287009   5.737   3.471   0.816 -0.2256  0.2419  0.5165
28811SOL     OW87010   8.457   9.296   4.944 -0.9993  0.9729 -0.2313
28811SOL    HW187011   8.409   9.228   4.896 -2.4076  1.2590  0.7132
28811SOL    HW287012   8.537   9.252   4.974 -1.0958  0.2112 -1.0476
28812SOL     OW87013   6.686   1.084   8.357  0.6015  0.0008 -0.3983
28812SOL    HW187014   6.672   1.177   8.339 -1.4207 -0.0372  0.6798
28812SOL    HW287015   6.688   1.079   8.453  0.4610 -1.0831 -0.4412
28813SOL     OW87016   3.610   7.662   0.391  0.4294  0.3018 -0.5147
28813SOL    HW187017   3.675   7.664   0.461  1.6213 -0.3642 -1.5672
28813SOL    HW287018   3.547   7.596   0.420  1.4170 -0.6589 -0.4795
28814SOL     OW87019   7.922   3.677   0.833  0.0216 -0.0946 -0.5632
28814SOL    HW187020   7.956   3.735   0.901  0.7181 -1.1048 -0.0080
28814SOL    HW287021   7.952   3.590   0.860 -0.5361 -0.6391 -1.6496
28815SOL     OW87022   1.496   1.376   3.261  0.0977  0.3676  0.0661
28815SOL    HW187023   1.580   1.371   3.215 -0.9008 -1.3961 -1.7364
28815SOL    HW287024   1.519   1.373   3.354  1.9870 -1.4857 -0.3939
28816SOL     OW87025   6.956   0.970   7.713  0.5472 -0.7073  0.0221
28816SOL    HW187026   6.948   0.878   7.736  0.0079 -1.0681 -1.5044
28816SOL    HW287027   7.050   0.985   7.707  0.6443 -1.0752  0.5208
28817SOL     OW87028   7.862   5.529   6.459 -0.1475 -0.1675  0.3812
28817SOL    HW187029   7.781   5.537   6.509  0.1230  1.6948  0.5817
28817SOL    HW287030   7.902   5.615   6.464  1.4028 -0.7962 -0.4993
28818SOL     OW87031   1.411   7.168   9.218 -0.0931  0.1696  0.6285
28818SOL    HW187032   1.407   7.082   9.258 -0.3386  0.4794  1.2830
28818SOL    HW287033   1.429   7.228   9.291 -0.3329  0.7180  0.2454
28819SOL     OW87034   3.966   8.728   3.553  0.4347 -0.5323 -0.6671
28819SOL    HW187035   4.054   8.726   3.591 -0.4185  1.2144  1.6046
28819SOL    HW287036   3.976   8.779   3.473  1.6525 -1.2597 -1.0050
28820SOL     OW87037   4.213   0.841   5.331 -0.4645 -0.2239 -0.1861
28820SOL    HW187038   4.133   0.825   5.281 -0.4235  1.2383 -0.7740
28820SOL    HW287039   4.255   0.915   5.286  1.6492 -1.4594 -0.3843
28821SOL     OW87040   2.269   2.873   6.158 -0.6037 -0.1569 -0.5213
28821SOL    HW187041   2.203   2.819   6.114  0.0851  0.1995 -2.0660
28821SOL    HW287042   2.219   2.930   6.216 -1.4424 -1.5944  0.2435
28822SOL     OW87043   3.209   8.501   9.332  0.0942 -0.2509  0.1895
28822SOL    HW187044   3.239   8.590   9.314  0.2830 -0.5195 -0.9260
28822SOL    HW287045   3.289   8.450   9.341 -0.0165 -0.4251  0.1971
28823SOL     OW87046   5.203   6.077   7.392 -0.1471 -0.2521  0.1525
28823SOL    HW187047   5.143   6.108   7.325 -0.4935 -0.2262  0.4682
28823SOL    HW287048   5.260   6.015   7.348  0.8916  1.1785 -0.6233
28824SOL     OW87049   1.076   7.686   3.407  0.2968  0.8801 -0.1461
28824SOL    HW187050   1.142   7.690   3.338 -0.7329 -2.1783 -1.4783
28824SOL    HW287051   0.993   7.684   3.360 -0.4476 -1.0877  1.1391
28825SOL     OW87052   2.781   5.192   4.496 -0.6560  0.4146 -0.2239
28825SOL    HW187053   2.751   5.236   4.576 -2.9990 -1.0699 -0.1942
28825SOL    HW287054   2.716   5.216   4.430 -0.6656 -1.0697 -0.7973
28826SOL     OW87055   3.011   5.585   0.265  0.0301 -0.3031 -0.0675
28826SOL    HW187056   3.047   5.635   0.338 -1.4275  1.1452 -0.3009
28826SOL    HW287057   3.060   5.503   0.266  1.4403  0.5067  1.2684
28827SOL     OW87058   6.137   1.076   4.181  0.8284 -0.0936  0.2328
28827SOL    HW187059   6.054   1.112   4.213  0.4055  1.6631 -2.5372
28827SOL    HW287060   6.112   0.995   4.137  0.5638  0.4586 -0.6412
28828SOL     OW87061   0.869   2.840   5.932 -0.2244 -0.3428  0.1891
28828SOL    HW187062   0.956   2.879   5.930  0.0878 -1.0485 -0.6677
28828SOL    HW287063   0.831   2.861   5.847 -0.1676 -1.6151 -0.1689
28829SOL     OW87064   9.622   8.606   1.548  0.2827  0.4503 -0.0198
28829SOL    HW187065   9.602   8.537   1.485  0.6366  0.8277 -0.5464
28829SOL    HW287066   9.670   8.561   1.618 -2.4375 -0.5146  1.3669
28830SOL     OW87067   2.810   4.375   2.428  0.2786 -0.0507  0.0086
28830SOL    HW187068   2.843   4.289   2.455  1.1755  0.4876  0.6862
28830SOL    HW287069   2.887   4.432   2.430  0.2755  0.2151 -3.0187
28831SOL     OW87070   0.385   0.429   5.215  0.2064  0.3265  0.5230
28831SOL    HW187071   0.412   0.494   5.280  1.5175  0.8688 -0.5085
28831SOL    HW287072   0.467   0.398   5.177 -0.5021 -0.3359 -0.5281
28832SOL     OW87073   6.389   0.671   2.763  0.4066  0.6482  0.1664
28832SOL    HW187074   6.388   0.637   2.853  0.4988 -0.8125 -0.3549
28832SOL    HW287075   6.437   0.606   2.713  0.4590  1.4963 -0.9381
28833SOL     OW87076   8.872   5.700   1.236 -0.3050 -0.5021 -0.7141
28833SOL    HW187077   8.785   5.660   1.229 -0.1164 -0.8337 -1.2536
28833SOL    HW287078   8.924   5.636   1.286  0.0018 -0.9615 -1.5917
28834SOL     OW87079   5.057   6.224   6.581 -0.0346 -0.3351 -0.2191
28834SOL    HW187080   5.123   6.184   6.524 -0.0873 -1.3935  0.4276
28834SOL    HW287081   4.977   6.173   6.565 -0.3797  0.1544 -0.0979
28835SOL     OW87082   0.220   2.011   4.132  0.4752 -0.0286 -0.0425
28835SOL    HW187083   0.142   2.043   4.178  2.0262  3.0099  0.7816
28835SOL    HW287084   0.282   1.991   4.202  1.1447 -0.3023 -0.7006
28836SOL     OW87085   3.930   4.767   7.127  0.2501  0.4793  0.3627
28836SOL    HW187086   3.840   4.758   7.157 -0.1282 -0.1030 -0.8768
28836SOL    HW287087   3.984   4.745   7.203 -0.6636 -1.4049  0.5154
28837SOL     OW87088   3.509   9.336   2.538 -0.2011  0.3262 -0.4879
28837SOL    HW187089   3.527   9.319   2.446  1.1072 -0.7870 -0.0488
28837SOL    HW287090   3.595   9.340   2.579 -0.7387  1.3848  0.6046
28838SOL     OW87091   9.080   1.456   3.771  0.6514 -0.3870  0.1177
28838SOL    HW187092   9.022   1.531   3.764  3.5606  2.0003 -0.2250
28838SOL    HW287093   9.068   1.425   3.861 -0.1061  0.9411  0.5001
28839SOL     OW87094   4.331   3.314   6.497 -0.5393 -0.4295  0.4727
28839SOL    HW187095   4.246   3.314   6.541 -0.6496  0.5766  0.2947
28839SOL    HW287096   4.323   3.383   6.430  0.3389 -0.4702  0.3154
28840SOL     OW87097   6.368   4.806   0.187 -0.0806 -0.0666 -0.3952
28840SOL    HW187098   6.368   4.742   0.116 -3.2525  1.8212 -2.3144
28840SOL    HW287099   6.297   4.777   0.245 -0.2309  0.6483 -0.2194
28841SOL     OW87100   4.705   0.876   0.747  0.8402  0.3289 -0.1060
28841SOL    HW187101   4.690   0.966   0.777 -1.4719 -0.6692  2.0927
28841SOL    HW287102   4.622   0.832   0.763  2.1693 -2.4474 -0.3080
28842SOL     OW87103   1.403   1.654   3.336  0.2989 -0.0300 -0.2019
28842SOL    HW187104   1.312   1.631   3.322  1.0089 -3.1766 -0.2191
28842SOL    HW287105   1.451   1.572   3.330  3.2456  1.5670 -0.7324
28843SOL     OW87106   9.525   1.810   0.387 -1.0060 -0.1225 -0.1631
28843SOL    HW187107   9.585   1.758   0.441  0.8030  0.5530 -1.4181
28843SOL    HW287108   9.545   1.786   0.297 -1.1465  1.6402 -0.7110
28844SOL     OW87109   4.029   6.564   2.530  0.0112 -0.0272 -0.1588
28844SOL    HW187110   3.948   6.525   2.562  1.4380 -2.2980  0.9524
28844SOL    HW287111   4.060   6.618   2.602  1.7170 -2.7956  1.3262
28845SOL     OW87112   6.624   7.079   2.448  0.1381 -0.2662 -0.3519
28845SOL    HW187113   6.653   7.079   2.356  0.2299  3.2795 -0.4602
28845SOL    HW287114   6.647   7.167   2.480 -2.6579 -0.3009  2.1478
28846SOL     OW87115   9.554   0.590   1.230  0.3637  0.9131 -0.1872
28846SOL    HW187116   9.603   0.517   1.191  1.0040  0.6425  1.0697
28846SOL    HW287117   9.468   0.554   1.250  0.5479  0.6132  0.0680
28847SOL     OW87118   1.246   0.109   5.017 -0.2107 -0.5899 -0.1132
28847SOL    HW187119   1.244   0.032   4.960 -1.3239 -1.3092  0.8422
28847SOL    HW287120   1.168   0.100   5.072  1.4272 -0.5930  2.3613
28848SOL     OW87121   4.199   6.132   5.697 -0.3415 -0.1797  0.2841
28848SOL    HW187122   4.105   6.138   5.714 -0.2675  0.9910  0.3446
28848SOL    HW287123   4.208   6.056   5.639 -1.2451 -0.6827  0.7698
28849SOL     OW87124   6.319   5.467   5.389 -0.3816 -0.4101 -0.0252
28849SOL    HW187125   6.358   5.549   5.418 -0.1630 -0.3617 -0.4402
28849SOL    HW287126   6.365   5.399   5.437  0.4878 -0.3778 -0.7809
28850SOL     OW87127   7.871   2.550   0.179 -0.3052  0.0492 -0.2649
28850SOL    HW187128   7.925   2.593   0.244 -1.1205  0.4155  0.1782
28850SOL    HW287129   7.907   2.461   0.173 -1.1708 -0.5121  1.8445
28851SOL     OW87130   4.449   6.462   3.094  0.3118  0.2667  0.2023
28851SOL    HW187131   4.388   6.391   3.115 -0.7474  0.5976 -1.5965
28851SOL    HW287132   4.532   6.417   3.075 -0.4528 -0.5669 -1.3313
28852SOL     OW87133   0.716   9.763   8.311 -0.1915  0.0620 -0.1656
28852SOL    HW187134   0.724   9.812   8.393  0.0595  0.0558 -0.1851
28852SOL    HW287135   0.798   9.714   8.305  0.4933  1.2729 -1.2147
28853SOL     OW87136   8.113   8.629   7.460 -0.2535  0.1263  0.3699
28853SOL    HW187137   8.149   8.718   7.450 -1.0811  0.5388  1.0195
28853SOL    HW287138   8.020   8.638   7.440 -0.3186 -0.6308  0.3077
28854SOL     OW87139   9.412   6.030   9.172 -0.0710 -0.2662  0.3527
28854SOL    HW187140   9.440   6.122   9.174 -0.5680 -0.0823 -0.4537
28854SOL    HW287141   9.361   6.023   9.091  0.4864 -1.4074  0.0806
28855SOL     OW87142   8.317   3.645   1.703 -0.1999  0.3328  0.3269
28855SOL    HW187143   8.229   3.663   1.736 -0.7955  0.1035 -1.0676
28855SOL    HW287144   8.305   3.573   1.641  1.0649 -0.0846  0.5420
28856SOL     OW87145   7.579   8.866   4.128  1.1093  0.6181 -0.2832
28856SOL    HW187146   7.547   8.907   4.209  0.6682  1.3382 -0.8046
28856SOL    HW287147   7.624   8.787   4.157 -0.1619  0.1833  0.5703
28857SOL     OW87148   2.927   7.099   0.647  0.2095  0.2478  0.0762
28857SOL    HW187149   2.836   7.123   0.635 -0.3342 -0.5912  2.1344
28857SOL    HW287150   2.924   7.016   0.695  2.0463 -0.9025 -1.6139
28858SOL     OW87151   4.841   4.613   6.550  0.0817 -0.4508 -0.2042
28858SOL    HW187152   4.865   4.639   6.461  0.8395  0.4793  0.2548
28858SOL    HW287153   4.750   4.641   6.559 -0.1356 -0.9254 -0.8130
28859SOL     OW87154   2.865   9.065   2.016  0.4145  0.1527  0.1976
28859SOL    HW187155   2.873   9.027   2.104  0.4450  1.1827  0.6570
28859SOL    HW287156   2.930   9.135   2.015  1.5339 -0.8550 -1.2216
28860SOL     OW87157   7.965   2.945   8.426  0.0822 -0.0594 -0.1527
28860SOL    HW187158   7.956   2.852   8.408  0.1144  0.2548 -1.9285
28860SOL    HW287159   7.972   2.950   8.521 -3.0290 -1.6089  0.2981
28861SOL     OW87160   9.715   0.311   6.500  0.2569 -0.3155 -0.3742
28861SOL    HW187161   9.650   0.241   6.503 -0.4311  0.3023 -0.7076
28861SOL    HW287162   9.756   0.309   6.587 -0.3218 -0.5933 -0.1066
28862SOL     OW87163   4.787   8.149   3.712 -0.1094  0.2350 -0.1608
28862SOL    HW187164   4.762   8.067   3.755  0.6649 -0.4765 -1.0258
28862SOL    HW287165   4.704   8.195   3.701 -0.4324  0.0687  1.2958
28863SOL     OW87166   3.174   2.320   1.781  0.2224 -0.0634  0.3058
28863SOL    HW187167   3.127   2.403   1.769  1.1881  0.4267 -0.1580
28863SOL    HW287168   3.141   2.264   1.710 -0.2956 -0.0218  0.5065
28864SOL     OW87169   3.853   1.037   6.945 -0.2301  0.2504  0.0096
28864SOL    HW187170   3.791   1.006   7.010 -1.6468  0.6131 -1.1146
28864SOL    HW287171   3.892   1.115   6.985  0.9614 -1.0543  1.5030
28865SOL     OW87172   1.850   6.879   0.819  0.3959 -0.2289 -0.2334
28865SOL    HW187173   1.756   6.893   0.825  0.1074 -1.9452 -0.2231
28865SOL    HW287174   1.889   6.958   0.858 -1.0746 -0.5831  2.1268
28866SOL     OW87175   5.143   9.351   2.597  0.0327 -0.3620  0.5401
28866SOL    HW187176   5.201   9.277   2.578  1.7206  0.7664  1.1226
28866SOL    HW287177   5.175   9.422   2.542 -0.5200  0.4240  1.1968
28867SOL     OW87178   4.659   1.336   6.243  0.0665  0.0330 -0.5828
28867SOL    HW187179   4.727   1.288   6.290 -0.5640  0.1783  0.5198
28867SOL    HW287180   4.579   1.318   6.292 -0.2341  2.0251 -0.2607
28868SOL     OW87181   8.529   2.357   7.783 -0.2755  0.0672 -0.4446
28868SOL    HW187182   8.464   2.420   7.814 -1.1129 -1.2148  0.5363
28868SOL    HW287183   8.592   2.409   7.734 -1.4851  1.5071 -0.5459
28869SOL     OW87184   8.216   3.168   2.196 -0.2078  0.4235 -0.0022
28869SOL    HW187185   8.172   3.238   2.245 -0.8443  0.1958 -0.2366
28869SOL    HW287186   8.281   3.134   2.257  0.4623  1.5568 -0.0584
28870SOL     OW87187   8.698   1.928   2.189  0.1511  0.0374  0.2522
28870SOL    HW187188   8.669   1.894   2.104  0.8906  0.4211 -0.1576
28870SOL    HW287189   8.704   1.850   2.245 -2.0431 -0.0206  0.4895
28871SOL     OW87190   3.772   0.227   5.237 -0.5414  0.1185 -0.0962
28871SOL    HW187191   3.800   0.319   5.229  0.6872 -0.2565 -0.4305
28871SOL    HW287192   3.678   0.229   5.221 -0.4435  1.2516 -0.6720
28872SOL     OW87193   4.746   8.593   8.830  0.5227 -0.2575 -0.3547
28872SOL    HW187194   4.808   8.587   8.902 -0.0017  0.7888  0.2040
28872SOL    HW287195   4.694   8.671   8.849  0.6449  0.2902 -2.0743
28873SOL     OW87196   9.847   8.880   7.483  0.4529 -0.0621 -0.1290
28873SOL    HW187197   9.805   8.966   7.482 -1.8216 -1.0758  0.5454
28873SOL    HW287198   9.806   8.832   7.411 -0.1708 -1.3311  1.0100
28874SOL     OW87199   9.895   4.780   3.305  0.1226 -0.5196  0.2679
28874SOL    HW187200   9.882   4.686   3.311 -0.7825 -0.5783 -1.7567
28874SOL    HW287201   9.874   4.813   3.393 -2.0959 -1.9448  0.3357
28875SOL     OW87202   1.345   9.938   4.019 -0.2575 -0.0334 -0.3771
28875SOL    HW187203   1.429   9.964   3.982  2.0741 -4.5899  1.0159
28875SOL    HW287204   1.297   9.900   3.945  0.4318 -0.6063 -0.5388
28876SOL     OW87205   5.919   4.136   3.697 -0.1674  0.0523 -0.3388
28876SOL    HW187206   5.951   4.105   3.781 -0.1140 -0.7367 -0.6386
28876SOL    HW287207   5.932   4.231   3.699  0.4002 -0.0355  0.2992
28877SOL     OW87208   6.184   2.884   5.614 -0.3189 -0.0808 -0.9854
28877SOL    HW187209   6.225   2.847   5.536  1.2277  0.4341 -0.4639
28877SOL    HW287210   6.210   2.976   5.614 -0.4290 -0.0353  0.0508
28878SOL     OW87211   6.464   2.685   4.198 -0.5932 -0.3395  0.0094
28878SOL    HW187212   6.502   2.598   4.208 -1.5772 -0.6613  1.1195
28878SOL    HW287213   6.490   2.733   4.277  1.5384  1.0584 -1.4169
28879SOL     OW87214   2.738   1.154   4.944  0.1155 -0.1571 -0.1405
28879SOL    HW187215   2.662   1.140   4.887 -0.4587 -1.1873  0.8376
28879SOL    HW287216   2.716   1.232   4.994  0.1963  0.1962 -0.6568
28880SOL     OW87217   2.655   8.231   5.047 -0.1308  0.0582  0.1196
28880SOL    HW187218   2.742   8.237   5.085 -0.1007 -0.1572  0.0831
28880SOL    HW287219   2.597   8.213   5.120 -0.6880  3.8210  0.8197
28881SOL     OW87220   4.047   6.090   1.423 -0.3001 -0.0943  0.0915
28881SOL    HW187221   4.112   6.084   1.493 -0.8326  0.7350  0.6821
28881SOL    HW287222   3.981   6.025   1.446 -0.3984  0.0723  0.2868
28882SOL     OW87223   1.226   0.735   0.376  0.3173  0.0663  0.2885
28882SOL    HW187224   1.282   0.798   0.330  0.3997  0.5097  0.9871
28882SOL    HW287225   1.175   0.787   0.437 -0.4214 -0.4161  0.0988
28883SOL     OW87226   6.468   3.618   2.850 -0.5185 -0.4801 -0.0343
28883SOL    HW187227   6.490   3.705   2.816 -0.3380 -0.3904  0.3131
28883SOL    HW287228   6.542   3.594   2.906 -0.9604 -0.4959  0.5496
28884SOL     OW87229   2.801   2.625   4.492  0.2526  0.0965  0.2394
28884SOL    HW187230   2.845   2.709   4.506 -0.7861  1.1943 -2.4078
28884SOL    HW287231   2.712   2.638   4.523 -0.7073  1.0056 -2.5621
28885SOL     OW87232   2.812   8.830   5.357  0.2389 -0.2702 -0.0473
28885SOL    HW187233   2.820   8.915   5.312 -1.2471 -0.3886 -0.6015
28885SOL    HW287234   2.864   8.770   5.305 -0.7489 -0.2148 -1.1261
28886SOL     OW87235   3.243   7.129   4.808 -0.0001  0.1141 -0.3946
28886SOL    HW187236   3.238   7.193   4.879 -1.1935  0.6179 -0.8918
28886SOL    HW287237   3.171   7.068   4.825  0.4457 -0.4606 -0.5259
28887SOL     OW87238   6.782   0.857   1.051  0.6403  0.1006  0.3646
28887SOL    HW187239   6.842   0.842   0.978  0.8072  3.9312 -0.5082
28887SOL    HW287240   6.823   0.928   1.101 -0.7790 -0.6337  2.7143
28888SOL     OW87241   3.610   6.423   6.616  0.7067 -0.4121  0.8010
28888SOL    HW187242   3.637   6.338   6.651  0.9971 -0.2927  0.8722
28888SOL    HW287243   3.691   6.474   6.613  0.6388 -0.3278  0.2196
28889SOL     OW87244   4.985   5.834   8.513  0.0972 -0.9042  0.3662
28889SOL    HW187245   5.018   5.833   8.423 -0.6918 -0.1263  0.0588
28889SOL    HW287246   4.924   5.761   8.517 -0.4135 -0.5087  0.0428
28890SOL     OW87247   9.869   2.481   4.001 -0.3081  0.7311 -0.1892
28890SOL    HW187248   9.781   2.509   3.976 -0.7984 -0.4342  0.2013
28890SOL    HW287249   9.862   2.387   4.016  0.9417  0.6653  0.1364
28891SOL     OW87250   4.895   1.717   1.230 -0.0397  0.2124 -0.2736
28891SOL    HW187251   4.864   1.703   1.319  0.9149  2.7058  0.5217
28891SOL    HW287252   4.990   1.711   1.236  0.4864  5.0638  0.0285
28892SOL     OW87253   6.202   5.328   2.408  0.1448  0.2160 -0.7506
28892SOL    HW187254   6.231   5.414   2.438 -1.3175  0.0296  1.4717
28892SOL    HW287255   6.240   5.267   2.471 -2.2522 -0.2906  0.3349
28893SOL     OW87256   4.577   4.133   3.378  0.1025  0.2114  0.8741
28893SOL    HW187257   4.569   4.226   3.394  1.4176  0.4138  0.4975
28893SOL    HW287258   4.504   4.093   3.425 -0.1143  1.3711  1.5365
28894SOL     OW87259   6.015   6.857   0.641  0.5082 -0.1946 -0.3201
28894SOL    HW187260   6.074   6.901   0.579  2.0415 -1.5628  0.1052
28894SOL    HW287261   6.000   6.921   0.710  0.4592  0.6101 -1.0544
28895SOL     OW87262   3.990   2.235   7.731 -0.0197 -0.3452  0.1948
28895SOL    HW187263   3.952   2.239   7.643  1.1764  2.0125 -0.2814
28895SOL    HW287264   4.080   2.205   7.717 -0.0646 -0.7611  0.7359
28896SOL     OW87265   1.989   9.290   9.785  0.1902 -0.3739 -0.1302
28896SOL    HW187266   2.021   9.369   9.829  0.4007  0.0086 -0.9602
28896SOL    HW287267   1.898   9.281   9.815 -0.7757  1.7498 -2.0809
28897SOL     OW87268   0.316   3.101   9.830  0.5216  0.1560 -0.0540
28897SOL    HW187269   0.368   3.044   9.887 -0.0654 -0.4047 -0.0682
28897SOL    HW287270   0.311   3.184   9.877  1.4085  0.2182 -0.0447
28898SOL     OW87271   7.130   0.477   5.310  0.5620  0.4277 -0.1979
28898SOL    HW187272   7.106   0.494   5.401 -0.0397  0.6773 -0.3991
28898SOL    HW287273   7.089   0.548   5.260  1.7430  0.8802 -0.5527
28899SOL     OW87274   9.255   4.682   2.433  0.1485  0.2937 -0.4731
28899SOL    HW187275   9.220   4.766   2.465 -0.6683  0.6191 -2.0929
28899SOL    HW287276   9.340   4.705   2.397  0.2844  0.2622 -0.1784
28900SOL     OW87277   3.985   2.882   9.111 -0.0534  0.3004 -0.1538
28900SOL    HW187278   4.065   2.851   9.069  1.9393  1.2267  2.6532
28900SOL    HW287279   3.956   2.808   9.164 -0.3780  0.3619 -0.2435
28901SOL     OW87280   6.558   8.403   4.511  0.1506  0.1836  0.1800
28901SOL    HW187281   6.567   8.390   4.417  0.7546 -1.3449  0.4301
28901SOL    HW287282   6.611   8.481   4.529 -3.1283  2.9934 -1.2843
28902SOL     OW87283   5.241   3.882   1.389 -0.0055 -0.2429 -0.0919
28902SOL    HW187284   5.271   3.970   1.367  0.9699 -0.6080 -0.2826
28902SOL    HW287285   5.181   3.894   1.463  0.1779  0.5682 -0.0712
28903SOL     OW87286   0.130   2.849   8.882 -0.1861 -0.3080 -0.4118
28903SOL    HW187287   0.080   2.879   8.806 -1.6822 -0.5927  0.4175
28903SOL    HW287288   0.071   2.862   8.957  1.6514  1.0349  0.8917
28904SOL     OW87289   1.538   1.938   9.028  0.7254  0.4621  0.1190
28904SOL    HW187290   1.594   2.001   9.075  1.2700  0.9532 -1.1326
28904SOL    HW287291   1.466   1.921   9.089  1.5999  0.7477  1.2934
28905SOL     OW87292   6.836   8.737   2.621  0.8180 -0.2092  0.0091
28905SOL    HW187293   6.765   8.742   2.685 -0.9101  2.2024 -1.9205
28905SOL    HW287294   6.875   8.825   2.621  2.3706 -0.8563 -0.5745
28906SOL     OW87295   2.505   8.243   2.635 -0.1839 -0.4364 -0.2040
28906SOL    HW187296   2.496   8.323   2.686  1.2040 -0.7500  0.6061
28906SOL    HW287297   2.452   8.178   2.682 -0.6043 -0.2100 -0.3643
28907SOL     OW87298   9.653   8.634   9.893 -0.6957  0.7714  0.6896
28907SOL    HW187299   9.560   8.611   9.894 -1.3277  3.0800  0.5051
28907SOL    HW287300   9.659   8.711   9.949  0.7965  1.7216 -0.6923
28908SOL     OW87301   6.072   6.442   6.073 -0.0622  0.0337  0.4049
28908SOL    HW187302   6.045   6.351   6.058  1.0438 -0.3083  0.4504
28908SOL    HW287303   5.999   6.480   6.123 -1.0701 -0.4822 -0.6114
28909SOL     OW87304   8.054   7.867   1.862 -0.2915  0.5848 -0.1291
28909SOL    HW187305   8.039   7.861   1.957 -1.3909  1.2772 -0.2359
28909SOL    HW287306   8.032   7.779   1.829  2.0858 -0.2956  0.4652
28910SOL     OW87307   6.275   4.199   0.032  0.2841  0.2157  0.4214
28910SOL    HW187308   6.237   4.112   0.024  1.0218 -0.0441 -0.4638
28910SOL    HW287309   6.254   4.243  -0.050  1.3467  0.2674  0.1529
28911SOL     OW87310   7.406   7.133   1.474  0.0857 -0.0091  0.0101
28911SOL    HW187311   7.471   7.195   1.441 -2.1262  1.4077 -1.9632
28911SOL    HW287312   7.380   7.169   1.559  2.2550 -0.9957  1.1971
28912SOL     OW87313   1.863   8.223   1.076 -0.0172 -0.1639 -0.4088
28912SOL    HW187314   1.776   8.234   1.036 -0.0555 -1.4608 -0.7343
28912SOL    HW287315   1.851   8.152   1.139  1.0028 -0.9728 -1.0920
28913SOL     OW87316   1.004   9.197   3.356 -0.1033 -0.0355  0.1115
28913SOL    HW187317   0.940   9.235   3.417  0.2286  0.9736 -0.1498
28913SOL    HW287318   1.064   9.269   3.336 -0.2807 -0.3016 -1.5191
28914SOL     OW87319   6.118   6.920   2.373 -0.3624 -0.0298  0.2585
28914SOL    HW187320   6.187   6.965   2.421  2.4292 -0.3906 -3.0105
28914SOL    HW287321   6.130   6.827   2.395 -0.8097  0.0366  0.8061
28915SOL     OW87322   6.079   8.637   3.488  0.0305  0.2706  0.1175
28915SOL    HW187323   6.099   8.638   3.395 -1.4723  0.5956 -0.2316
28915SOL    HW287324   6.079   8.730   3.514 -1.0930  0.3015  0.0606
28916SOL     OW87325   8.609   0.628   1.791 -0.0770 -0.2027  0.3866
28916SOL    HW187326   8.590   0.701   1.732 -2.2819  0.1936  1.4792
28916SOL    HW287327   8.670   0.664   1.855  3.1382 -0.9022 -2.0289
28917SOL     OW87328   2.194   8.757   4.113 -0.4024  0.9679  0.2190
28917SOL    HW187329   2.168   8.748   4.021 -0.0890  1.5142  0.0699
28917SOL    HW287330   2.119   8.725   4.162  0.6888 -2.7474 -0.2006
28918SOL     OW87331   1.208   3.236   7.484  0.1585 -0.1022 -0.3128
28918SOL    HW187332   1.273   3.171   7.456  0.6199  0.4235 -0.4719
28918SOL    HW287333   1.182   3.207   7.572  0.5444 -0.3662 -0.2827
28919SOL     OW87334   3.889   6.622   5.732 -0.0487  0.4953 -0.2943
28919SOL    HW187335   3.960   6.654   5.788 -0.9344  0.7458  0.7081
28919SOL    HW287336   3.851   6.549   5.780  1.0434 -1.2462 -1.9223
28920SOL     OW87337   5.818   5.695   2.523  0.0737 -0.4906  0.3894
28920SOL    HW187338   5.856   5.609   2.545 -0.5969 -0.9009 -0.0231
28920SOL    HW287339   5.745   5.675   2.464 -0.0114  0.3787  0.1826
28921SOL     OW87340   7.831   3.920   4.471 -0.3398 -0.0706  0.3062
28921SOL    HW187341   7.914   3.873   4.463 -0.1129  0.6188 -1.8093
28921SOL    HW287342   7.764   3.855   4.450 -0.0622  0.3320 -1.9879
28922SOL     OW87343   6.669   5.247   8.192 -0.2072 -0.1230 -0.3625
28922SOL    HW187344   6.761   5.236   8.169 -0.4451 -0.4665 -1.1916
28922SOL    HW287345   6.627   5.278   8.112 -0.2622  3.3825  0.8705
28923SOL     OW87346   1.981   0.694   8.858 -0.2726  0.0932  0.1856
28923SOL    HW187347   1.969   0.787   8.843  0.0406  0.3847  1.5966
28923SOL    HW287348   1.963   0.653   8.774 -1.6739  1.3057 -0.1372
28924SOL     OW87349   8.861   2.558   2.403 -0.1860  0.1755 -0.3065
28924SOL    HW187350   8.811   2.481   2.428 -1.6559  0.7484 -1.3387
28924SOL    HW287351   8.948   2.524   2.381  0.1340 -0.7608  2.0886
28925SOL     OW87352   7.158   9.785   1.583 -0.1399 -0.6918  0.1969
28925SOL    HW187353   7.168   9.712   1.521 -0.9213  0.2996 -1.1514
28925SOL    HW287354   7.113   9.853   1.533  1.7501  1.2618  0.9906
28926SOL     OW87355   3.640   7.194   1.486 -0.0479  0.6650 -0.2757
28926SOL    HW187356   3.622   7.217   1.395 -2.4536  1.3891  0.3185
28926SOL    HW287357   3.635   7.098   1.487  2.3195  0.4551 -1.2803
28927SOL     OW87358   4.930   2.786   0.649  0.1051 -0.3961  0.0465
28927SOL    HW187359   4.999   2.787   0.583  0.3477 -3.6548  0.0521
28927SOL    HW287360   4.977   2.781   0.732 -0.1850  0.6564  0.2818
28928SOL     OW87361   9.167   2.389   2.621  0.0299  0.4685 -0.2044
28928SOL    HW187362   9.088   2.336   2.611  0.2215  0.2961 -0.8921
28928SOL    HW287363   9.148   2.447   2.694 -0.4742 -0.0356  0.0698
28929SOL     OW87364   7.219   7.410   4.515 -0.3360  0.0103  0.1539
28929SOL    HW187365   7.257   7.454   4.591 -0.4633  1.1636 -0.4409
28929SOL    HW287366   7.291   7.359   4.478  0.6875  2.1255 -0.9286
28930SOL     OW87367   7.428   9.790   7.796  0.1903  0.1969  0.1755
28930SOL    HW187368   7.464   9.745   7.720 -1.7091  0.0978 -0.7267
28930SOL    HW287369   7.337   9.808   7.772  0.6635  4.0821  0.6765
28931SOL     OW87370   6.027   6.661   3.522 -0.3024  0.0526 -0.6503
28931SOL    HW187371   5.991   6.662   3.433  1.6557  1.2632 -1.4919
28931SOL    HW287372   6.120   6.646   3.511  0.4923  2.9221  0.9108
28932SOL     OW87373   1.773   8.342   6.912 -0.2204 -0.1391  0.3939
28932SOL    HW187374   1.771   8.247   6.913 -0.7156 -0.1391 -0.0431
28932SOL    HW287375   1.866   8.365   6.902  0.0673 -0.5465  1.9109
28933SOL     OW87376   0.121   4.735   7.587  0.5481 -0.6163 -0.6775
28933SOL    HW187377   0.049   4.680   7.555 -0.2808  0.2646 -0.3896
28933SOL    HW287378   0.121   4.721   7.682  0.1045  0.1180 -0.5582
28934SOL     OW87379   9.833   5.852   3.101 -0.0781 -0.4120  0.3360
28934SOL    HW187380   9.876   5.900   3.029  0.6013 -1.5920 -0.0759
28934SOL    HW287381   9.904   5.804   3.143 -0.9617 -2.4246 -0.3546
28935SOL     OW87382   3.144   4.035   9.592 -0.3882  0.3606  0.4772
28935SOL    HW187383   3.081   3.988   9.538  1.1752 -0.5707 -0.6207
28935SOL    HW287384   3.180   3.968   9.650 -0.0804  0.7822  0.7775
28936SOL     OW87385   5.225   1.670   1.596  0.5854  0.3142  0.2764
28936SOL    HW187386   5.269   1.585   1.590  1.4114  0.7553 -0.2241
28936SOL    HW287387   5.281   1.721   1.655  1.2090  1.1400 -0.9783
28937SOL     OW87388   6.302   8.989   9.769 -0.3300  0.3124  0.8212
28937SOL    HW187389   6.227   8.960   9.717  0.2979  1.9188 -1.1322
28937SOL    HW287390   6.292   9.084   9.775  1.2897  0.5098  0.9336
28938SOL     OW87391   1.570   5.105   5.975 -0.8293  0.1816  0.8568
28938SOL    HW187392   1.633   5.171   6.004 -0.6880 -0.1563  1.3192
28938SOL    HW287393   1.621   5.047   5.918 -1.1335  0.9165 -0.2133
28939SOL     OW87394   9.887   3.707   7.554  0.4113  0.0016 -0.4011
28939SOL    HW187395   9.925   3.699   7.466 -1.4139  1.3865 -1.3786
28939SOL    HW287396   9.909   3.796   7.581 -0.2298  0.0577 -0.0566
28940SOL     OW87397   2.317   8.955   2.715  0.7275  0.1591 -0.1222
28940SOL    HW187398   2.328   9.037   2.762  0.3115 -1.3808  2.9120
28940SOL    HW287399   2.230   8.961   2.675  0.8399  1.3179 -0.2038
28941SOL     OW87400   8.335   7.552   3.573 -0.5198 -0.2130  0.3285
28941SOL    HW187401   8.285   7.471   3.584  0.9429 -1.5132 -1.7349
28941SOL    HW287402   8.426   7.525   3.584 -0.0434  1.2949  0.2360
28942SOL     OW87403   7.068   3.581   6.622 -0.0397 -0.3637  0.2814
28942SOL    HW187404   7.122   3.527   6.564 -1.8226 -1.7920 -0.1222
28942SOL    HW287405   7.132   3.634   6.670  1.5838 -0.3309 -1.7725
28943SOL     OW87406   3.648   3.823   0.350 -0.3612  0.1821  0.0045
28943SOL    HW187407   3.654   3.783   0.437  1.1758 -0.0735 -0.1905
28943SOL    HW287408   3.558   3.854   0.344  0.0330  2.0549  2.4986
28944SOL     OW87409   8.508   3.942   8.847  0.3351 -0.3876  0.1403
28944SOL    HW187410   8.578   3.901   8.899  0.4929  0.3945  0.5558
28944SOL    HW287411   8.428   3.916   8.892  0.5473  3.0691  2.9951
28945SOL     OW87412   4.351   4.490   2.325 -0.2441  0.0637  0.0748
28945SOL    HW187413   4.427   4.537   2.289  0.3882 -1.1655 -0.2761
28945SOL    HW287414   4.367   4.398   2.301 -1.1483 -0.4137  1.2264
28946SOL     OW87415   9.792   1.850   7.858  0.3610  0.4538 -0.4287
28946SOL    HW187416   9.814   1.831   7.950 -1.2382 -2.0369 -0.4420
28946SOL    HW287417   9.870   1.825   7.809 -0.1975 -2.5636 -0.0177
28947SOL     OW87418   6.430   0.267   9.548 -0.0358 -0.1886  0.1803
28947SOL    HW187419   6.454   0.201   9.483 -0.1517 -1.2563  1.1906
28947SOL    HW287420   6.473   0.239   9.629 -1.6972 -0.1680  1.1298
28948SOL     OW87421   9.654   3.019   5.539 -1.1507  0.0027  0.4572
28948SOL    HW187422   9.746   3.046   5.531 -1.8746  2.8524  0.6046
28948SOL    HW287423   9.637   3.018   5.633 -1.4403  0.1646  0.4087
28949SOL     OW87424   9.362   7.888   7.324  0.0060 -0.0937  0.0193
28949SOL    HW187425   9.453   7.881   7.352  0.6712 -2.4174 -2.3991
28949SOL    HW287426   9.364   7.948   7.250 -0.1913 -1.0611 -0.7926
28950SOL     OW87427   8.373   4.045   9.296 -0.5766 -0.0052 -0.2460
28950SOL    HW187428   8.335   4.031   9.383 -1.8248 -1.9546 -1.0222
28950SOL    HW287429   8.376   4.140   9.286  0.4594  0.3183  2.2381
28951SOL     OW87430  10.001   5.829   6.550  0.3032 -0.1777 -0.3007
28951SOL    HW187431   9.964   5.751   6.591  2.6030 -0.7977  0.7434
28951SOL    HW287432   9.949   5.901   6.586  1.1327 -0.8468  2.4795
28952SOL     OW87433   8.746   4.942   0.566  0.0485  0.3422  0.1023
28952SOL    HW187434   8.681   5.010   0.548 -0.4437  0.3815  1.7863
28952SOL    HW287435   8.707   4.861   0.531 -0.5591  0.4978  0.4013
28953SOL     OW87436   1.180   6.800   1.680  0.2666 -0.2304 -0.5223
28953SOL    HW187437   1.220   6.796   1.593  1.1041 -2.5584 -0.1093
28953SOL    HW287438   1.225   6.873   1.724  2.0268 -0.9353 -1.0537
28954SOL     OW87439   4.736   6.110   9.804  0.0476  0.3836 -0.1990
28954SOL    HW187440   4.661   6.171   9.801 -0.6099 -0.3550  0.8952
28954SOL    HW287441   4.812   6.167   9.794 -0.6204  1.2275 -0.6971
28955SOL     OW87442   2.127   5.129   2.583 -0.2952 -0.4704  0.0721
28955SOL    HW187443   2.076   5.192   2.634 -0.5278 -0.4923 -0.1303
28955SOL    HW287444   2.142   5.172   2.499 -0.2181 -0.5737  0.0325
28956SOL     OW87445   6.603   6.578   6.291 -0.3678 -0.3286  0.2943
28956SOL    HW187446   6.513   6.587   6.322 -0.8032 -1.4167 -0.5870
28956SOL    HW287447   6.596   6.580   6.196  0.7530  1.2762  0.1955
28957SOL     OW87448   6.359   6.540   7.327  0.9623  0.0810 -0.2304
28957SOL    HW187449   6.352   6.593   7.248 -2.2732  0.2510  0.0217
28957SOL    HW287450   6.333   6.452   7.300 -3.3904  0.7548  1.0083
28958SOL     OW87451   7.932   1.339   6.807  0.3060  0.3685 -0.0819
28958SOL    HW187452   7.984   1.260   6.821  0.4104  0.6365  1.1905
28958SOL    HW287453   7.856   1.329   6.865 -3.2049 -1.7283 -4.3941
28959SOL     OW87454   3.176   5.028   3.470  0.1157 -0.1287 -0.9220
28959SOL    HW187455   3.270   5.011   3.471  0.1556 -0.1575  1.7051
28959SOL    HW287456   3.137   4.944   3.446  0.7113 -0.6832 -0.0077
28960SOL     OW87457   8.767   9.451   1.685 -0.1438  0.2776  0.8627
28960SOL    HW187458   8.848   9.400   1.686  0.1684  0.7587  0.5854
28960SOL    HW287459   8.771   9.502   1.604 -1.2649 -0.5451  0.2620
28961SOL     OW87460   4.215   9.335   4.294 -0.1637  0.2365  0.1060
28961SOL    HW187461   4.271   9.293   4.359  1.6976 -0.0214 -1.5592
28961SOL    HW287462   4.274   9.393   4.246 -1.3861  0.2023 -1.5187
28962SOL     OW87463   7.006   1.171   0.095 -0.0322 -0.0845  0.2900
28962SOL    HW187464   7.020   1.220   0.176 -0.0034 -1.0618  0.8866
28962SOL    HW287465   6.944   1.102   0.119  2.7634 -2.7416  0.4755
28963SOL     OW87466   4.193   3.678   6.742 -0.5582  0.4080  0.4788
28963SOL    HW187467   4.233   3.707   6.660 -1.2280 -0.8827 -0.3467
28963SOL    HW287468   4.116   3.734   6.753  0.1001  1.2746  0.7939
28964SOL     OW87469   4.119   8.086   1.854 -0.2603  0.4168  0.0155
28964SOL    HW187470   4.213   8.075   1.844 -0.3441  0.3687 -0.7987
28964SOL    HW287471   4.095   8.026   1.924  0.3961  0.8417  0.6112
28965SOL     OW87472   1.051   2.714   5.376 -0.1337  0.0974 -0.2170
28965SOL    HW187473   1.059   2.808   5.391  1.8842 -0.1398  0.5160
28965SOL    HW287474   0.982   2.686   5.436 -0.4475  1.0465 -0.1240
28966SOL     OW87475   8.312   7.045   8.756 -0.1339 -0.8984 -0.0509
28966SOL    HW187476   8.304   6.996   8.838 -0.1415 -2.5942 -1.0137
28966SOL    HW287477   8.257   6.996   8.694  0.2307  0.0854 -1.1860
28967SOL     OW87478   2.747   8.610   5.648 -0.7133  0.0477  0.1147
28967SOL    HW187479   2.680   8.565   5.699 -1.8620  0.1875 -1.1876
28967SOL    HW287480   2.709   8.696   5.629 -0.5761 -0.1911 -1.4005
28968SOL     OW87481   7.908   4.687   5.324  0.2969 -0.2894  0.2726
28968SOL    HW187482   7.923   4.728   5.409  2.5389  0.0717 -0.2165
28968SOL    HW287483   7.938   4.597   5.336 -1.3159 -0.8274  0.3959
28969SOL     OW87484   3.461   4.267   8.514 -0.4210  0.2437 -0.2705
28969SOL    HW187485   3.447   4.283   8.608  2.4151  1.8063 -0.0170
28969SOL    HW287486   3.484   4.175   8.508  1.8768  0.6794  0.9827
28970SOL     OW87487   2.475   5.620   3.004  0.1048  0.1147 -0.2164
28970SOL    HW187488   2.392   5.605   2.959 -0.3066 -1.2557  0.9217
28970SOL    HW287489   2.452   5.623   3.097  1.0018  2.3441 -0.0070
28971SOL     OW87490   5.015   4.994   1.424  0.3265 -0.1262 -0.1703
28971SOL    HW187491   5.057   4.913   1.453  0.6585  0.3055  0.5965
28971SOL    HW287492   5.077   5.063   1.449 -0.8526  0.5419  1.0729
28972SOL     OW87493   3.534   8.378   4.766 -0.0546  0.3589 -0.3379
28972SOL    HW187494   3.522   8.302   4.710 -0.5287  0.4852 -0.4089
28972SOL    HW287495   3.580   8.442   4.711  0.3188  0.1412 -0.2871
28973SOL     OW87496   9.877   3.081   4.852  0.1702  0.2562 -0.0222
28973SOL    HW187497   9.838   3.145   4.911 -2.5188 -0.6117 -0.7193
28973SOL    HW287498   9.905   3.009   4.909 -1.4401 -0.1171  0.3395
28974SOL     OW87499   2.335   4.522   4.578  0.2926 -0.1330  0.5306
28974SOL    HW187500   2.280   4.451   4.610  0.1117  1.0639  3.2390
28974SOL    HW287501   2.289   4.602   4.605  1.1849  1.0038 -1.1278
28975SOL     OW87502   7.783   1.412   7.812  0.5750  0.3277  0.2230
28975SOL    HW187503   7.766   1.433   7.903  0.7655  0.4689  0.2245
28975SOL    HW287504   7.877   1.397   7.807  0.6786  1.0481 -0.0975
28976SOL     OW87505   9.618   3.435   3.655  0.3056 -0.1657  0.5943
28976SOL    HW187506   9.689   3.498   3.648 -0.2128  0.3401 -0.4397
28976SOL    HW287507   9.661   3.350   3.657  0.9350  0.0612 -1.2334
28977SOL     OW87508   5.005   6.729   1.335 -0.2454 -0.3754 -0.1424
28977SOL    HW187509   4.994   6.822   1.353  0.1317  0.0179 -1.7761
28977SOL    HW287510   5.085   6.724   1.282  0.9576 -1.8683  1.6586
28978SOL     OW87511   8.471   8.502   0.634  0.0693 -0.5107  0.7752
28978SOL    HW187512   8.550   8.452   0.655 -0.3414 -0.6473  2.1307
28978SOL    HW287513   8.482   8.584   0.682  0.8259  0.8654 -1.5753
28979SOL     OW87514   2.317   1.918   2.133  0.1711 -0.1958  0.1730
28979SOL    HW187515   2.402   1.961   2.133 -0.2059  0.5774  0.2309
28979SOL    HW287516   2.336   1.826   2.117  1.1806 -0.3928  2.3085
28980SOL     OW87517   3.007   3.303   5.769  0.0366 -0.3040  0.5979
28980SOL    HW187518   2.962   3.246   5.832 -1.0596  0.2778  0.3667
28980SOL    HW287519   3.033   3.380   5.820 -0.8818  0.1824  0.3514
28981SOL     OW87520   5.301   1.518   2.090 -0.5276  0.4038 -0.3880
28981SOL    HW187521   5.351   1.600   2.091  0.6088 -0.1238 -2.9772
28981SOL    HW287522   5.219   1.540   2.048  0.6514 -0.0673 -3.1832
28982SOL     OW87523   9.415   0.783   6.753  0.3421  0.3879 -0.1782
28982SOL    HW187524   9.463   0.858   6.716 -0.3086  0.3566 -1.1059
28982SOL    HW287525   9.401   0.807   6.844  0.4059  1.2644 -0.3883
28983SOL     OW87526   0.644   2.284   1.006  0.0216  0.1870 -0.1306
28983SOL    HW187527   0.702   2.317   0.937  0.4065  0.2118  0.2039
28983SOL    HW287528   0.556   2.305   0.975  0.2575  1.5700  0.0937
28984SOL     OW87529   9.575   4.819   1.201  0.0423 -0.3905 -0.3890
28984SOL    HW187530   9.670   4.817   1.193  0.1627 -0.5284  0.8383
28984SOL    HW287531   9.556   4.899   1.249 -0.5755  0.2756 -1.6926
28985SOL     OW87532   4.592   3.640   1.627  0.2590 -0.0144  0.4746
28985SOL    HW187533   4.657   3.583   1.586  0.2259  1.7202 -2.2374
28985SOL    HW287534   4.509   3.616   1.586  0.0897  1.2649  0.0184
28986SOL     OW87535   4.210   7.731   6.813 -0.2585  0.0212  0.0529
28986SOL    HW187536   4.115   7.740   6.807 -0.1886 -0.3344 -2.8398
28986SOL    HW287537   4.244   7.816   6.786  0.2393 -0.2629 -0.2243
28987SOL     OW87538   3.352   0.346   2.273 -0.3197 -0.2083 -0.0783
28987SOL    HW187539   3.302   0.283   2.221 -0.1640 -0.5380  0.1640
28987SOL    HW287540   3.309   0.430   2.257  0.3663 -0.1264 -1.5533
28988SOL     OW87541   8.797   6.940   3.851 -0.0096  0.6663 -0.4946
28988SOL    HW187542   8.761   6.860   3.889 -0.4291  1.4649  0.8745
28988SOL    HW287543   8.882   6.914   3.815  0.3588 -0.1693  0.9173
28989SOL     OW87544   1.458   7.923   3.459  0.3026  0.7451  0.3361
28989SOL    HW187545   1.404   7.854   3.498  0.5718  1.4573  2.0252
28989SOL    HW287546   1.429   8.003   3.501  0.9917  1.4923 -0.5606
28990SOL     OW87547   1.130   5.272   1.812  0.2009 -0.6693 -0.3252
28990SOL    HW187548   1.152   5.224   1.731  1.6819  0.1699 -0.4517
28990SOL    HW287549   1.129   5.205   1.880  1.5295 -1.0277 -0.6232
28991SOL     OW87550   1.851   3.164   6.649 -0.0729  0.3250  0.1847
28991SOL    HW187551   1.794   3.093   6.619  0.4434 -0.2785  0.5975
28991SOL    HW287552   1.866   3.218   6.572  0.3323 -0.5731 -0.3728
28992SOL     OW87553   6.754   7.110   6.385  0.1992 -0.6013 -0.3242
28992SOL    HW187554   6.803   7.136   6.307 -1.8582  0.8343 -1.2285
28992SOL    HW287555   6.713   7.027   6.361  1.2418 -1.2451  0.0414
28993SOL     OW87556   0.152   5.369   8.331  0.7113  0.3537 -0.0872
28993SOL    HW187557   0.102   5.305   8.279  0.8968  0.8604 -0.9080
28993SOL    HW287558   0.175   5.322   8.411 -2.4843  0.5774  1.1189
28994SOL     OW87559   5.895   4.680   2.730 -0.0990 -0.6939 -0.1680
28994SOL    HW187560   5.849   4.645   2.654  0.0285  0.6581 -0.8916
28994SOL    HW287561   5.907   4.773   2.711 -1.2244 -0.0009  2.0787
28995SOL     OW87562   3.602   4.402   7.467 -0.1604 -0.2713  0.4622
28995SOL    HW187563   3.551   4.484   7.467 -0.0437 -0.1776 -0.5909
28995SOL    HW287564   3.690   4.429   7.492  0.3304  0.2786 -1.6253
28996SOL     OW87565   4.710   6.185   7.661 -0.2033  0.0189 -0.1143
28996SOL    HW187566   4.718   6.098   7.622 -1.6364 -1.0069  1.7137
28996SOL    HW287567   4.720   6.171   7.755 -0.6969  1.8068  0.2565
28997SOL     OW87568   7.837   4.715   9.428  0.5195  0.2231  0.0508
28997SOL    HW187569   7.749   4.678   9.424  1.6326 -2.6140 -0.4752
28997SOL    HW287570   7.839   4.780   9.358 -1.3735  1.0088  0.6618
28998SOL     OW87571   0.126   1.239   3.744 -0.1237 -0.1096  0.1440
28998SOL    HW187572   0.192   1.175   3.771  0.0848 -0.2255 -0.6156
28998SOL    HW287573   0.109   1.219   3.652 -1.7593 -0.5343  0.5050
28999SOL     OW87574   8.270   6.348   2.928  0.4483 -0.1189 -0.7675
28999SOL    HW187575   8.285   6.434   2.889  1.9029  0.1492  0.2617
28999SOL    HW287576   8.272   6.365   3.022 -1.9377 -0.8954 -0.5372
29000SOL     OW87577   0.371   5.981   8.666 -0.3542 -0.3519  0.1355
29000SOL    HW187578   0.396   5.890   8.678  0.1950 -0.2344 -0.0672
29000SOL    HW287579   0.345   5.987   8.574  3.6640  0.5575 -1.1615
29001SOL     OW87580   6.071   2.576   9.055  0.4692  0.3271 -0.0310
29001SOL    HW187581   5.983   2.593   9.022  0.7356  1.8022 -0.0339
29001SOL    HW287582   6.095   2.492   9.016 -1.4835 -0.8487  1.1304
29002SOL     OW87583   5.926   7.367   0.563 -0.0038 -0.0952  0.0995
29002SOL    HW187584   5.895   7.333   0.479  1.6535  0.3093 -0.7253
29002SOL    HW287585   6.017   7.338   0.568  0.1381  0.5294  1.4107
29003SOL     OW87586   0.527   2.783   5.158  0.7796 -0.9326  0.3782
29003SOL    HW187587   0.537   2.719   5.229  0.1187 -2.6219 -0.9860
29003SOL    HW287588   0.579   2.748   5.086 -0.1724 -0.3198 -0.6359
29004SOL     OW87589   2.891   6.682   1.153 -0.3397  0.1145  0.5675
29004SOL    HW187590   2.937   6.633   1.222  0.3205 -0.7298 -0.4237
29004SOL    HW287591   2.823   6.622   1.122  2.0663 -1.3782 -2.4040
29005SOL     OW87592   7.734   9.038   3.758 -0.3918  0.3641  0.5772
29005SOL    HW187593   7.804   9.028   3.822 -0.5754 -0.6239  0.6362
29005SOL    HW287594   7.681   9.110   3.792  0.0692  0.5029  1.0126
29006SOL     OW87595   9.039   7.895   7.963 -0.1895  0.5492  0.1045
29006SOL    HW187596   9.108   7.917   7.901  0.0262 -2.6271 -0.9607
29006SOL    HW287597   8.958   7.904   7.914 -0.1151 -0.5581 -0.2649
29007SOL     OW87598   4.433   2.806   1.066 -0.7839  0.6106 -0.5634
29007SOL    HW187599   4.432   2.810   1.162 -1.5427 -2.7362 -0.2898
29007SOL    HW287600   4.383   2.882   1.038  1.3093  2.9297  1.5335
29008SOL     OW87601   1.784   0.284   8.031  0.2904 -0.0267 -0.2308
29008SOL    HW187602   1.871   0.244   8.042  0.4918  0.1593 -1.0571
29008SOL    HW287603   1.802   0.377   8.017 -0.0763  0.0886  0.0445
29009SOL     OW87604   8.752   9.536   0.083  0.1017  0.2795 -0.2519
29009SOL    HW187605   8.684   9.479   0.047 -0.1628  1.0240 -0.9936
29009SOL    HW287606   8.713   9.571   0.163  0.2749 -0.5830  0.2173
29010SOL     OW87607   1.600   7.792   4.651 -0.2672  0.0544  0.0765
29010SOL    HW187608   1.626   7.872   4.606  0.8720 -0.5683 -0.4048
29010SOL    HW287609   1.680   7.741   4.659 -1.1454 -1.5071 -0.5658
29011SOL     OW87610   3.771   6.251   9.419  0.4803 -0.4816 -0.4851
29011SOL    HW187611   3.800   6.202   9.342  0.5442 -0.8437 -0.2335
29011SOL    HW287612   3.848   6.302   9.445 -0.0932  1.1254 -1.7903
29012SOL     OW87613   8.988   7.167   4.481 -0.1473 -0.2188  0.2721
29012SOL    HW187614   9.056   7.212   4.532  1.0129 -0.2533 -1.1683
29012SOL    HW287615   8.956   7.234   4.420  0.3278 -0.8299 -0.6751
29013SOL     OW87616   1.072   3.344   6.685  0.1126  0.5421 -0.2245
29013SOL    HW187617   1.124   3.264   6.693 -0.0036  0.5503  0.7352
29013SOL    HW287618   0.982   3.313   6.678  0.0535  0.5798  0.2914
29014SOL     OW87619   4.062   3.335   8.081 -0.0421 -0.3965  0.0163
29014SOL    HW187620   3.987   3.277   8.067 -0.0042 -0.8461  1.5387
29014SOL    HW287621   4.024   3.415   8.117  0.1556 -0.4365  0.3161
29015SOL     OW87622   9.812   2.917   0.037 -0.1077 -0.1812 -0.2395
29015SOL    HW187623   9.798   2.904  -0.057  1.4557  0.7066 -0.6344
29015SOL    HW287624   9.889   2.973   0.042 -0.9700  0.9272  1.5599
29016SOL     OW87625   0.054   3.082   7.637 -0.2593 -0.8330  0.0460
29016SOL    HW187626   0.093   3.077   7.724 -0.0786 -1.1028 -0.0456
29016SOL    HW287627   0.026   3.173   7.628 -1.2838 -1.0587  0.8140
29017SOL     OW87628   8.164   3.561   7.942  0.4374 -0.7187  0.1369
29017SOL    HW187629   8.149   3.489   8.003  0.7505 -0.0228  1.0509
29017SOL    HW287630   8.079   3.574   7.899  0.2813 -1.3797  0.2379
29018SOL     OW87631   5.343   3.803   6.531 -0.4677  0.3209 -0.5648
29018SOL    HW187632   5.258   3.760   6.540 -1.7058  2.5397 -0.7695
29018SOL    HW287633   5.323   3.883   6.482  1.6788  1.1198 -0.2225
29019SOL     OW87634   3.734   4.816   3.645 -0.0264 -0.3539 -0.3400
29019SOL    HW187635   3.772   4.735   3.679  0.4269  0.0227  0.0675
29019SOL    HW287636   3.717   4.798   3.553  0.9918 -0.5871 -0.4910
29020SOL     OW87637   2.466   7.253   4.423 -0.4741 -0.3560 -0.6083
29020SOL    HW187638   2.551   7.265   4.382 -0.3570 -0.8838 -0.5304
29020SOL    HW287639   2.480   7.183   4.487 -0.4844  0.9238  0.8250
29021SOL     OW87640   0.550   1.541   5.138 -0.7417  0.2107  0.0395
29021SOL    HW187641   0.557   1.608   5.071  2.1349 -1.6718 -1.7340
29021SOL    HW287642   0.490   1.476   5.101 -1.1015  0.3100  0.4283
29022SOL     OW87643   0.086   9.112   3.103  0.1131  0.1920  0.5031
29022SOL    HW187644   0.134   9.137   3.024 -0.6082  0.3267  0.1010
29022SOL    HW287645   0.143   9.139   3.176  1.7518 -1.7772  0.0589
29023SOL     OW87646   4.041   5.827   6.506 -0.0764  0.0213  0.3881
29023SOL    HW187647   4.128   5.844   6.541 -1.3624  2.9210  2.5303
29023SOL    HW287648   4.037   5.880   6.426 -0.0017  0.1091  0.4430
29024SOL     OW87649   7.393   5.623   6.232 -0.6070  0.6128  0.4593
29024SOL    HW187650   7.304   5.627   6.267 -1.0289 -0.2332 -0.4565
29024SOL    HW287651   7.382   5.634   6.137  0.0907 -1.0714  0.1528
29025SOL     OW87652   8.775   7.628   5.720  0.6687  0.3074 -0.0244
29025SOL    HW187653   8.697   7.662   5.764  0.2333 -0.3453 -0.2765
29025SOL    HW287654   8.846   7.683   5.753  0.8305 -1.6793  3.5249
29026SOL     OW87655   5.102   1.425   6.352  0.0686 -0.0386  0.1516
29026SOL    HW187656   5.029   1.457   6.299  0.5063  0.6074 -0.0846
29026SOL    HW287657   5.061   1.383   6.427 -0.5486  0.5790  0.1772
29027SOL     OW87658   8.082   3.450   9.912 -0.0159  0.0130  0.1465
29027SOL    HW187659   8.086   3.461  10.007 -2.3704  0.9396  0.2114
29027SOL    HW287660   8.009   3.506   9.884 -2.3772 -3.5556 -1.6267
29028SOL     OW87661   8.303   7.090   2.844  0.1864 -0.0431  0.6821
29028SOL    HW187662   8.268   7.001   2.848 -1.8134  0.7118  1.3742
29028SOL    HW287663   8.263   7.127   2.765  2.0675 -0.1425 -0.3564
29029SOL     OW87664   4.370   4.457   3.825  0.5308  0.2833 -0.4081
29029SOL    HW187665   4.328   4.537   3.791 -0.6692  0.2390  0.8610
29029SOL    HW287666   4.340   4.388   3.766  0.3706  0.5541 -0.6504
29030SOL     OW87667   4.469   2.368   5.275 -0.6299  0.0605 -0.1093
29030SOL    HW187668   4.387   2.319   5.275  0.1396 -1.2803 -0.3060
29030SOL    HW287669   4.531   2.312   5.321  0.4130  0.6257 -0.7741
29031SOL     OW87670   5.367   5.866   7.289  0.1662  0.5667  0.0628
29031SOL    HW187671   5.292   5.845   7.233  0.7240  0.8430 -0.7997
29031SOL    HW287672   5.422   5.922   7.236  1.0925  0.2088  0.6179
29032SOL     OW87673   8.824   0.795   9.555  0.0163 -0.0935  0.5532
29032SOL    HW187674   8.896   0.747   9.598 -0.5002 -1.0076  0.4278
29032SOL    HW287675   8.747   0.772   9.606 -0.6267 -1.2855 -0.8757
29033SOL     OW87676   6.360   5.138   6.058  0.3908  0.2419 -0.5325
29033SOL    HW187677   6.305   5.216   6.057 -0.9956 -0.6997 -0.0518
29033SOL    HW287678   6.421   5.154   6.130  0.0280  0.8181 -0.3413
29034SOL     OW87679   8.090   0.221   9.658  0.1207  0.1870  0.9738
29034SOL    HW187680   8.149   0.244   9.729  0.6193  0.0821  0.5941
29034SOL    HW287681   8.005   0.258   9.685  0.8172  2.2394  0.5244
29035SOL     OW87682   2.143   5.475   9.389  0.9287  0.4166  0.1000
29035SOL    HW187683   2.170   5.547   9.332 -0.4735 -0.2408 -1.5044
29035SOL    HW287684   2.187   5.492   9.472  3.9924  0.8513 -1.4447
29036SOL     OW87685   6.354   9.315   9.564 -0.1657  0.4022  0.1022
29036SOL    HW187686   6.344   9.306   9.659 -0.9477 -0.6246 -0.0567
29036SOL    HW287687   6.447   9.305   9.548 -0.2322 -1.3460  0.6027
29037SOL     OW87688   5.475   2.988   3.952 -0.2745 -0.2201  0.3655
29037SOL    HW187689   5.413   3.048   3.993 -1.3461 -0.4526 -0.8318
29037SOL    HW287690   5.434   2.902   3.962 -0.2054 -0.3655 -0.5124
29038SOL     OW87691   2.773   8.050   8.240 -0.5970  0.3090  0.0456
29038SOL    HW187692   2.683   8.020   8.251 -0.2358 -1.4047 -1.2965
29038SOL    HW287693   2.774   8.093   8.154  0.0903 -0.6929 -0.4648
29039SOL     OW87694   5.951   7.642   3.818 -0.2383  0.2924 -0.1651
29039SOL    HW187695   6.014   7.571   3.835  0.8264  0.8829 -1.4479
29039SOL    HW287696   5.983   7.715   3.871 -0.7210  0.1519  0.3296
29040SOL     OW87697   7.123   8.520   6.612  0.0571 -0.5053 -0.3541
29040SOL    HW187698   7.060   8.448   6.623 -0.0485 -0.2060  1.3428
29040SOL    HW287699   7.088   8.572   6.541 -1.8905 -0.1093  0.8282
29041SOL     OW87700   0.618   1.192   7.426  0.2506  0.3682  0.0252
29041SOL    HW187701   0.687   1.192   7.492 -0.2421 -0.9292  0.5761
29041SOL    HW287702   0.537   1.202   7.476 -0.0161  1.1433 -0.5482
29042SOL     OW87703   5.675   3.214   5.830 -0.7227  0.0891  0.0770
29042SOL    HW187704   5.727   3.164   5.893  0.1269 -0.1473 -0.7833
29042SOL    HW287705   5.585   3.209   5.864 -0.3674 -0.4639  0.9834
29043SOL     OW87706   3.131   8.882   2.400 -0.2485 -0.4504 -0.2613
29043SOL    HW187707   3.040   8.899   2.425  0.0382  0.8036 -0.0198
29043SOL    HW287708   3.171   8.844   2.478 -0.4902 -0.7672 -0.2874
29044SOL     OW87709   6.850   5.641   1.768 -0.2455 -0.6004  0.7495
29044SOL    HW187710   6.881   5.728   1.744  0.2689 -0.7037  1.0452
29044SOL    HW287711   6.773   5.658   1.823  0.4592 -0.3104  1.6642
29045SOL     OW87712   7.671   5.866   6.263  0.3771 -0.5118  0.3275
29045SOL    HW187713   7.739   5.921   6.302  0.7735 -0.7905  0.0351
29045SOL    HW287714   7.712   5.828   6.186 -0.1000 -0.7147  0.1699
29046SOL     OW87715   5.388   9.906   1.274 -0.8946 -0.3689 -0.1343
29046SOL    HW187716   5.300   9.877   1.301  0.5941 -3.0635  2.4369
29046SOL    HW287717   5.423   9.832   1.226  0.9463 -0.5513  1.3880
29047SOL     OW87718   8.973   4.418   3.381  0.4055  0.4785  0.4948
29047SOL    HW187719   9.000   4.326   3.373 -0.6663  0.3085 -2.3866
29047SOL    HW287720   8.879   4.413   3.397 -0.2580  0.9592 -2.6526
29048SOL     OW87721   3.211   3.268   3.048  0.4152 -0.5171 -0.0291
29048SOL    HW187722   3.202   3.174   3.033  3.1270 -0.9616  0.7162
29048SOL    HW287723   3.254   3.301   2.969 -2.0456  0.4910 -1.0535
29049SOL     OW87724   3.575   5.682   2.523  0.4250 -0.3938  0.1359
29049SOL    HW187725   3.563   5.777   2.515 -1.2234 -0.5873 -0.0746
29049SOL    HW287726   3.605   5.669   2.613 -1.0533  0.2282  0.7580
29050SOL     OW87727   8.381   4.856   3.445 -0.2655  0.0772 -0.1157
29050SOL    HW187728   8.328   4.816   3.513 -1.5161 -1.2246 -1.7702
29050SOL    HW287729   8.323   4.920   3.404  0.3854  0.6622 -0.1391
29051SOL     OW87730   7.429   7.339   3.067  0.3998  0.2963  0.0506
29051SOL    HW187731   7.453   7.278   2.997 -0.2573  0.3414 -0.2212
29051SOL    HW287732   7.333   7.341   3.066  0.4062  1.2434  0.1209
29052SOL     OW87733   8.153   4.519   9.583 -0.5841 -0.6282  0.1697
29052SOL    HW187734   8.239   4.512   9.624 -0.3201 -1.8780 -0.5278
29052SOL    HW287735   8.119   4.429   9.583 -1.4643 -0.3126 -0.4398
29053SOL     OW87736   7.187   8.045   6.755 -0.0317  0.2749  0.1882
29053SOL    HW187737   7.136   8.068   6.833 -0.9546  1.3953 -0.6938
29053SOL    HW287738   7.241   8.122   6.739 -0.1209  0.2007 -0.4771
29054SOL     OW87739   4.282   2.472   0.304  0.3239  0.4720 -0.7587
29054SOL    HW187740   4.205   2.440   0.257 -0.6188  1.4198  0.0604
29054SOL    HW287741   4.318   2.395   0.347 -0.6838  0.1367 -0.4829
29055SOL     OW87742   7.305   7.143   9.751  0.0331 -0.4082  0.2192
29055SOL    HW187743   7.396   7.115   9.739  0.0238  0.0981 -1.1767
29055SOL    HW287744   7.254   7.076   9.706 -0.3262 -0.8466  1.2464
29056SOL     OW87745   0.575   4.348   5.617 -0.6686  0.1941 -0.4025
29056SOL    HW187746   0.601   4.256   5.620 -0.4795  0.2184 -1.0703
29056SOL    HW287747   0.479   4.345   5.614 -0.6951  0.0541  0.5577
29057SOL     OW87748   3.288   3.961   2.315 -0.0067 -0.2106 -0.2600
29057SOL    HW187749   3.298   3.903   2.240  0.2677 -1.4768  0.7148
29057SOL    HW287750   3.250   3.906   2.383  0.4725  0.6920  0.7793
29058SOL     OW87751   2.206   8.795   8.005 -0.0116 -0.0581 -0.6615
29058SOL    HW187752   2.224   8.813   8.097  2.4584 -0.1962 -1.0580
29058SOL    HW287753   2.118   8.831   7.991 -0.7721 -0.7175  1.8943
29059SOL     OW87754   5.702   1.139   0.510  0.1545  0.4381 -0.0184
29059SOL    HW187755   5.611   1.121   0.486  0.3810 -0.9424  0.0758
29059SOL    HW287756   5.741   1.053   0.523  1.6156  0.9896 -0.5182
29060SOL     OW87757   0.382   2.675   1.503  0.2026  0.1673  0.5500
29060SOL    HW187758   0.343   2.672   1.416  1.4573 -0.6570 -0.0114
29060SOL    HW287759   0.316   2.634   1.560 -1.2959  2.0876  0.3131
29061SOL     OW87760   7.755   9.523   7.718  0.2222 -0.0506  0.2425
29061SOL    HW187761   7.743   9.601   7.773 -1.4731  0.1284 -0.3098
29061SOL    HW287762   7.718   9.452   7.771  1.4096 -0.4383  0.5816
29062SOL     OW87763   7.153   7.302   2.342 -0.2537 -0.4897 -0.2117
29062SOL    HW187764   7.194   7.216   2.335 -2.7572 -1.7114 -1.5321
29062SOL    HW287765   7.123   7.307   2.433 -0.0230 -1.0015 -0.1027
29063SOL     OW87766   3.399   4.219   2.965  0.4115 -0.1805  0.3115
29063SOL    HW187767   3.312   4.189   2.989 -0.0022 -0.5191 -1.5104
29063SOL    HW287768   3.392   4.314   2.964 -0.2766 -0.2294 -0.9637
29064SOL     OW87769   4.065   5.078   2.342 -0.1157  0.2629 -0.3652
29064SOL    HW187770   4.085   5.042   2.429  1.1047  1.8044  0.0321
29064SOL    HW287771   4.148   5.076   2.295 -0.2852  1.4051 -0.7437
29065SOL     OW87772   7.389   1.367   6.721  0.0902  0.5156 -0.1871
29065SOL    HW187773   7.402   1.419   6.801  0.1414 -0.6919  0.6223
29065SOL    HW287774   7.368   1.432   6.654  0.4452  1.6077  0.7083
29066SOL     OW87775   2.589   0.877   2.014  0.0662  0.0461 -0.4346
29066SOL    HW187776   2.626   0.823   2.085  1.3457  0.7166 -0.5647
29066SOL    HW287777   2.548   0.814   1.955  0.1087 -0.6331  0.2392
29067SOL     OW87778   4.392   2.957   0.573  0.1721 -0.2647 -0.0217
29067SOL    HW187779   4.471   2.925   0.616  1.1610 -0.2216 -1.7240
29067SOL    HW287780   4.373   2.892   0.506 -0.3149  0.5192 -0.6671
29068SOL     OW87781   8.123   8.823   0.831 -0.3304 -0.0283  0.6416
29068SOL    HW187782   8.212   8.793   0.852  0.9740  0.4556 -3.3913
29068SOL    HW287783   8.080   8.746   0.793 -0.5689  0.4937 -0.1707
29069SOL     OW87784   1.648   9.808   4.405 -0.3097 -0.6926 -0.1899
29069SOL    HW187785   1.606   9.755   4.473 -3.4609 -0.8116 -1.9840
29069SOL    HW287786   1.677   9.887   4.450 -0.6346 -1.5391  1.5946
29070SOL     OW87787   4.510   4.479   9.560 -0.3065  0.1175 -0.0679
29070SOL    HW187788   4.582   4.543   9.560  1.3982 -1.6552  1.2313
29070SOL    HW287789   4.537   4.414   9.625 -2.8622 -0.9454  0.0276
29071SOL     OW87790   9.712   7.628   3.957  0.2837  0.3503  0.2436
29071SOL    HW187791   9.717   7.664   4.045 -1.2531  0.7536  0.1888
29071SOL    HW287792   9.722   7.703   3.899 -1.3974  0.5035  0.1166
29072SOL     OW87793   4.709   3.050   1.969 -0.0354  0.7110 -0.3693
29072SOL    HW187794   4.725   3.140   1.941 -0.2946  0.4703 -1.3224
29072SOL    HW287795   4.680   3.005   1.890 -1.1474  0.0983  0.3574
29073SOL     OW87796   1.705   3.083   8.077 -0.1438 -0.6535 -0.1414
29073SOL    HW187797   1.667   3.079   7.989  1.0345  0.1531 -0.7194
29073SOL    HW287798   1.797   3.106   8.062 -0.1801  0.6288  1.3564
29074SOL     OW87799   8.151   5.079   3.591  0.9327  0.6142  0.1811
29074SOL    HW187800   8.163   5.062   3.498 -0.6835 -0.0579  0.0535
29074SOL    HW287801   8.205   5.013   3.635 -0.3433 -0.8113 -0.3128
29075SOL     OW87802   3.753   3.718   9.345 -0.0259  0.3227  0.1620
29075SOL    HW187803   3.844   3.748   9.350  0.4855 -0.9603 -0.8560
29075SOL    HW287804   3.703   3.784   9.393  1.6376  0.1716  2.2686
29076SOL     OW87805   8.639   8.597   4.016  0.0094 -0.1724  0.0763
29076SOL    HW187806   8.708   8.599   3.950 -0.0938 -1.2547 -0.0842
29076SOL    HW287807   8.584   8.673   3.996  0.7331  0.2750 -0.2475
29077SOL     OW87808   9.107   2.607   4.898 -0.1601 -0.4910  0.1908
29077SOL    HW187809   9.126   2.557   4.977 -0.3731 -0.9241 -0.0295
29077SOL    HW287810   9.067   2.688   4.930  1.9409  0.4140  0.6584
29078SOL     OW87811   6.890   5.977   6.338 -0.4714  0.2650 -0.3257
29078SOL    HW187812   6.972   5.964   6.291 -1.0258 -1.4456 -0.9172
29078SOL    HW287813   6.849   5.890   6.337 -1.7982  0.8527  0.8671
29079SOL     OW87814   6.566   4.723   1.401  0.0801  0.2160  0.5978
29079SOL    HW187815   6.530   4.650   1.351 -2.4441  2.6510 -1.5602
29079SOL    HW287816   6.517   4.722   1.484 -0.6983  0.0445  0.1460
29080SOL     OW87817   5.067   8.105   3.783 -0.5862  0.9554  0.2619
29080SOL    HW187818   5.091   8.185   3.735 -1.1552  1.8032  1.3488
29080SOL    HW287819   4.974   8.094   3.765 -0.1237 -0.5614 -1.4145
29081SOL     OW87820   2.269   6.691   5.108 -0.6104  0.0294  1.0800
29081SOL    HW187821   2.204   6.653   5.168  1.4025 -1.6344  2.3295
29081SOL    HW287822   2.295   6.618   5.052  1.2891  0.2139  1.6551
29082SOL     OW87823   0.758   2.607   7.709  0.0191  0.0870  0.3417
29082SOL    HW187824   0.681   2.664   7.713 -2.2243 -2.7784  1.6811
29082SOL    HW287825   0.824   2.650   7.764 -0.9803  2.0914  0.0402
29083SOL     OW87826   2.563   8.664   1.023 -0.8468 -0.7250 -0.3461
29083SOL    HW187827   2.650   8.676   0.985  0.4888 -0.7245  2.5014
29083SOL    HW287828   2.550   8.569   1.022 -1.4412 -0.6638 -1.9409
29084SOL     OW87829   0.106   9.475   4.283 -0.2644  0.7961  0.9105
29084SOL    HW187830   0.153   9.522   4.352  2.4835 -0.9405  0.3788
29084SOL    HW287831   0.132   9.518   4.202  3.3935 -2.0884  0.2639
29085SOL     OW87832   4.465   6.718   8.981  0.1487 -0.1372 -0.2329
29085SOL    HW187833   4.416   6.728   9.062  0.6033  1.1595 -0.1091
29085SOL    HW287834   4.443   6.795   8.929  0.4880 -0.5490 -1.0088
29086SOL     OW87835   0.649   7.282   2.520 -0.1346 -0.1787  0.0202
29086SOL    HW187836   0.594   7.356   2.546 -0.5577 -0.6912  0.6115
29086SOL    HW287837   0.718   7.279   2.586  0.8643  0.6918 -0.9213
29087SOL     OW87838   3.175   7.655   9.768  0.2355  0.0214  0.0006
29087SOL    HW187839   3.229   7.585   9.733  1.5858  1.6573 -1.3864
29087SOL    HW287840   3.155   7.628   9.858  2.5198 -1.1228  0.2245
29088SOL     OW87841   5.475   0.685   4.650  0.5500 -0.3838 -0.7461
29088SOL    HW187842   5.535   0.759   4.638 -1.8101  1.4512 -2.3485
29088SOL    HW287843   5.501   0.622   4.583  0.5538  0.5224 -1.6202
29089SOL     OW87844   2.626   2.853   4.773  0.5698  0.4495  0.1386
29089SOL    HW187845   2.637   2.945   4.798 -0.0618  0.4672  0.3673
29089SOL    HW287846   2.533   2.836   4.785  0.2309  0.4208 -2.0953
29090SOL     OW87847   9.739   0.667   6.122  0.1097 -0.0221 -0.5258
29090SOL    HW187848   9.658   0.658   6.072 -0.4535 -0.7547  0.4951
29090SOL    HW287849   9.721   0.624   6.205  1.4879 -0.0275 -0.2093
29091SOL     OW87850   9.802   8.281   0.814 -0.7254 -0.2257  0.4695
29091SOL    HW187851   9.753   8.265   0.895 -1.1852 -1.5958 -0.0568
29091SOL    HW287852   9.890   8.305   0.844 -1.0860  0.0101  1.3759
29092SOL     OW87853   1.941   2.280   9.825 -0.4876  0.0321 -0.1945
29092SOL    HW187854   2.023   2.309   9.786  0.2760 -2.5374 -0.6299
29092SOL    HW287855   1.948   2.307   9.917 -0.0626  1.5588 -0.6361
29093SOL     OW87856   7.603   0.286   1.188  0.4617  0.3545  0.0677
29093SOL    HW187857   7.513   0.277   1.159 -0.0345  0.7822  1.4024
29093SOL    HW287858   7.615   0.216   1.252  0.9601  0.5342  0.1772
29094SOL     OW87859   8.611   0.418   1.165  0.1252  0.2228  0.0688
29094SOL    HW187860   8.677   0.455   1.225 -0.0655 -1.0916  1.1254
29094SOL    HW287861   8.650   0.428   1.078  0.3998  2.2011  0.3656
29095SOL     OW87862   1.701   9.661   0.884  0.0153 -0.4037 -0.1032
29095SOL    HW187863   1.701   9.583   0.941 -1.0490 -1.6343 -1.7138
29095SOL    HW287864   1.726   9.627   0.798 -1.6189  0.8088 -1.1008
29096SOL     OW87865   5.522   9.072   8.980 -0.2551  0.8664  0.3436
29096SOL    HW187866   5.559   9.035   9.060 -1.1653  0.3796  0.5508
29096SOL    HW287867   5.526   9.167   8.993  2.8772  0.9815 -0.5403
29097SOL     OW87868   5.867   5.504   9.859 -0.2393  0.0421 -0.4888
29097SOL    HW187869   5.946   5.556   9.844 -0.1043 -0.1004 -0.2913
29097SOL    HW287870   5.852   5.511   9.953 -0.1790 -0.3290 -0.4503
29098SOL     OW87871   5.544   6.662   4.036  0.1946 -0.0787  0.4932
29098SOL    HW187872   5.569   6.752   4.056 -0.3299 -0.2116  1.8702
29098SOL    HW287873   5.596   6.609   4.097 -0.3163 -0.6263  0.4621
29099SOL     OW87874   6.596   8.761   6.707 -0.0115 -0.4032 -0.1766
29099SOL    HW187875   6.623   8.677   6.745 -0.7438 -0.0226  1.2545
29099SOL    HW287876   6.675   8.793   6.663  0.7926 -1.0621  0.7113
29100SOL     OW87877   7.612   9.061   1.012 -0.3250  0.3166 -0.7552
29100SOL    HW187878   7.604   9.047   0.918  1.4101  1.5867 -1.1601
29100SOL    HW287879   7.538   9.117   1.035 -2.4808 -2.3694 -0.7091
29101SOL     OW87880  10.002   2.472   1.286 -0.0452  0.1810  0.3577
29101SOL    HW187881   9.933   2.406   1.284 -0.7035  0.8491  0.4447
29101SOL    HW287882   9.990   2.522   1.205 -0.0323  0.6645  0.6476
29102SOL     OW87883   2.524   9.486   5.828  0.2686  0.0016 -0.5181
29102SOL    HW187884   2.582   9.557   5.802 -2.1658  2.0244 -0.8615
29102SOL    HW287885   2.545   9.415   5.768  1.5133  1.0893 -1.4323
29103SOL     OW87886   5.484   9.929   1.524 -0.6344 -0.4111  0.4615
29103SOL    HW187887   5.394   9.954   1.547 -1.2535 -0.9299 -1.2478
29103SOL    HW287888   5.485   9.929   1.429  1.6394  1.1062  0.4108
29104SOL     OW87889   0.813   3.072   7.956  0.1920 -0.3118  0.2472
29104SOL    HW187890   0.908   3.076   7.965  0.1001  2.0709  0.7615
29104SOL    HW287891   0.788   3.159   7.925 -1.8445 -0.8187  0.3305
29105SOL     OW87892   5.503   0.156   7.006  0.2504  0.0622  0.4442
29105SOL    HW187893   5.563   0.102   6.954  1.3119  0.7194  0.9463
29105SOL    HW287894   5.469   0.220   6.944 -1.4074 -1.4197 -0.2764
29106SOL     OW87895   1.168   8.039   8.644 -0.0794  0.6095  0.5468
29106SOL    HW187896   1.196   8.001   8.727 -0.9191  0.6127  0.8330
29106SOL    HW287897   1.227   8.001   8.579 -1.8336 -2.4299  0.5651
29107SOL     OW87898   6.613   6.124   9.747  0.0209  0.2013 -0.1528
29107SOL    HW187899   6.560   6.169   9.681  1.7396  1.0922 -1.0102
29107SOL    HW287900   6.554   6.061   9.787 -1.2537  0.0176 -2.1648
29108SOL     OW87901   6.973   5.183   2.405 -0.5092 -0.2535  0.0546
29108SOL    HW187902   7.009   5.262   2.445  0.8564 -0.1477 -1.2915
29108SOL    HW287903   7.013   5.111   2.454  1.8908 -0.1483 -1.5292
29109SOL     OW87904   0.036   2.049   5.776  0.0525  0.3839 -0.4124
29109SOL    HW187905   0.113   2.009   5.817 -0.3111 -1.9142 -1.8042
29109SOL    HW287906  -0.013   2.087   5.849  1.3697 -0.1223  0.7810
29110SOL     OW87907   7.240   3.730   5.346 -0.2246  0.8048 -0.0045
29110SOL    HW187908   7.318   3.706   5.297 -0.4264  0.7400 -0.3006
29110SOL    HW287909   7.167   3.703   5.290 -0.4726 -0.0905  0.7184
29111SOL     OW87910   9.393   5.969   9.459 -0.4009 -0.3647 -0.4535
29111SOL    HW187911   9.404   5.955   9.365  2.6581  0.8783 -0.3978
29111SOL    HW287912   9.463   5.919   9.500  0.9070  2.2593  0.7952
29112SOL     OW87913   3.200   0.235   5.807 -0.1468 -0.1897  1.0431
29112SOL    HW187914   3.142   0.290   5.755 -1.8733 -2.3694  0.5301
29112SOL    HW287915   3.153   0.222   5.889  0.2904 -0.8181  1.2002
29113SOL     OW87916   4.013   9.038   5.832  0.3648  0.2813 -0.5183
29113SOL    HW187917   4.081   9.010   5.770  0.8451  0.7585 -0.2136
29113SOL    HW287918   3.933   9.038   5.780  0.3711 -1.4499 -0.5925
29114SOL     OW87919   0.018   8.010   6.391  0.0559  0.1886 -0.5125
29114SOL    HW187920   0.012   8.106   6.382  2.2177  0.4627  0.4012
29114SOL    HW287921   0.090   7.985   6.334  0.6469 -0.6587  0.5785
29115SOL     OW87922   4.764   8.047   2.457 -0.2943  0.1963  0.3340
29115SOL    HW187923   4.768   8.075   2.548  0.8528 -0.5547  0.5410
29115SOL    HW287924   4.758   7.952   2.461 -1.4692  0.2283 -0.3752
29116SOL     OW87925   6.139   1.597   3.762 -0.0612  0.5569 -0.5889
29116SOL    HW187926   6.132   1.504   3.784  2.5014  0.3053 -0.4995
29116SOL    HW287927   6.049   1.627   3.751 -1.0436 -1.4414  1.4111
29117SOL     OW87928   8.792   0.748   2.601 -0.2227 -0.3340  0.6560
29117SOL    HW187929   8.804   0.792   2.685  0.4197 -0.9550  0.8967
29117SOL    HW287930   8.823   0.810   2.536  2.0437 -0.9266  1.0890
29118SOL     OW87931   6.004   3.482   0.096  0.5722  0.2677  0.1594
29118SOL    HW187932   5.952   3.402   0.106  0.0807  0.3093 -1.6132
29118SOL    HW287933   6.093   3.451   0.081  0.0659 -0.1437 -2.6275
29119SOL     OW87934   6.154   7.514   7.486  0.4268  0.1228  0.0681
29119SOL    HW187935   6.225   7.459   7.451  1.1469  0.2087  1.3274
29119SOL    HW287936   6.159   7.594   7.435  1.7443  0.4241  0.6226
29120SOL     OW87937   8.740   0.800   8.979 -0.3758 -0.1693  0.2885
29120SOL    HW187938   8.774   0.729   8.925  0.1921  0.2767  0.0433
29120SOL    HW287939   8.755   0.879   8.927  0.8738  0.3552  1.3936
29121SOL     OW87940   4.999   9.536   7.924 -0.2478  0.4431 -0.1699
29121SOL    HW187941   4.934   9.523   7.855 -1.8871  0.5458  1.2848
29121SOL    HW287942   5.060   9.463   7.914 -1.1382 -0.2143 -0.9800
29122SOL     OW87943   8.919   2.459   8.269  0.7062 -0.1840 -0.1441
29122SOL    HW187944   9.002   2.426   8.305  0.7459  2.3636  2.4493
29122SOL    HW287945   8.860   2.462   8.344 -1.1686 -0.1181 -1.5580
29123SOL     OW87946   7.696   8.629   3.899  0.3794  0.6788  0.8879
29123SOL    HW187947   7.693   8.583   3.816  1.5871  0.0434  1.1703
29123SOL    HW287948   7.701   8.721   3.876 -1.5890  0.6872  0.3120
29124SOL     OW87949   7.770   2.834   1.021  0.3587 -0.7724  0.0582
29124SOL    HW187950   7.862   2.813   1.006  0.8551  1.5277 -0.4989
29124SOL    HW287951   7.768   2.877   1.107  0.0348  0.2926 -0.4594
29125SOL     OW87952   7.085   1.742   0.426  0.1634  0.1429  0.7460
29125SOL    HW187953   7.103   1.788   0.344  1.5158  0.0267  0.9505
29125SOL    HW287954   7.000   1.776   0.455  0.7498  1.9367  0.4951
29126SOL     OW87955   3.445   2.285   7.241 -0.4610 -0.0270 -0.0398
29126SOL    HW187956   3.499   2.217   7.200 -0.3207 -0.6424  1.1176
29126SOL    HW287957   3.459   2.273   7.335 -0.5571  1.5176  0.1981
29127SOL     OW87958   9.588   9.747   9.786  0.2691  0.5150 -0.6758
29127SOL    HW187959   9.510   9.791   9.751  0.5254 -0.7242 -3.0286
29127SOL    HW287960   9.584   9.659   9.748  0.8579 -0.8620  2.2150
29128SOL     OW87961   4.779   4.577   1.523 -0.7228  0.1318 -0.3588
29128SOL    HW187962   4.875   4.578   1.523 -0.6829 -1.1871  0.7975
29128SOL    HW287963   4.756   4.535   1.440 -0.2678 -0.1680 -0.3412
29129SOL     OW87964   9.281   9.740   7.809  0.5894 -0.2299  0.3484
29129SOL    HW187965   9.226   9.662   7.814 -1.2433  0.7381 -2.3133
29129SOL    HW287966   9.247   9.798   7.878  0.9840 -1.1982  1.3680
29130SOL     OW87967   2.149   5.560   6.244  0.0932  0.4536  0.2896
29130SOL    HW187968   2.094   5.528   6.172  0.6694 -2.8523  1.1127
29130SOL    HW287969   2.238   5.549   6.213  0.3239  0.4043  0.9399
29131SOL     OW87970   8.230   8.193   6.533 -1.1531 -0.3552 -0.8854
29131SOL    HW187971   8.271   8.214   6.449 -1.8783  0.7184 -0.9888
29131SOL    HW287972   8.158   8.256   6.541 -1.4293 -0.7953  0.2958
29132SOL     OW87973   0.155   2.700   3.226 -0.1490 -0.0823  0.0234
29132SOL    HW187974   0.159   2.701   3.322 -1.1326 -2.6933  0.1856
29132SOL    HW287975   0.122   2.613   3.205  0.1109  0.4006 -2.7227
29133SOL     OW87976   2.961   0.432   8.876 -0.2840 -0.0586 -0.3783
29133SOL    HW187977   2.876   0.434   8.832 -1.3070 -0.8334  1.4086
29133SOL    HW287978   2.997   0.347   8.853 -1.2253 -0.8486  0.9004
29134SOL     OW87979   4.305   5.539   9.802  0.3814 -0.2905 -0.2061
29134SOL    HW187980   4.356   5.520   9.881  1.3170 -2.3170 -1.2293
29134SOL    HW287981   4.220   5.499   9.818  0.7258 -1.1098 -0.3878
29135SOL     OW87982   0.424   2.356   8.976 -0.0586 -0.1699  0.6878
29135SOL    HW187983   0.505   2.403   8.996  0.5153 -0.9491  0.2749
29135SOL    HW287984   0.387   2.332   9.061  0.2977 -0.0488  0.8762
29136SOL     OW87985   5.168   1.465   7.546 -0.0338 -0.1705 -0.3208
29136SOL    HW187986   5.087   1.458   7.597 -0.3955 -1.4537 -1.0295
29136SOL    HW287987   5.170   1.555   7.516 -0.3684  0.3159  1.0422
29137SOL     OW87988   0.593   7.889   0.257 -0.0331  0.1525 -0.1585
29137SOL    HW187989   0.629   7.801   0.272 -0.7044 -0.0490  0.3393
29137SOL    HW287990   0.571   7.921   0.344 -0.0172  0.7170 -0.3636
29138SOL     OW87991   2.539   0.744   9.908  0.5105 -0.4974  0.2949
29138SOL    HW187992   2.523   0.677   9.975 -1.4148  1.3749  1.8340
29138SOL    HW287993   2.515   0.701   9.826  0.7607 -2.1281  1.0192
29139SOL     OW87994   6.890   1.302   4.848 -1.3843  0.5190 -0.1261
29139SOL    HW187995   6.845   1.288   4.931 -1.5276  0.0602 -0.2836
29139SOL    HW287996   6.982   1.314   4.873 -1.3411 -0.1756  0.0516
29140SOL     OW87997   4.620   5.611   7.350  0.2024  0.2239  0.2700
29140SOL    HW187998   4.621   5.672   7.276 -0.0167  0.9615  0.8612
29140SOL    HW287999   4.527   5.595   7.367  0.2011  1.1783  1.2716
29141SOL     OW88000   9.422   6.184   6.041  0.4274  0.2238 -0.0193
29141SOL    HW188001   9.404   6.091   6.027  1.3575 -0.2660  1.6914
29141SOL    HW288002   9.518   6.190   6.042  0.4002  1.5107 -1.7690
29142SOL     OW88003   0.226   1.805   0.503  0.4003  0.3397 -0.3416
29142SOL    HW188004   0.307   1.853   0.488 -0.9164  2.5679 -0.7363
29142SOL    HW288005   0.182   1.853   0.574 -1.5759  0.5428 -1.6320
29143SOL     OW88006   9.040   4.802   0.203 -0.4308 -0.6295 -0.1412
29143SOL    HW188007   9.019   4.808   0.296 -1.0941 -0.0524 -0.3220
29143SOL    HW288008   9.004   4.718   0.176 -1.1236 -0.3512 -0.0949
29144SOL     OW88009   3.854   4.828   1.163  0.4176 -0.0093 -0.4428
29144SOL    HW188010   3.925   4.768   1.143 -0.7307 -1.2617 -0.9000
29144SOL    HW288011   3.811   4.789   1.239 -0.2709  0.2935 -0.6694
29145SOL     OW88012   9.461   8.435   2.493 -1.0700 -0.4166  0.8641
29145SOL    HW188013   9.386   8.449   2.551 -0.7966  0.7371  0.9832
29145SOL    HW288014   9.532   8.408   2.552 -1.1235 -0.4907  0.8945
29146SOL     OW88015   8.757   8.683   3.778 -0.5282  0.2364  0.2766
29146SOL    HW188016   8.742   8.651   3.689 -1.0566 -0.6473  0.6640
29146SOL    HW288017   8.753   8.778   3.771 -0.1138  0.1862 -0.7162
29147SOL     OW88018   9.589   8.854   3.925 -0.6425  0.1682 -0.1681
29147SOL    HW188019   9.599   8.920   3.856  2.6318 -2.0971 -2.1414
29147SOL    HW288020   9.629   8.893   4.002  0.1138  0.9938 -0.9518
29148SOL     OW88021   2.681   6.497   2.417  0.1371  0.0861 -0.0294
29148SOL    HW188022   2.737   6.469   2.489  0.2589 -1.0378 -0.5467
29148SOL    HW288023   2.648   6.415   2.379  0.5064  0.6371 -1.5950
29149SOL     OW88024   6.764   3.391   4.605 -0.5931 -0.0518 -0.2800
29149SOL    HW188025   6.676   3.420   4.628 -0.2859  0.2536  0.5875
29149SOL    HW288026   6.769   3.301   4.637 -0.6735 -0.1477 -0.5430
29150SOL     OW88027   7.374   1.488   2.458 -0.3215  0.3567  0.3417
29150SOL    HW188028   7.330   1.564   2.495 -0.4661 -0.2524  1.4632
29150SOL    HW288029   7.384   1.508   2.365 -1.6060  1.1435  0.3604
29151SOL     OW88030   1.942   9.444   4.308 -0.1693  0.4172  0.0305
29151SOL    HW188031   1.871   9.507   4.297  1.3057  1.9353 -1.4974
29151SOL    HW288032   1.977   9.431   4.219  0.8180 -1.0640  0.5877
29152SOL     OW88033   0.020   4.239   6.910  0.0984 -0.0062  0.2948
29152SOL    HW188034   0.109   4.222   6.878 -0.2398  0.6824 -1.0886
29152SOL    HW288035   0.033   4.270   6.999  1.2769  0.3970  0.0128
29153SOL     OW88036   5.832   6.612   7.857  0.3788  0.5526  0.3230
29153SOL    HW188037   5.789   6.696   7.843  1.6439  1.0371 -0.8341
29153SOL    HW288038   5.879   6.623   7.940 -0.3467  0.5855  0.7410
29154SOL     OW88039   2.626   7.857   1.016 -0.4119  0.4116 -0.3681
29154SOL    HW188040   2.566   7.783   1.019 -0.1673  0.2060 -0.5500
29154SOL    HW288041   2.685   7.837   0.943 -0.0298  0.5449 -0.0962
29155SOL     OW88042   6.691   3.899   0.302  0.3887  0.2453 -0.0165
29155SOL    HW188043   6.618   3.957   0.322 -0.3517 -0.5882 -0.2388
29155SOL    HW288044   6.768   3.943   0.339 -0.2647  0.9911  0.4805
29156SOL     OW88045   1.939   4.298   6.172 -0.4320 -0.6331  0.0327
29156SOL    HW188046   1.968   4.307   6.081  1.5039 -0.5923  0.6008
29156SOL    HW288047   1.898   4.382   6.193 -1.7270 -0.9665 -1.0434
29157SOL     OW88048   7.906   7.843   2.189  0.1388  0.0504  0.2174
29157SOL    HW188049   7.918   7.852   2.284  2.4813  0.2080 -0.0330
29157SOL    HW288050   7.942   7.924   2.153 -1.0050  0.1166 -0.8082
29158SOL     OW88051   3.266   1.175   4.565 -0.0563 -0.0587 -0.3617
29158SOL    HW188052   3.174   1.197   4.579  0.0687 -0.1762  0.7070
29158SOL    HW288053   3.312   1.217   4.637  0.5438 -1.2221 -0.0444
29159SOL     OW88054   0.900   4.383   5.077  0.2539 -0.3824  0.3933
29159SOL    HW188055   0.885   4.331   5.156  2.6813 -1.2453  0.3609
29159SOL    HW288056   0.941   4.322   5.016 -1.8833  0.1499 -1.7366
29160SOL     OW88057   9.478   2.645   4.316  0.0840 -0.2279  0.5729
29160SOL    HW188058   9.460   2.563   4.270  0.2272 -0.0069  0.1247
29160SOL    HW288059   9.395   2.692   4.317 -0.2323 -0.7645  1.6260
29161SOL     OW88060   9.663   3.438   0.215  0.1868  0.1096  0.1144
29161SOL    HW188061   9.744   3.483   0.190  0.8796 -2.2608 -2.4375
29161SOL    HW288062   9.593   3.494   0.181  0.9915 -0.2713 -2.3690
29162SOL     OW88063   0.440   7.475   2.774  0.2175 -0.1951 -0.2244
29162SOL    HW188064   0.431   7.383   2.797 -1.9947 -0.1056 -0.5482
29162SOL    HW288065   0.378   7.488   2.702 -0.9847  1.9468  1.0936
29163SOL     OW88066   7.002   3.944   2.545 -0.2567 -1.0908  0.5816
29163SOL    HW188067   6.935   3.902   2.599  0.2702 -0.4757  1.7717
29163SOL    HW288068   7.031   4.019   2.598 -2.0696  1.6282 -1.9539
29164SOL     OW88069   4.667   7.016   9.278 -0.1549  0.4705 -0.0915
29164SOL    HW188070   4.714   7.001   9.359 -1.0628  1.0053  0.5539
29164SOL    HW288071   4.685   7.108   9.257  1.1007  0.0124 -1.1974
29165SOL     OW88072   3.424   3.445   3.435  0.3706 -0.3892 -0.2840
29165SOL    HW188073   3.475   3.521   3.463 -1.0212 -0.1498  1.8437
29165SOL    HW288074   3.490   3.381   3.406  1.5360  2.0503 -3.6364
29166SOL     OW88075   9.746   7.320   2.888  0.3755 -0.3193  0.1913
29166SOL    HW188076   9.804   7.298   2.961  0.1614  0.0895  0.4877
29166SOL    HW288077   9.660   7.329   2.927  0.5877  2.0036  0.2888
29167SOL     OW88078   4.750   1.679   7.773  0.2143 -0.2495  0.3895
29167SOL    HW188079   4.834   1.723   7.784  0.0139 -0.0320  1.1146
29167SOL    HW288080   4.743   1.619   7.848 -0.3149 -0.1868  0.3976
29168SOL     OW88081   6.639   2.432   6.750 -0.6171  0.1196  0.2999
29168SOL    HW188082   6.603   2.434   6.838 -0.9427 -1.3618  0.2304
29168SOL    HW288083   6.701   2.505   6.747 -1.6114  1.0366  1.2866
29169SOL     OW88084   3.631   5.107   8.172 -0.0222 -0.0039 -0.2486
29169SOL    HW188085   3.562   5.057   8.128  1.2895 -0.4642 -1.8880
29169SOL    HW288086   3.648   5.181   8.113  2.0879 -0.8698 -0.7981
29170SOL     OW88087   1.999   9.508   5.763 -0.3105  0.5488  0.5313
29170SOL    HW188088   1.929   9.449   5.735  0.8282 -0.7400  0.3551
29170SOL    HW288089   2.045   9.531   5.683 -0.0029  0.7235  0.7550
29171SOL     OW88090   6.930   3.853   2.302 -0.3590  0.1180 -0.1798
29171SOL    HW188091   6.845   3.886   2.274 -0.0552  0.9842 -0.1199
29171SOL    HW288092   6.951   3.905   2.380  0.3728  0.1382 -0.3853
29172SOL     OW88093   1.813   5.458   2.327  0.4819  1.2943  0.2869
29172SOL    HW188094   1.851   5.398   2.262  0.0360  2.0552 -0.7150
29172SOL    HW288095   1.735   5.414   2.358  0.6265  0.9737  0.1969
29173SOL     OW88096   1.639   7.521   6.596 -0.1839  0.4808 -0.1998
29173SOL    HW188097   1.551   7.496   6.625 -0.4744 -1.3859 -2.4159
29173SOL    HW288098   1.636   7.515   6.501  1.9338  1.9489 -0.4301
29174SOL     OW88099   6.622   6.762   7.249  0.6074 -0.7708  0.3305
29174SOL    HW188100   6.695   6.777   7.309 -0.4802  3.4540  0.9594
29174SOL    HW288101   6.656   6.786   7.163  0.3238  0.1746  0.4641
29175SOL     OW88102   9.543   6.828  -0.015 -0.2751  0.5865  0.5389
29175SOL    HW188103   9.530   6.922  -0.007  0.0716  0.7137 -0.2772
29175SOL    HW288104   9.522   6.793   0.071 -0.9256  1.3505  0.6979
29176SOL     OW88105   5.688   3.799   4.779  0.0903  0.7347  0.1826
29176SOL    HW188106   5.667   3.705   4.778  0.5947  0.6153  0.4850
29176SOL    HW288107   5.780   3.803   4.754 -0.4813  1.3214 -2.0665
29177SOL     OW88108   9.260   1.312   9.172  0.1208  0.2583 -0.3283
29177SOL    HW188109   9.226   1.290   9.259 -0.6627  0.7359 -0.5058
29177SOL    HW288110   9.280   1.227   9.132  0.7254  0.0472  0.4016
29178SOL     OW88111   6.539   8.090   4.388  0.1838  0.1067 -0.1229
29178SOL    HW188112   6.612   8.138   4.427 -0.9357 -0.0011  2.3373
29178SOL    HW288113   6.559   7.998   4.404  0.3604 -0.0298 -1.0945
29179SOL     OW88114   7.632   4.947   6.479 -0.2288  0.1715 -0.4215
29179SOL    HW188115   7.651   4.894   6.557 -1.6033 -0.2961 -0.3723
29179SOL    HW288116   7.657   4.892   6.405  2.7711  1.2839 -0.3617
29180SOL     OW88117   7.558   5.338   5.235 -0.3094  0.1190  0.1196
29180SOL    HW188118   7.470   5.327   5.199 -0.8361  1.0320  1.0600
29180SOL    HW288119   7.588   5.249   5.253 -0.2769 -0.3215 -1.9052
29181SOL     OW88120   0.080   5.066   7.054  0.2526  0.3065  0.1694
29181SOL    HW188121   0.057   4.980   7.087  1.8067  0.9744  3.3899
29181SOL    HW288122   0.162   5.052   7.006 -0.0255 -0.1434 -0.1742
29182SOL     OW88123   7.828   8.825   0.553  0.1897 -0.3052  0.0359
29182SOL    HW188124   7.842   8.907   0.600  0.2209 -0.2710 -0.0343
29182SOL    HW288125   7.907   8.813   0.501 -0.5031  0.4736 -1.2516
29183SOL     OW88126   4.533   9.572   4.306  0.9305  0.2125 -0.6868
29183SOL    HW188127   4.494   9.545   4.223  1.4204 -0.2011 -0.7802
29183SOL    HW288128   4.486   9.653   4.329 -1.6275 -1.4193  0.3608
29184SOL     OW88129   6.494   0.321   8.926  0.8949  0.1838  0.0547
29184SOL    HW188130   6.413   0.326   8.876  0.4061 -1.0452  0.6886
29184SOL    HW288131   6.556   0.374   8.875 -0.0877  0.5372 -0.8238
29185SOL     OW88132   8.027   3.419   0.923  0.4763 -0.3117 -0.1719
29185SOL    HW188133   8.091   3.431   0.993 -0.0855 -1.6242  0.6123
29185SOL    HW288134   8.072   3.364   0.858  0.4358 -0.4996 -0.0404
29186SOL     OW88135   4.101   0.776   2.239 -0.0076  0.3023 -0.1273
29186SOL    HW188136   4.061   0.825   2.311  0.6507  0.1209  0.3701
29186SOL    HW288137   4.082   0.684   2.259 -1.2278  0.3212 -1.0502
29187SOL     OW88138   4.588   0.898   7.667  0.0770 -0.4349 -0.3404
29187SOL    HW188139   4.568   0.881   7.759  1.7414  0.0251  0.1471
29187SOL    HW288140   4.644   0.825   7.641 -0.1411 -0.4057 -0.9056
29188SOL     OW88141   7.533   9.568   6.815  0.4064 -0.2737 -0.5847
29188SOL    HW188142   7.601   9.608   6.761  0.8705 -0.9204 -0.4897
29188SOL    HW288143   7.582   9.519   6.882 -0.1494  0.7165  0.5798
29189SOL     OW88144   9.594   4.444   3.345 -0.0943 -0.1995  0.1117
29189SOL    HW188145   9.616   4.506   3.275 -3.2382  0.9770 -0.0136
29189SOL    HW288146   9.609   4.493   3.426  1.3919 -0.7867  0.2222
29190SOL     OW88147   4.619   8.215   1.487 -0.0468  0.2304 -0.3937
29190SOL    HW188148   4.626   8.306   1.516  0.0662  0.1715 -0.2349
29190SOL    HW288149   4.527   8.193   1.500  0.2613 -0.2137  1.1794
29191SOL     OW88150   0.213   7.359   2.636 -0.3681  0.4909 -0.1150
29191SOL    HW188151   0.128   7.336   2.598 -0.4766  1.8747 -0.7591
29191SOL    HW288152   0.267   7.281   2.622 -1.2426 -0.0498 -0.5863
29192SOL     OW88153   0.425   4.383   3.518  0.1077  0.1005 -0.2183
29192SOL    HW188154   0.496   4.430   3.474 -0.0744 -0.4103 -1.0677
29192SOL    HW288155   0.361   4.452   3.539 -0.6014  0.1551 -2.3096
29193SOL     OW88156   4.765   0.278   0.606 -0.7714 -0.4045 -0.1725
29193SOL    HW188157   4.752   0.192   0.564  1.7753 -0.8459 -0.2273
29193SOL    HW288158   4.783   0.257   0.698  0.7521 -0.0453 -0.3652
29194SOL     OW88159   5.712   1.782   4.258 -0.0028  0.5416  0.0876
29194SOL    HW188160   5.690   1.713   4.194  0.3426  1.5367 -1.1576
29194SOL    HW288161   5.630   1.830   4.269 -0.7809 -1.1503  2.4383
29195SOL     OW88162   5.955   6.215   6.346  0.7103 -0.5590  0.3000
29195SOL    HW188163   5.867   6.211   6.309  0.9042  0.4965 -0.3418
29195SOL    HW288164   5.977   6.125   6.366  0.5957 -1.2322 -2.2786
29196SOL     OW88165   5.484   9.648   7.599 -0.6613 -0.2829  0.4530
29196SOL    HW188166   5.537   9.623   7.675 -0.8693 -2.0089  0.0773
29196SOL    HW288167   5.451   9.565   7.564 -0.1069  0.3734 -1.8607
29197SOL     OW88168   3.472   0.596   2.750  0.1159 -0.0198  0.0787
29197SOL    HW188169   3.559   0.562   2.730 -0.4836 -0.7963 -1.3164
29197SOL    HW288170   3.412   0.537   2.705 -1.1845  0.1537  1.4838
29198SOL     OW88171   7.297   1.317   5.170  0.0774  0.1370  0.0028
29198SOL    HW188172   7.258   1.342   5.254  0.7433  0.7390  0.1450
29198SOL    HW288173   7.381   1.363   5.168 -1.3201  2.8339 -2.4464
29199SOL     OW88174   3.163   5.645   0.809 -0.1360 -0.2915  0.1488
29199SOL    HW188175   3.203   5.560   0.829 -0.2202 -0.2223  0.6119
29199SOL    HW288176   3.069   5.629   0.813 -0.1802  0.2108  1.9847
29200SOL     OW88177   8.577   5.547   1.728  0.1358 -0.3676  0.1596
29200SOL    HW188178   8.551   5.562   1.819 -0.4484  1.0149 -0.2054
29200SOL    HW288179   8.498   5.512   1.686  0.4565 -1.1744  0.2088
29201SOL     OW88180   6.294   9.349   0.854  0.3916 -0.1833 -0.3388
29201SOL    HW188181   6.318   9.385   0.769 -1.1646  2.1081  0.0942
29201SOL    HW288182   6.319   9.418   0.917 -1.3169 -0.4615  0.7111
29202SOL     OW88183   6.901   9.678   8.075  0.5591 -0.1714  0.0010
29202SOL    HW188184   6.835   9.747   8.069  1.5061  0.6692 -0.9809
29202SOL    HW288185   6.960   9.708   8.144 -0.8061 -1.6069  1.9109
29203SOL     OW88186   2.284   2.843   9.119 -0.0255 -0.3090 -0.4533
29203SOL    HW188187   2.289   2.931   9.158  0.2279 -0.3105 -0.4841
29203SOL    HW288188   2.374   2.812   9.118 -0.0927 -0.4980 -0.6095
29204SOL     OW88189   0.720   9.925  10.015 -0.3627  0.5172 -0.2637
29204SOL    HW188190   0.812   9.941   9.994  0.0887  0.3218  1.4031
29204SOL    HW288191   0.681   9.897   9.932  1.0753  0.6048 -1.0024
29205SOL     OW88192   4.390   1.993   8.253  0.8561  0.0395  0.3146
29205SOL    HW188193   4.405   2.056   8.182 -0.6952  1.9628  1.5948
29205SOL    HW288194   4.315   1.941   8.223  0.6411  0.3831  0.2472
29206SOL     OW88195   5.322   0.236   9.100 -0.3349  0.5845  0.1867
29206SOL    HW188196   5.361   0.322   9.082 -1.3597  0.9087 -0.5660
29206SOL    HW288197   5.345   0.218   9.191 -0.1676  1.7028  0.3795
29207SOL     OW88198   5.803   1.423   6.217 -0.6473 -0.0735  0.3641
29207SOL    HW188199   5.846   1.502   6.249  0.1237 -0.1584 -0.4421
29207SOL    HW288200   5.736   1.455   6.156 -1.4353  0.0323  1.2631
29208SOL     OW88201   5.587   4.586   6.520  0.3729  0.0409  0.0626
29208SOL    HW188202   5.610   4.618   6.432 -1.0536  0.2402 -0.2663
29208SOL    HW288203   5.523   4.649   6.553 -0.0865 -0.7345  0.7077
29209SOL     OW88204   3.594   6.429   4.717 -0.6826 -0.0862  1.0745
29209SOL    HW188205   3.550   6.401   4.637 -1.6064  1.2595  1.0811
29209SOL    HW288206   3.615   6.521   4.702  0.0275 -0.0839  1.9985
29210SOL     OW88207   3.204   0.547   8.285  0.0964  0.0100  0.7235
29210SOL    HW188208   3.195   0.576   8.194  1.1825 -2.0224 -0.1037
29210SOL    HW288209   3.299   0.551   8.302  0.3366 -2.9370  0.5038
29211SOL     OW88210   8.897   1.123   1.318 -0.7410  0.2234 -0.9328
29211SOL    HW188211   8.826   1.120   1.382 -0.4308  1.3080 -0.5014
29211SOL    HW288212   8.949   1.200   1.344  1.3292 -1.2492 -0.4522
29212SOL     OW88213   6.158   9.500   5.348  0.3602 -0.5942 -0.1441
29212SOL    HW188214   6.192   9.588   5.333 -0.8304 -0.3442 -1.6078
29212SOL    HW288215   6.091   9.511   5.415  1.8555 -0.8137  1.4565
29213SOL     OW88216   6.296   1.055   5.839 -0.4749 -0.1365  0.0202
29213SOL    HW188217   6.257   1.096   5.916 -2.3239  0.7719 -1.3509
29213SOL    HW288218   6.330   1.127   5.787 -1.5720 -0.5083 -1.2486
29214SOL     OW88219   2.424   8.994   6.209  0.2682 -0.5205  0.5077
29214SOL    HW188220   2.443   9.004   6.302 -0.4210  0.5628  0.5441
29214SOL    HW288221   2.439   9.081   6.172  0.1608 -0.8501 -0.3250
29215SOL     OW88222   7.440   2.663   5.672 -0.1911  0.0351  0.1970
29215SOL    HW188223   7.468   2.754   5.677  0.2172  0.0444 -1.5517
29215SOL    HW288224   7.410   2.642   5.760  1.0988  1.4103  1.0133
29216SOL     OW88225   1.123   2.984   5.964  0.6319 -0.2811  0.6074
29216SOL    HW188226   1.110   3.079   5.964  0.5785 -0.2875  0.4634
29216SOL    HW288227   1.216   2.972   5.946  1.0768 -0.2109  2.6765
29217SOL     OW88228   0.326   2.009   7.907  0.2425  0.4979  0.0466
29217SOL    HW188229   0.290   1.941   7.963  0.6746 -1.3105 -1.7701
29217SOL    HW288230   0.259   2.023   7.840  0.8310  0.7295 -0.5032
29218SOL     OW88231   7.955   6.477   5.301 -0.3435  0.0760  0.0701
29218SOL    HW188232   8.044   6.471   5.265 -0.8539 -1.3788 -1.0163
29218SOL    HW288233   7.908   6.532   5.238 -0.8762 -1.3318 -0.7962
29219SOL     OW88234   4.328   6.835   8.373  0.0301  0.7238  0.4220
29219SOL    HW188235   4.335   6.891   8.295 -0.9243 -1.6936 -1.5462
29219SOL    HW288236   4.242   6.794   8.365  0.8922 -1.4168  1.4146
29220SOL     OW88237   8.784   6.623   8.419  0.2652 -0.7182  0.1393
29220SOL    HW188238   8.781   6.543   8.471  1.3314 -0.8136  0.0789
29220SOL    HW288239   8.834   6.684   8.473 -0.6243 -0.0400  0.2333
29221SOL     OW88240   3.989   9.461   9.708 -0.1612 -0.3928  0.5207
29221SOL    HW188241   3.969   9.505   9.791  2.3009 -0.6734  1.3696
29221SOL    HW288242   4.067   9.506   9.676 -0.5461 -0.8950 -1.2070
29222SOL     OW88243   4.890   8.676   6.136  0.7374  0.2381 -0.3425
29222SOL    HW188244   4.796   8.695   6.127  0.8806  0.3766 -1.9214
29222SOL    HW288245   4.901   8.649   6.227 -0.9310 -0.3335 -0.2798
29223SOL     OW88246   8.263   2.911   8.935  0.3449  0.0909 -0.1048
29223SOL    HW188247   8.311   2.960   9.001  2.5782 -0.4624 -1.2220
29223SOL    HW288248   8.282   2.956   8.853  0.6222 -1.3327 -0.8552
29224SOL     OW88249   1.216   5.557   4.029  0.5598  0.4302  0.1368
29224SOL    HW188250   1.244   5.620   3.963  0.5257  1.7621  1.3286
29224SOL    HW288251   1.293   5.545   4.085  0.4190 -0.2320  0.1971
29225SOL     OW88252   4.561   7.481   2.599  0.2525  0.7514 -0.2137
29225SOL    HW188253   4.511   7.515   2.673  0.3036 -1.0585  0.7170
29225SOL    HW288254   4.637   7.439   2.640 -0.0971 -0.9355 -1.2213
29226SOL     OW88255   1.322   1.422   0.655  0.7707 -0.4006  0.3090
29226SOL    HW188256   1.380   1.483   0.610 -1.1114  0.5148 -1.0123
29226SOL    HW288257   1.381   1.362   0.700  2.7125  2.3494  1.6759
29227SOL     OW88258   5.175   6.039   2.931  0.1196 -0.2548  0.4905
29227SOL    HW188259   5.252   5.997   2.893 -1.2091 -0.6019 -2.0959
29227SOL    HW288260   5.182   6.024   3.025  2.9910 -0.5567  0.2910
29228SOL     OW88261   6.796   2.633   0.558 -0.1112  0.0473 -0.2096
29228SOL    HW188262   6.825   2.608   0.470 -0.0272  1.0532 -0.4746
29228SOL    HW288263   6.809   2.554   0.610 -1.7442 -1.1011 -1.4503
29229SOL     OW88264   8.311   0.357   3.075 -0.2432 -0.2814  0.1135
29229SOL    HW188265   8.321   0.440   3.121 -3.2910 -0.5648  1.5263
29229SOL    HW288266   8.332   0.377   2.984  0.5545  1.6512  0.6681
29230SOL     OW88267   7.572   7.343   8.689 -0.4444  0.8277 -0.1415
29230SOL    HW188268   7.524   7.415   8.729  0.8859  1.5421  0.2557
29230SOL    HW288269   7.611   7.297   8.764 -2.0959 -0.9481 -0.3148
29231SOL     OW88270   0.826   5.518   8.010 -0.0891 -0.2277 -0.8495
29231SOL    HW188271   0.912   5.556   7.993 -0.1577  0.4678  0.2784
29231SOL    HW288272   0.827   5.434   7.963  1.2626 -0.2995 -0.7229
29232SOL     OW88273   4.353   8.237   7.005  0.2442 -0.5176  0.0072
29232SOL    HW188274   4.390   8.308   6.953  0.1414 -1.1165 -0.9059
29232SOL    HW288275   4.387   8.252   7.093  0.0095  0.8001 -0.1161
29233SOL     OW88276   7.575   7.182   5.200 -0.2380 -0.0805 -0.0731
29233SOL    HW188277   7.567   7.118   5.271 -0.7363 -0.2815 -0.3090
29233SOL    HW288278   7.666   7.213   5.206 -0.2435 -0.1766  0.5835
29234SOL     OW88279   8.783   5.313   3.748  1.4649  0.0992 -0.1837
29234SOL    HW188280   8.761   5.229   3.788 -0.5118  0.4540 -0.4180
29234SOL    HW288281   8.755   5.378   3.812  0.7550  0.6106 -0.9873
29235SOL     OW88282   2.995   7.635   6.504  0.0020  0.0820  0.5452
29235SOL    HW188283   3.020   7.633   6.411 -0.2079 -1.9912  0.4736
29235SOL    HW288284   2.989   7.542   6.528 -1.3633  0.5738  2.2609
29236SOL     OW88285   0.223   9.671   4.447  0.1603  0.3510  0.2779
29236SOL    HW188286   0.230   9.766   4.438 -0.8612  0.6833  2.3584
29236SOL    HW288287   0.276   9.650   4.524 -1.3696 -0.4280  1.1784
29237SOL     OW88288   6.992   1.584   2.760 -0.4280  0.6065 -0.4668
29237SOL    HW188289   6.990   1.504   2.813  0.7252  1.1288  0.3950
29237SOL    HW288290   6.964   1.653   2.820 -3.1324  0.6647 -1.6555
29238SOL     OW88291   1.057   3.840   2.694 -0.3641 -0.1062 -0.2770
29238SOL    HW188292   1.092   3.871   2.611 -0.1344  0.2907 -0.0346
29238SOL    HW288293   1.064   3.915   2.753  1.4581 -1.0061  0.7185
29239SOL     OW88294   7.800   1.963   9.134 -0.1937  0.0098 -0.2419
29239SOL    HW188295   7.730   2.016   9.094  0.8735  2.1035  0.5372
29239SOL    HW288296   7.846   1.925   9.059 -0.6419  0.6580 -0.8687
29240SOL     OW88297   6.093   3.944   2.598  0.5872  0.0137 -0.4182
29240SOL    HW188298   6.015   3.968   2.549  2.2752  0.5473 -3.0648
29240SOL    HW288299   6.149   4.022   2.592  2.3944 -1.2689 -1.0404
29241SOL     OW88300   7.050   1.532   8.810 -0.1598 -0.6046  0.4161
29241SOL    HW188301   7.115   1.463   8.801 -0.0227 -0.3599 -0.5275
29241SOL    HW288302   6.974   1.488   8.850 -0.6760 -1.7109 -1.6371
29242SOL     OW88303   0.708   9.642   9.911  0.2796  0.4633 -0.0972
29242SOL    HW188304   0.796   9.640   9.948  0.0306  0.3386  0.4966
29242SOL    HW288305   0.654   9.596   9.975  0.2303 -1.8880 -1.6958
29243SOL     OW88306   9.336   0.768   3.387 -0.0667  0.1572 -0.5279
29243SOL    HW188307   9.295   0.749   3.471  0.8417 -0.3015 -0.1696
29243SOL    HW288308   9.328   0.863   3.377 -1.3055  0.0669 -0.5405
29244SOL     OW88309   2.636   0.980   9.101  0.0422  0.1648 -0.4079
29244SOL    HW188310   2.726   0.976   9.133 -0.1465  0.9246  0.2434
29244SOL    HW288311   2.600   1.059   9.140 -1.5980 -1.2705  1.1760
29245SOL     OW88312   9.534   7.444   6.547 -0.1829 -0.3288  0.6299
29245SOL    HW188313   9.627   7.444   6.526 -0.1718 -0.4273  0.6781
29245SOL    HW288314   9.530   7.469   6.639 -0.2838  1.0696  0.2691
29246SOL     OW88315   2.894   5.323   3.392 -0.0684 -0.5869  0.0748
29246SOL    HW188316   2.918   5.415   3.383  0.6794 -0.6214  1.4272
29246SOL    HW288317   2.834   5.321   3.467 -2.2232 -0.8836 -1.5552
29247SOL     OW88318   5.075   5.827   8.257 -0.5725 -0.3378 -0.1811
29247SOL    HW188319   4.992   5.806   8.215 -0.2759  0.6704 -1.3089
29247SOL    HW288320   5.113   5.895   8.203  1.0176 -0.7972  0.3014
29248SOL     OW88321   7.421   0.672   8.590 -0.6563 -0.3910 -0.1505
29248SOL    HW188322   7.486   0.694   8.656 -0.6087 -0.1444 -0.2777
29248SOL    HW288323   7.453   0.714   8.510 -1.6710  0.9170  0.0912
29249SOL     OW88324   0.434   7.277   3.392  0.5338  0.0762  0.4377
29249SOL    HW188325   0.466   7.192   3.422  0.4531 -0.1157 -0.0202
29249SOL    HW288326   0.428   7.268   3.297 -4.2675 -1.1040  0.6266
29250SOL     OW88327   5.412   9.457   5.666  0.8520 -0.1013  0.4901
29250SOL    HW188328   5.494   9.468   5.619  1.1088  1.4329  1.2086
29250SOL    HW288329   5.403   9.538   5.717 -0.7106 -0.5736  1.0306
29251SOL     OW88330   4.858   0.240   0.909 -0.0438 -0.1345  1.0033
29251SOL    HW188331   4.796   0.188   0.960 -1.3333  1.5216  1.2388
29251SOL    HW288332   4.944   0.209   0.936 -0.7387 -1.5243  1.7494
29252SOL     OW88333   3.533   5.795   9.749  0.5907 -0.1517 -0.5651
29252SOL    HW188334   3.459   5.854   9.761  2.3488  1.9174  1.1317
29252SOL    HW288335   3.497   5.707   9.759 -1.7008  0.7550 -0.3868
29253SOL     OW88336   6.363   3.390   5.562 -0.1967  0.1153  0.2276
29253SOL    HW188337   6.272   3.403   5.536  0.8656  0.0929 -4.3935
29253SOL    HW288338   6.400   3.478   5.567  0.0189  0.0509 -0.1753
29254SOL     OW88339   4.706   1.676   1.487 -0.1068 -0.3361 -0.3581
29254SOL    HW188340   4.788   1.698   1.531 -0.1942 -0.7767  0.0275
29254SOL    HW288341   4.652   1.755   1.497 -0.7308 -0.9734  1.7409
29255SOL     OW88342   4.774   5.185   0.471  0.1099 -0.5862 -0.1135
29255SOL    HW188343   4.738   5.096   0.465  0.8593 -0.9785  0.9056
29255SOL    HW288344   4.724   5.226   0.541 -0.7950  0.0881 -1.1339
29256SOL     OW88345   5.276   2.825   1.847 -0.1741  0.7934 -0.4698
29256SOL    HW188346   5.368   2.845   1.866  0.6051 -1.1788 -1.8090
29256SOL    HW288347   5.245   2.900   1.797  0.3359  1.9799  0.8918
29257SOL     OW88348   4.398   9.954   1.474 -0.1404 -0.1659  0.0080
29257SOL    HW188349   4.422   9.940   1.382  1.2031  1.7977 -0.0007
29257SOL    HW288350   4.481   9.969   1.519 -0.7396 -1.3683  1.6467
29258SOL     OW88351   3.245   2.020   2.888  0.1847  0.4876  0.3641
29258SOL    HW188352   3.318   2.068   2.849 -1.3625  1.7084 -1.1689
29258SOL    HW288353   3.248   2.042   2.981  3.3312 -1.6504  0.9402
29259SOL     OW88354   9.964   7.001   6.260 -0.1269 -0.5027 -0.4677
29259SOL    HW188355   9.957   6.906   6.246 -3.2174 -0.5399  0.6773
29259SOL    HW288356   9.919   7.040   6.185 -0.3161  0.0172 -0.0836
29260SOL     OW88357   1.936   1.436   2.565 -0.3063 -0.0599  0.4729
29260SOL    HW188358   1.951   1.344   2.544 -1.4304 -0.2398  0.4047
29260SOL    HW288359   1.881   1.434   2.643 -1.2890  0.5295 -0.1857
29261SOL     OW88360   1.135   0.962   0.591  0.5917  0.1399 -0.7037
29261SOL    HW188361   1.185   1.042   0.573  1.4490 -0.1158  0.4227
29261SOL    HW288362   1.050   0.994   0.623 -0.3909  0.5820 -3.5144
29262SOL     OW88363   6.244   7.192   0.887  0.6510  0.0893  0.0123
29262SOL    HW188364   6.265   7.146   0.969  0.7422 -2.6442 -1.4364
29262SOL    HW288365   6.312   7.166   0.826 -0.2935  0.7774 -1.4020
29263SOL     OW88366   2.189   6.775   3.627  0.1424  0.3478  0.4148
29263SOL    HW188367   2.097   6.753   3.617  0.0029  0.6308  0.9974
29263SOL    HW288368   2.219   6.723   3.701  0.7871 -0.6872 -0.5372
29264SOL     OW88369   0.092   5.013   3.238 -0.1378 -0.2666 -0.1940
29264SOL    HW188370   0.142   4.985   3.162 -0.9185 -0.1072 -0.7854
29264SOL    HW288371   0.015   4.956   3.239 -1.1876  1.0651 -0.7622
29265SOL     OW88372   0.100   8.629   9.261 -0.0512 -0.3021 -0.3319
29265SOL    HW188373   0.142   8.558   9.211 -2.5267 -2.4954  0.4865
29265SOL    HW288374   0.026   8.656   9.207 -1.0749 -0.7242  0.8074
29266SOL     OW88375   3.927   8.140   2.885  0.0741 -0.2044  0.1194
29266SOL    HW188376   4.005   8.132   2.939 -0.1091 -1.1226  0.2697
29266SOL    HW288377   3.940   8.220   2.835  1.3722 -0.6313 -0.2610
29267SOL     OW88378   9.860   6.229   7.280 -0.1674 -0.4030 -0.0523
29267SOL    HW188379   9.902   6.166   7.223  1.7002  0.8083 -0.1042
29267SOL    HW288380   9.878   6.198   7.368 -0.2622 -0.5752 -0.0948
29268SOL     OW88381   1.560   9.800   5.554  0.4199  0.8181 -0.3312
29268SOL    HW188382   1.619   9.785   5.628  0.9756  1.2260 -0.6795
29268SOL    HW288383   1.495   9.729   5.560  1.2679  0.0213 -0.2588
29269SOL     OW88384   8.878   8.616   6.754 -0.3610  0.1130  0.4649
29269SOL    HW188385   8.827   8.578   6.682  0.0887 -1.4346  0.9298
29269SOL    HW288386   8.826   8.691   6.783 -0.7533  0.5156 -1.1830
29270SOL     OW88387   7.979   2.980   5.609 -0.1379 -0.0646 -0.0673
29270SOL    HW188388   7.913   2.987   5.678  0.1305  2.1006  0.0165
29270SOL    HW288389   7.928   2.972   5.528 -0.4824  0.1645  0.1245
29271SOL     OW88390   1.868   4.746   6.469 -0.1863  0.3334  0.3703
29271SOL    HW188391   1.911   4.794   6.540 -2.1593 -0.2691  2.0836
29271SOL    HW288392   1.926   4.672   6.451  1.2610  1.5157  0.0047
29272SOL     OW88393   7.301   6.706   0.945  0.3804  0.0021  0.1772
29272SOL    HW188394   7.344   6.623   0.926  2.0125  0.9943 -0.7199
29272SOL    HW288395   7.324   6.726   1.036  0.3697 -0.3026  0.2454
29273SOL     OW88396   4.797   3.960   9.354  0.0799  0.4415 -0.0348
29273SOL    HW188397   4.716   3.920   9.389 -0.2180 -0.5363 -1.7303
29273SOL    HW288398   4.849   3.885   9.324  0.1793  1.2156 -1.9199
29274SOL     OW88399   1.245   3.207   7.008  0.1679 -0.0583  0.1727
29274SOL    HW188400   1.156   3.181   6.985 -0.0182  0.8175 -0.1267
29274SOL    HW288401   1.298   3.129   6.990 -0.3821 -0.2548 -0.6540
29275SOL     OW88402   0.629   1.104   6.148  0.2881  0.7643  0.8351
29275SOL    HW188403   0.688   1.047   6.099 -1.0786 -0.9305  1.0218
29275SOL    HW288404   0.565   1.133   6.083 -0.7375 -0.3885  1.2752
29276SOL     OW88405   7.596   8.968   8.199  0.6906 -0.4572 -0.0594
29276SOL    HW188406   7.590   8.879   8.235 -1.6082 -0.6014 -0.6331
29276SOL    HW288407   7.541   8.965   8.121 -2.0345  2.1873  1.5303
29277SOL     OW88408   9.185   5.757   8.218 -0.4075 -0.3409 -0.8212
29277SOL    HW188409   9.248   5.762   8.289 -0.2769 -1.0226 -0.8871
29277SOL    HW288410   9.195   5.841   8.172 -0.6914  0.2198  0.1119
29278SOL     OW88411   9.766   0.486   1.747 -0.0259 -0.3052 -0.0507
29278SOL    HW188412   9.860   0.500   1.734 -0.3906  0.7960 -1.7991
29278SOL    HW288413   9.735   0.454   1.662 -1.5888  1.5313 -0.2278
29279SOL     OW88414   8.912   1.572   1.453 -0.3872 -0.0305  0.2889
29279SOL    HW188415   8.978   1.632   1.488 -0.0131  1.0200 -1.9936
29279SOL    HW288416   8.960   1.491   1.436 -0.0801  0.1742  0.1784
29280SOL     OW88417   1.117   2.329   8.818  0.3741 -0.6349  0.5251
29280SOL    HW188418   1.029   2.325   8.781 -0.5063  0.5009  2.3648
29280SOL    HW288419   1.121   2.255   8.878  1.4363 -1.8621 -0.9627
29281SOL     OW88420   5.882   1.872   9.556  0.0385 -0.0229 -0.0417
29281SOL    HW188421   5.973   1.842   9.553  0.1411  0.1783  0.6830
29281SOL    HW288422   5.885   1.961   9.520  0.0949 -0.0976 -0.2197
29282SOL     OW88423   5.541   6.964   5.468 -0.2923 -0.0508  0.0773
29282SOL    HW188424   5.453   6.927   5.458  0.1682 -0.8379 -1.3373
29282SOL    HW288425   5.544   7.038   5.408 -0.0704  0.1485  0.3291
29283SOL     OW88426   5.370   1.225   5.631 -1.0228 -0.3220 -0.0007
29283SOL    HW188427   5.393   1.261   5.716 -1.1983  0.1165 -0.1356
29283SOL    HW288428   5.386   1.131   5.639 -0.6014 -0.2203  0.3698
29284SOL     OW88429   2.214   3.933   0.535  0.3146 -0.4665  0.7006
29284SOL    HW188430   2.303   3.918   0.501  0.1054 -2.7022  0.9429
29284SOL    HW288431   2.221   4.013   0.587  1.8146  0.2366 -0.4922
29285SOL     OW88432   3.485   0.673   8.579 -0.0018  0.2944 -0.0003
29285SOL    HW188433   3.476   0.606   8.647  1.7602  1.2169  1.2304
29285SOL    HW288434   3.473   0.626   8.497  0.1153 -1.3043  0.8606
29286SOL     OW88435   3.075   2.059   6.664 -0.0335 -0.0231  0.2127
29286SOL    HW188436   3.100   2.150   6.679 -1.6829  0.6847 -1.0257
29286SOL    HW288437   3.130   2.031   6.590 -0.3256  0.3657 -0.1621
29287SOL     OW88438   3.527   2.322   2.399  0.0352 -0.1590  0.6228
29287SOL    HW188439   3.529   2.337   2.494 -0.9632 -0.2820  0.6739
29287SOL    HW288440   3.439   2.350   2.372  0.1355 -0.5947 -0.1889
29288SOL     OW88441   4.547   0.760   9.899  0.5711 -0.1287 -0.7963
29288SOL    HW188442   4.456   0.769   9.873 -0.3474 -0.1872  1.9992
29288SOL    HW288443   4.591   0.838   9.863 -1.4401  1.9163  0.8847
29289SOL     OW88444   6.623   8.978   8.176 -0.0417  0.3997  0.3483
29289SOL    HW188445   6.542   8.927   8.175 -0.4972  1.0792 -1.2660
29289SOL    HW288446   6.595   9.066   8.203  0.0386  0.7890 -0.8051
29290SOL     OW88447   3.259   2.620   6.819 -0.2670 -0.3157 -0.1624
29290SOL    HW188448   3.249   2.567   6.898 -2.3319  1.5863  0.9541
29290SOL    HW288449   3.176   2.666   6.810  0.3101  0.3904 -2.8539
29291SOL     OW88450   9.602   0.141   8.104 -0.1393 -0.1307 -0.4965
29291SOL    HW188451   9.604   0.113   8.013  1.4189  0.4280 -0.6651
29291SOL    HW288452   9.658   0.078   8.150  0.8662  0.8622 -0.3303
29292SOL     OW88453   5.765   7.587   9.738 -0.3352 -0.4490 -0.4084
29292SOL    HW188454   5.685   7.564   9.786 -0.7077 -0.8717 -1.2142
29292SOL    HW288455   5.744   7.671   9.697  0.3373  0.4183  0.9519
29293SOL     OW88456   8.129   4.721   1.712 -0.5641 -0.0198 -0.4533
29293SOL    HW188457   8.064   4.694   1.777 -0.0569  0.2418  0.1677
29293SOL    HW288458   8.171   4.798   1.750  0.9261 -0.8583 -0.3037
29294SOL     OW88459   9.042   2.034   5.500  0.7007  0.1337 -0.0694
29294SOL    HW188460   9.111   1.971   5.518  0.8479  0.2160 -0.3459
29294SOL    HW288461   9.088   2.111   5.466  0.3959 -0.1805 -1.2376
29295SOL     OW88462   0.304   9.283   9.248 -0.6144  0.7437  0.3083
29295SOL    HW188463   0.317   9.239   9.165 -2.2227 -1.1244  0.9702
29295SOL    HW288464   0.387   9.275   9.294 -0.1515  0.5563 -0.5453
29296SOL     OW88465   3.827   1.000   9.364 -0.9643 -0.2445 -0.0689
29296SOL    HW188466   3.814   0.906   9.353  1.4064 -0.4552 -2.0229
29296SOL    HW288467   3.863   1.010   9.452 -0.3264 -1.3135 -0.1955
29297SOL     OW88468   6.408   1.596   0.226 -0.4794 -0.6519  0.0702
29297SOL    HW188469   6.438   1.580   0.315 -0.7128 -1.1735  0.0624
29297SOL    HW288470   6.414   1.691   0.215 -1.7110 -0.4146  1.1019
29298SOL     OW88471   8.296   9.779   1.415  0.2533 -0.5308 -0.1284
29298SOL    HW188472   8.275   9.859   1.462 -0.4043 -1.2282  0.8140
29298SOL    HW288473   8.216   9.758   1.367  0.6279 -0.2996 -0.8622
29299SOL     OW88474   9.215   9.147   0.651 -1.1229  0.0378  0.2998
29299SOL    HW188475   9.188   9.169   0.740  1.1095  0.2519  0.9902
29299SOL    HW288476   9.219   9.051   0.650  1.1720  0.0410  1.2856
29300SOL     OW88477   7.877   5.439   3.469  0.3048 -0.3112 -0.7413
29300SOL    HW188478   7.953   5.470   3.519 -1.8999 -0.1541  2.8610
29300SOL    HW288479   7.822   5.517   3.459  0.0024 -0.6888 -2.1989
29301SOL     OW88480   3.631   5.389   9.575 -0.0087 -0.0317 -0.0151
29301SOL    HW188481   3.575   5.424   9.505 -1.7156  1.5380  1.9780
29301SOL    HW288482   3.720   5.395   9.540 -0.8859 -1.8703 -3.0275
29302SOL     OW88483   6.673   7.622   8.639 -0.8297  0.6203  0.3129
29302SOL    HW188484   6.639   7.545   8.592  0.5906 -0.0050  0.2686
29302SOL    HW288485   6.752   7.591   8.682  0.2326  2.2514 -0.3622
29303SOL     OW88486   7.169   9.110   5.740 -0.2429  0.5107  0.3018
29303SOL    HW188487   7.233   9.039   5.747 -0.8506 -0.4000 -2.1140
29303SOL    HW288488   7.156   9.120   5.645 -2.9454  1.3029  0.6820
29304SOL     OW88489   8.104   7.504   7.713  0.0425 -0.0258 -0.1830
29304SOL    HW188490   8.070   7.582   7.671 -0.8157  0.0938  0.7116
29304SOL    HW288491   8.125   7.445   7.640 -0.9650  0.3508 -0.7907
29305SOL     OW88492   7.126   4.870   9.885  1.1985  0.0307 -0.6663
29305SOL    HW188493   7.037   4.858   9.851  0.7601 -0.8591  0.6855
29305SOL    HW288494   7.154   4.954   9.849 -0.7463  1.0306 -0.0107
29306SOL     OW88495   9.613   9.037   8.782  0.3055 -0.1265  1.0655
29306SOL    HW188496   9.687   9.025   8.841  1.8833  1.9057 -0.3701
29306SOL    HW288497   9.650   9.076   8.703 -2.0028 -1.0117 -0.5707
29307SOL     OW88498   7.388   8.519   9.869 -0.1742 -0.4064  0.2382
29307SOL    HW188499   7.421   8.552   9.952 -0.0149 -1.1562  0.4825
29307SOL    HW288500   7.396   8.424   9.876  1.9128 -0.4355 -1.4903
29308SOL     OW88501   3.816   4.610   3.792 -0.2900 -0.1891  0.2029
29308SOL    HW188502   3.804   4.517   3.771 -0.0846 -0.1005 -0.3299
29308SOL    HW288503   3.832   4.611   3.887 -1.8221 -0.5367  0.4849
29309SOL     OW88504   0.580   8.963   7.152  0.4726 -0.3098 -0.1486
29309SOL    HW188505   0.602   8.999   7.238 -0.3964 -0.9240  0.3500
29309SOL    HW288506   0.494   8.923   7.164  0.8105 -1.3485 -1.0428
29310SOL     OW88507   9.364   0.917   4.617  0.1061 -0.2169 -0.3493
29310SOL    HW188508   9.333   0.929   4.707 -0.5425 -1.2379 -0.4147
29310SOL    HW288509   9.428   0.846   4.623 -0.6884 -0.9924 -0.8223
29311SOL     OW88510   4.535   1.655   8.982 -0.2715 -0.0235  0.1478
29311SOL    HW188511   4.629   1.664   8.963 -0.3687 -1.0451 -0.9583
29311SOL    HW288512   4.531   1.591   9.053 -0.0789  1.1326  1.2312
29312SOL     OW88513   9.982   4.660   0.641  0.3224 -0.2888  0.1403
29312SOL    HW188514   9.922   4.686   0.571  3.1917 -0.3374 -2.5759
29312SOL    HW288515   9.996   4.741   0.691 -0.8500  0.0608 -0.0628
29313SOL     OW88516   6.379   7.505   5.885 -0.1194  0.4765  0.6267
29313SOL    HW188517   6.388   7.446   5.811 -3.6845  0.6032 -0.0806
29313SOL    HW288518   6.337   7.453   5.954  1.2451  0.9159  1.8483
29314SOL     OW88519   6.421   0.289   0.539 -0.2755  0.0869  0.1212
29314SOL    HW188520   6.455   0.296   0.628 -0.3077  0.8059  0.0836
29314SOL    HW288521   6.398   0.379   0.515  0.3520  0.0043 -0.8536
29315SOL     OW88522   9.542   7.102   7.291 -0.2778  0.2444  0.2934
29315SOL    HW188523   9.530   7.039   7.219 -3.8193  0.7861  0.2124
29315SOL    HW288524   9.516   7.053   7.369 -5.3386  1.8639 -0.0073
29316SOL     OW88525   3.385   1.073   2.278 -0.1305 -0.3681 -0.5578
29316SOL    HW188526   3.424   1.114   2.355  0.8084 -0.2959 -1.0554
29316SOL    HW288527   3.441   0.998   2.260 -2.2055 -2.3352  0.7377
29317SOL     OW88528   7.287   0.567   0.589  0.1981  0.4392  0.3817
29317SOL    HW188529   7.295   0.489   0.643 -0.2279  1.2086  1.5820
29317SOL    HW288530   7.218   0.546   0.526 -1.6814  0.6942  2.2577
29318SOL     OW88531   0.667   8.830   3.368 -0.3844 -0.2240 -0.0717
29318SOL    HW188532   0.612   8.754   3.384 -0.6496 -0.0906 -0.3350
29318SOL    HW288533   0.727   8.802   3.298 -0.3906 -0.2374 -0.0718
29319SOL     OW88534   0.288   5.539   5.564  0.2037  0.2138  0.5143
29319SOL    HW188535   0.252   5.526   5.477 -0.0312  0.4007  0.5818
29319SOL    HW288536   0.213   5.531   5.623  0.6274 -1.6840  0.8618
29320SOL     OW88537   9.218   1.533   4.878  0.2060 -0.5175 -0.0236
29320SOL    HW188538   9.152   1.538   4.809  1.5648  1.5944 -1.3099
29320SOL    HW288539   9.172   1.562   4.957 -0.7250 -0.3741 -0.6022
29321SOL     OW88540   6.070   4.573   5.966  0.2095 -0.6240 -0.4588
29321SOL    HW188541   6.000   4.584   5.902 -0.1138  0.9279  0.1130
29321SOL    HW288542   6.146   4.547   5.914  0.6340  2.9765 -1.9804
29322SOL     OW88543   2.479   8.940   1.446 -0.4858 -0.0181 -0.1562
29322SOL    HW188544   2.406   8.914   1.503 -0.5433 -0.1488 -0.2892
29322SOL    HW288545   2.557   8.915   1.494 -0.4926  1.1027  0.4751
29323SOL     OW88546   6.225   5.653   6.040  0.0644 -0.3214 -0.2476
29323SOL    HW188547   6.137   5.677   6.012  0.2843 -0.3110 -0.9285
29323SOL    HW288548   6.283   5.693   5.975  0.4811 -1.9707 -0.9295
29324SOL     OW88549   4.574   8.560   2.830  0.3611 -0.2142  0.4101
29324SOL    HW188550   4.544   8.583   2.918  0.2406  0.2616  0.2466
29324SOL    HW288551   4.493   8.542   2.781  0.3905  0.1705  0.2181
29325SOL     OW88552   6.893   4.363   6.823  0.4617 -0.0436  0.1451
29325SOL    HW188553   6.875   4.272   6.798 -1.0831  0.3017 -0.0672
29325SOL    HW288554   6.838   4.378   6.899 -0.4372  1.1656 -0.7114
29326SOL     OW88555   6.169   1.477   2.545  0.4432  0.1017 -0.0016
29326SOL    HW188556   6.103   1.526   2.595 -0.7961  0.6794 -2.0887
29326SOL    HW288557   6.228   1.442   2.612 -0.9684  1.0347  1.8354
29327SOL     OW88558   3.543   5.482   7.471 -0.5709 -0.2759 -0.3379
29327SOL    HW188559   3.580   5.502   7.558 -0.8425 -0.3204 -0.2105
29327SOL    HW288560   3.614   5.439   7.424 -0.0124  0.8531 -0.5675
29328SOL     OW88561   5.708   5.647   8.085 -0.0256  0.6063  0.0427
29328SOL    HW188562   5.724   5.651   8.179 -0.7108  1.2389  0.1439
29328SOL    HW288563   5.620   5.612   8.076  0.3731 -0.3004 -0.4018
29329SOL     OW88564   0.400   0.550   1.225 -0.5575  0.1264 -0.1784
29329SOL    HW188565   0.487   0.587   1.216 -0.7735  0.3138 -1.8773
29329SOL    HW288566   0.346   0.601   1.165 -1.9637  0.3559  1.2106
29330SOL     OW88567   3.699   5.049   3.435  0.6087  0.4495  0.2447
29330SOL    HW188568   3.761   5.119   3.418  0.3746  0.9824  1.4581
29330SOL    HW288569   3.749   4.983   3.483  0.6430  0.1185 -0.2387
29331SOL     OW88570   0.567   1.500   1.374 -0.1608  0.5176  0.1853
29331SOL    HW188571   0.645   1.452   1.403 -1.2752 -0.6402  1.4042
29331SOL    HW288572   0.583   1.590   1.399  1.5552  0.6765 -1.2390
29332SOL     OW88573   7.289   2.431   5.832  0.0329 -0.8834  0.5232
29332SOL    HW188574   7.357   2.375   5.795 -0.0384  0.3125 -1.6110
29332SOL    HW288575   7.207   2.395   5.800 -0.0026  0.4657 -1.0327
29333SOL     OW88576   3.295   4.034   4.133  0.4896  0.2400  0.2608
29333SOL    HW188577   3.343   3.970   4.081  0.4175  0.7689 -0.4667
29333SOL    HW288578   3.291   3.995   4.221  1.4055 -0.2397  0.1008
29334SOL     OW88579   4.204   7.779   5.960 -0.6278  0.1816 -0.6420
29334SOL    HW188580   4.268   7.814   6.023  1.3081 -0.6467 -2.0378
29334SOL    HW288581   4.209   7.839   5.885 -0.0392 -0.9408 -1.5316
29335SOL     OW88582   4.126   2.785   1.915  0.0595  0.0571 -0.3275
29335SOL    HW188583   4.061   2.820   1.976  0.1639  0.6416 -0.5388
29335SOL    HW288584   4.124   2.845   1.840  1.1087  0.3163 -0.1721
29336SOL     OW88585   2.023   6.670   1.128  0.3876 -0.0530  0.2591
29336SOL    HW188586   1.960   6.715   1.073 -1.2032  0.5120  2.4069
29336SOL    HW288587   2.106   6.716   1.112 -0.4543  1.3881 -0.1579
29337SOL     OW88588   3.368   4.956   5.274 -0.1566  0.0957  0.0590
29337SOL    HW188589   3.281   4.984   5.303 -0.4440 -1.6845  1.0447
29337SOL    HW288590   3.393   4.888   5.336  1.5964 -0.0068 -0.7119
29338SOL     OW88591   4.543   2.958   2.194 -0.4116 -0.4271  0.3466
29338SOL    HW188592   4.475   2.902   2.158  0.7958 -2.1945  0.6988
29338SOL    HW288593   4.609   2.964   2.125  0.2460 -0.8495  0.9247
29339SOL     OW88594   1.971   5.219   4.553 -0.0185  0.3241  0.1950
29339SOL    HW188595   1.927   5.134   4.552  0.4905  0.0236  1.2831
29339SOL    HW288596   1.908   5.279   4.515  0.3644 -0.8687 -2.5333
29340SOL     OW88597   8.200   2.757   4.861  0.3440  0.3682  0.4550
29340SOL    HW188598   8.226   2.666   4.848  0.1568  0.2109  1.1192
29340SOL    HW288599   8.274   2.796   4.909 -0.4118  0.0283  1.9754
29341SOL     OW88600   3.699   9.634   1.441 -0.4688 -0.5903  0.0327
29341SOL    HW188601   3.692   9.561   1.380  2.7739 -0.6169 -0.4275
29341SOL    HW288602   3.720   9.593   1.525  0.2364 -0.2772  0.0162
29342SOL     OW88603   3.559   4.184   6.780 -0.4081  0.2131 -0.2067
29342SOL    HW188604   3.590   4.125   6.849 -1.0484 -1.3280 -1.1852
29342SOL    HW288605   3.600   4.268   6.801  0.8293 -0.6412  1.0471
29343SOL     OW88606   8.544   0.477   5.283  0.1726  0.3385  0.3673
29343SOL    HW188607   8.544   0.413   5.212  1.6272 -1.1748  1.6308
29343SOL    HW288608   8.489   0.439   5.351  0.4278  0.7798  0.8366
29344SOL     OW88609   6.659   0.525   2.242 -0.4040  0.3774  0.2556
29344SOL    HW188610   6.644   0.583   2.167  0.0923  1.5198  1.0205
29344SOL    HW288611   6.571   0.501   2.272 -0.6318 -1.1175 -1.4277
29345SOL     OW88612   3.181   8.662   1.691  0.2674  0.9715 -0.3039
29345SOL    HW188613   3.148   8.740   1.736 -1.3800  1.2406 -1.8662
29345SOL    HW288614   3.165   8.679   1.598  1.6523 -0.4433 -0.8565
29346SOL     OW88615   8.168   2.939   2.843  0.0586 -0.1295  0.4509
29346SOL    HW188616   8.093   2.935   2.785  0.9622  0.2648 -0.7810
29346SOL    HW288617   8.211   2.854   2.834 -0.7217 -0.7236  1.8823
29347SOL     OW88618   2.546   6.000   3.860  0.0586 -0.0120  0.4834
29347SOL    HW188619   2.626   6.022   3.909 -0.0410  2.7163 -0.4047
29347SOL    HW288620   2.475   6.023   3.919 -0.1579 -2.1840  1.1651
29348SOL     OW88621   5.989   3.002   0.157 -0.2200  0.3722 -0.4559
29348SOL    HW188622   5.962   2.977   0.245 -2.6694  2.2704 -0.5667
29348SOL    HW288623   6.025   2.922   0.119 -1.3331 -1.0971  1.4488
29349SOL     OW88624   6.082   1.226   9.909 -0.0387  0.2952 -0.5302
29349SOL    HW188625   6.126   1.248   9.826 -0.9983  0.4892 -0.9997
29349SOL    HW288626   6.052   1.311   9.943 -0.3451  0.1299 -0.3850
29350SOL     OW88627   8.909   6.060   1.702 -0.5393  0.2436 -0.1925
29350SOL    HW188628   8.932   6.104   1.620 -2.6749  0.7696 -0.5732
29350SOL    HW288629   8.954   6.111   1.770 -0.3097  0.9915 -0.8814
29351SOL     OW88630   2.512   8.192   2.097  0.3766 -0.1296 -0.3032
29351SOL    HW188631   2.511   8.243   2.178  0.1687 -0.4019 -0.1303
29351SOL    HW288632   2.556   8.110   2.121  1.0091  0.0963 -0.6601
29352SOL     OW88633   5.196   1.176   0.273 -0.2369 -0.5384  0.0380
29352SOL    HW188634   5.106   1.154   0.297 -1.3173  2.0290 -1.2495
29352SOL    HW288635   5.224   1.238   0.340 -0.0907  0.0491 -0.5638
29353SOL     OW88636   6.930   2.125   0.990 -0.0844  0.0329  0.1746
29353SOL    HW188637   6.906   2.125   1.083  1.3371 -0.2803  0.5622
29353SOL    HW288638   6.887   2.203   0.954 -0.3926  0.3322  1.1692
29354SOL     OW88639   8.379   2.422   3.798 -0.1769  0.4967 -0.0550
29354SOL    HW188640   8.375   2.474   3.878  0.3450  0.9082 -0.2913
29354SOL    HW288641   8.403   2.484   3.730 -2.4053  0.5358 -0.9030
29355SOL     OW88642   2.568   2.206   8.786  0.0005 -0.0701  0.1010
29355SOL    HW188643   2.477   2.197   8.812 -0.2900  0.1708 -0.8005
29355SOL    HW288644   2.613   2.132   8.827 -0.2923  0.6991  1.8683
29356SOL     OW88645   0.954   5.749   3.836 -0.6079  0.1427 -0.0360
29356SOL    HW188646   1.042   5.770   3.865 -0.3804 -0.5376 -0.2150
29356SOL    HW288647   0.910   5.715   3.914 -1.0594  1.4979  0.3185
29357SOL     OW88648   2.725   0.247   9.377 -0.7525  0.8305 -0.1829
29357SOL    HW188649   2.711   0.171   9.321 -0.6477 -0.2822  1.2373
29357SOL    HW288650   2.820   0.259   9.378 -0.6351  0.0327  0.7263
29358SOL     OW88651   7.717   8.757   6.525  0.5013 -1.0234  0.2081
29358SOL    HW188652   7.792   8.809   6.554  0.5677 -0.7021 -0.5140
29358SOL    HW288653   7.654   8.763   6.596  0.4176  0.2348  0.0571
29359SOL     OW88654   5.190   3.634   5.967 -0.0443  0.4364 -0.3289
29359SOL    HW188655   5.140   3.651   5.887  0.6406  0.7552 -0.7009
29359SOL    HW288656   5.279   3.619   5.936  0.1718  0.2924  0.3586
29360SOL     OW88657   3.865   9.414   3.715 -0.7869 -0.0989 -0.4458
29360SOL    HW188658   3.865   9.451   3.626 -1.9412 -0.0994 -0.4613
29360SOL    HW288659   3.773   9.403   3.736 -0.5162 -0.3253  0.6746
29361SOL     OW88660   1.782   4.601   7.590  0.4950  0.3522  0.2510
29361SOL    HW188661   1.738   4.552   7.660 -0.3604  0.3530 -0.2644
29361SOL    HW288662   1.762   4.693   7.610  0.3751  0.3611  0.0983
29362SOL     OW88663   5.097   9.469   6.786 -0.0749 -0.8951  0.1337
29362SOL    HW188664   5.010   9.440   6.812  0.5139 -4.2051 -0.9970
29362SOL    HW288665   5.118   9.415   6.709  2.4778  0.6692 -0.3953
29363SOL     OW88666   2.909   6.646   2.664  0.0479  0.6080  0.3864
29363SOL    HW188667   2.936   6.731   2.699  0.9111  0.3858  0.2834
29363SOL    HW288668   2.965   6.632   2.588 -0.1759  0.0106  0.3245
29364SOL     OW88669   7.700   0.780   1.202 -0.6883 -0.6080 -0.3088
29364SOL    HW188670   7.716   0.828   1.121 -1.5838 -2.3180 -1.5534
29364SOL    HW288671   7.782   0.788   1.251  0.1179 -0.1147 -1.6845
29365SOL     OW88672   4.977   6.421   8.841  0.1099 -0.1861 -0.0997
29365SOL    HW188673   4.953   6.470   8.920  0.1174 -1.6628  0.8577
29365SOL    HW288674   4.894   6.394   8.803  0.0618  1.3879 -1.2167
29366SOL     OW88675   2.065   2.921   9.524 -0.0170  0.0831  0.2477
29366SOL    HW188676   2.117   2.998   9.548  0.1083  0.1613 -0.2737
29366SOL    HW288677   1.982   2.934   9.568  0.2261  0.2085  0.6781
29367SOL     OW88678   7.441   5.353   3.259  0.4192  0.1272  0.1800
29367SOL    HW188679   7.361   5.334   3.309  0.1568 -1.8878 -0.9204
29367SOL    HW288680   7.414   5.418   3.194  0.3238  1.3467  1.3818
29368SOL     OW88681   4.410   4.735   2.073  0.6350  0.2301 -0.2501
29368SOL    HW188682   4.325   4.760   2.111  0.1638 -0.4375 -0.8361
29368SOL    HW288683   4.420   4.792   1.997  1.3505  1.2269  0.5560
29369SOL     OW88684   1.789   5.907   8.606 -0.1727  0.3751 -0.5681
29369SOL    HW188685   1.871   5.952   8.628  1.5118 -3.4107  1.9830
29369SOL    HW288686   1.792   5.898   8.511  1.9503  1.1087 -0.6234
29370SOL     OW88687   2.074   3.628   2.255 -0.8646 -0.5123 -0.5282
29370SOL    HW188688   1.985   3.612   2.223 -0.6217  0.5588 -1.8537
29370SOL    HW288689   2.127   3.635   2.175  0.1662  0.2049  0.1912
29371SOL     OW88690   2.961   1.152   6.998 -0.0968 -0.2144  0.2507
29371SOL    HW188691   2.987   1.072   7.043 -1.5042 -1.8197 -1.6011
29371SOL    HW288692   3.025   1.160   6.926  0.8168  1.0904  1.1759
29372SOL     OW88693   3.510   3.097   8.435 -0.0844 -0.2050 -0.4588
29372SOL    HW188694   3.526   3.003   8.448 -0.9200 -0.0820  1.8875
29372SOL    HW288695   3.596   3.132   8.411  0.6097 -1.3379  0.2563
29373SOL     OW88696   1.960   8.774   0.110  0.6729  0.3435 -0.0262
29373SOL    HW188697   1.952   8.732   0.024 -0.9948  0.2784  0.1172
29373SOL    HW288698   1.870   8.799   0.132  1.1763  0.9746  1.3958
29374SOL     OW88699   7.462   7.758   1.864 -0.2159  0.1953 -0.1928
29374SOL    HW188700   7.526   7.799   1.922 -0.4888  2.6281 -1.4776
29374SOL    HW288701   7.465   7.665   1.887  2.9298  0.3815  0.5602
29375SOL     OW88702   1.577   3.459   1.452 -0.2068 -0.7067  0.4804
29375SOL    HW188703   1.554   3.535   1.400 -0.6398  0.6447  2.5054
29375SOL    HW288704   1.598   3.391   1.388 -0.5472  0.8671 -1.3999
29376SOL     OW88705   1.143   0.853   7.786  0.5071 -0.8880  0.3980
29376SOL    HW188706   1.183   0.780   7.738  1.3844 -0.5507  0.5880
29376SOL    HW288707   1.166   0.838   7.877  1.1765 -0.0874  0.3711
29377SOL     OW88708   5.990   4.523   7.021  0.0366 -0.3624  0.1860
29377SOL    HW188709   6.075   4.489   6.994  0.3774  0.4698  0.1796
29377SOL    HW288710   5.993   4.521   7.117 -0.1214 -0.7654  0.1853
29378SOL     OW88711   9.070   8.586   3.430 -0.5946 -0.5757  0.5181
29378SOL    HW188712   9.104   8.598   3.518 -1.1767 -0.5416  0.7448
29378SOL    HW288713   9.056   8.675   3.397  0.0306 -0.5805  0.2245
29379SOL     OW88714   6.259   3.697   4.915 -0.0667  0.4280 -0.1246
29379SOL    HW188715   6.351   3.712   4.893  0.6635 -0.2967  2.0903
29379SOL    HW288716   6.221   3.785   4.918  1.4558  1.1336  2.2028
29380SOL     OW88717   6.101   4.934   9.807  0.2025 -0.2445  0.1380
29380SOL    HW188718   6.066   4.911   9.893  1.0176  0.6765  0.7325
29380SOL    HW288719   6.129   5.025   9.816  0.9294 -0.3472 -0.9042
29381SOL     OW88720   2.227   4.906   2.140 -0.4406 -0.6324 -0.1818
29381SOL    HW188721   2.168   4.833   2.159 -1.3572  0.0076 -0.5238
29381SOL    HW288722   2.190   4.948   2.063 -0.1607  0.4554  0.2634
29382SOL     OW88723   7.849   3.830   3.880  0.0083 -0.2031 -0.7407
29382SOL    HW188724   7.921   3.783   3.836  1.2219 -0.4485  1.3832
29382SOL    HW288725   7.835   3.782   3.961 -0.7089  1.4238  0.1399
29383SOL     OW88726   8.838   3.875   6.484 -0.6902 -0.3022  0.2491
29383SOL    HW188727   8.835   3.901   6.391  0.6673 -1.5004 -0.1607
29383SOL    HW288728   8.880   3.949   6.527  0.6280 -0.5982 -0.4653
29384SOL     OW88729   7.542   8.822   6.737  0.4345  0.5709  0.2000
29384SOL    HW188730   7.474   8.756   6.729  0.5167  0.6722 -2.4671
29384SOL    HW288731   7.508   8.884   6.802 -1.1240 -0.3687  0.3357
29385SOL     OW88732   9.310   8.480   8.651 -0.3469 -0.1807 -0.2909
29385SOL    HW188733   9.310   8.566   8.694 -0.2604  1.6264 -3.5458
29385SOL    HW288734   9.242   8.488   8.583  0.2361 -2.4050 -1.2158
29386SOL     OW88735   9.903   5.677   5.720  0.4232 -0.3225 -0.3341
29386SOL    HW188736   9.959   5.690   5.643  1.2579 -0.9574  0.1404
29386SOL    HW288737   9.817   5.708   5.693  1.1590  1.3947 -0.8508
29387SOL     OW88738   0.787   3.477   6.629 -0.1979  0.2977 -0.8523
29387SOL    HW188739   0.865   3.529   6.610  0.3804 -0.0547  0.4081
29387SOL    HW288740   0.714   3.538   6.620  0.4686  1.3675  0.6133
29388SOL     OW88741   2.057   0.864   3.778  0.1936  0.5318  0.2322
29388SOL    HW188742   2.066   0.891   3.869 -0.3335  0.5313  0.2851
29388SOL    HW288743   2.029   0.943   3.732 -0.5637  0.2798  0.2511
29389SOL     OW88744   8.812   5.185   2.043  0.3780 -0.5372 -0.4070
29389SOL    HW188745   8.844   5.234   2.118 -1.4152  0.5585 -0.3091
29389SOL    HW288746   8.809   5.249   1.972  0.8878 -1.2645 -1.1062
29390SOL     OW88747   5.414   3.921   2.028 -0.4398 -0.1664 -0.1909
29390SOL    HW188748   5.405   4.016   2.040 -0.2010  0.0567 -1.6940
29390SOL    HW288749   5.382   3.884   2.111 -1.2797  1.1873  0.1228
29391SOL     OW88750   1.853   4.802   9.516  0.0675  0.1771 -0.3220
29391SOL    HW188751   1.767   4.821   9.554  0.5459 -0.5662  1.2351
29391SOL    HW288752   1.853   4.848   9.432 -1.7843  0.3133 -0.2933
29392SOL     OW88753   4.546   0.332   5.947 -0.3693 -0.7177 -0.2375
29392SOL    HW188754   4.469   0.284   5.919 -0.3525 -0.3768 -0.8824
29392SOL    HW288755   4.519   0.376   6.028 -1.5741  1.1790 -1.5934
29393SOL     OW88756   9.081   9.155   0.039  0.2252  0.4035 -0.1650
29393SOL    HW188757   9.131   9.231   0.007  1.7098 -0.6059 -0.3466
29393SOL    HW288758   9.005   9.193   0.083  0.8735  1.9930 -0.3440
29394SOL     OW88759   3.021   0.997   1.456 -0.0599  0.2026  0.5372
29394SOL    HW188760   3.027   1.062   1.385  1.8744  0.2758  0.6925
29394SOL    HW288761   3.024   0.912   1.411  1.0390  0.2502  0.4715
29395SOL     OW88762   6.841   9.217   2.163  0.1545  0.0229 -0.3274
29395SOL    HW188763   6.839   9.138   2.110  0.1722 -1.1886  1.4137
29395SOL    HW288764   6.786   9.197   2.239  2.3132  0.6458  1.5118
29396SOL     OW88765   6.755   1.993   6.997 -0.2195  0.2966  0.2383
29396SOL    HW188766   6.747   1.908   7.040  2.4438 -0.8135 -1.1824
29396SOL    HW288767   6.665   2.022   6.983 -1.1911 -1.3772  2.4011
29397SOL     OW88768   8.040   0.662   7.266 -0.4984  0.3476 -0.8410
29397SOL    HW188769   7.967   0.703   7.312  0.5235  1.9885 -0.5926
29397SOL    HW288770   8.107   0.731   7.261  0.3348 -0.5235 -2.6763
29398SOL     OW88771   3.812   2.743   0.667  0.0572  0.4405  0.1027
29398SOL    HW188772   3.773   2.700   0.592 -0.3097 -0.4921  0.8070
29398SOL    HW288773   3.901   2.708   0.672 -0.0470  0.2069  0.3307
29399SOL     OW88774   8.400   5.821   9.806 -0.2347  0.3153  0.0268
29399SOL    HW188775   8.474   5.802   9.864 -0.1236  1.8002  0.4127
29399SOL    HW288776   8.346   5.741   9.809  1.5133 -0.9539 -0.5795
29400SOL     OW88777   0.106   2.427   3.142 -0.1548  0.2854  0.1636
29400SOL    HW188778   0.182   2.372   3.164  0.8153  2.0472  1.5824
29400SOL    HW288779   0.120   2.453   3.051 -0.5440 -1.6068 -0.4716
29401SOL     OW88780   2.092   0.852   5.118 -0.3559 -0.2822  0.6854
29401SOL    HW188781   2.096   0.778   5.058  3.4475 -0.7033  1.2052
29401SOL    HW288782   2.081   0.813   5.204  0.9147 -0.2578  0.8824
29402SOL     OW88783   3.156   9.858   9.860  0.0066 -0.0300  0.0185
29402SOL    HW188784   3.065   9.872   9.834 -0.0302 -1.5538 -0.8234
29402SOL    HW288785   3.152   9.846   9.955 -0.5561  0.6249  0.0888
29403SOL     OW88786   1.378   0.709   4.050  0.2828 -0.0517 -0.1794
29403SOL    HW188787   1.446   0.766   4.086  0.7026  0.2404 -1.3948
29403SOL    HW288788   1.378   0.633   4.108  0.2265  0.8337  1.0337
29404SOL     OW88789   1.582   4.128   1.913 -0.3143  0.3442  0.4004
29404SOL    HW188790   1.546   4.178   1.987 -0.6867 -1.1961  1.3143
29404SOL    HW288791   1.638   4.062   1.954 -1.3920 -1.2501 -0.6023
29405SOL     OW88792   9.716   2.185   4.489 -0.1292 -0.0429 -0.1355
29405SOL    HW188793   9.648   2.207   4.552 -1.3728 -0.3105 -1.3122
29405SOL    HW288794   9.683   2.220   4.406  1.8333  1.0277 -0.5162
29406SOL     OW88795   8.894   0.267   0.912 -0.5180 -1.0807  0.3413
29406SOL    HW188796   8.872   0.188   0.861  1.2465 -0.5946 -1.3175
29406SOL    HW288797   8.822   0.327   0.896 -0.0422 -0.9612 -1.6535
29407SOL     OW88798   7.391   7.838   1.372 -0.2749 -0.3014  0.0276
29407SOL    HW188799   7.472   7.889   1.374 -1.2252  1.2631  0.3209
29407SOL    HW288800   7.368   7.825   1.465 -1.2608  0.8296 -0.0246
29408SOL     OW88801   0.367   6.199   2.096  0.4022  0.6859  0.9538
29408SOL    HW188802   0.422   6.193   2.018 -0.3567 -4.1503  0.4615
29408SOL    HW288803   0.281   6.224   2.063  0.5818  0.7937  0.5608
29409SOL     OW88804   1.169   0.201   9.561  0.1803 -0.8137 -0.0220
29409SOL    HW188805   1.220   0.267   9.513  1.7262 -2.1022 -0.2578
29409SOL    HW288806   1.107   0.167   9.497  0.9829 -1.2216 -0.6050
29410SOL     OW88807   7.437   4.769   8.833  0.1225  0.5243 -0.1260
29410SOL    HW188808   7.442   4.675   8.851  1.8199  0.6628  0.2808
29410SOL    HW288809   7.378   4.776   8.758 -0.0777 -0.8592 -0.1223
29411SOL     OW88810   3.200   8.516   2.324  0.7274  0.0776  0.1575
29411SOL    HW188811   3.203   8.420   2.326 -0.0045 -0.0293 -1.8324
29411SOL    HW288812   3.108   8.537   2.313  1.0732  0.9099 -1.4202
29412SOL     OW88813   4.660   8.651   7.303 -0.0322  0.3305 -0.3505
29412SOL    HW188814   4.734   8.711   7.307  1.0629 -0.9185 -1.1565
29412SOL    HW288815   4.680   8.582   7.366 -0.3585 -0.1643 -0.7756
29413SOL     OW88816   9.525   3.244   7.357 -0.0359 -0.0505 -0.6111
29413SOL    HW188817   9.440   3.227   7.397 -0.7334 -0.5928 -2.2527
29413SOL    HW288818   9.556   3.325   7.399 -0.8508 -0.4347  0.7730
29414SOL     OW88819   7.997   8.397   9.540 -0.6402  0.0863 -0.0622
29414SOL    HW188820   7.983   8.477   9.591 -0.1508 -0.4409  0.9420
29414SOL    HW288821   7.910   8.361   9.527 -0.7100 -0.2570  1.2418
29415SOL     OW88822   9.012   0.553   1.825 -0.2125 -0.5651 -0.1309
29415SOL    HW188823   9.000   0.517   1.737 -1.2611  0.9801 -0.6804
29415SOL    HW288824   8.982   0.484   1.884 -1.7188 -0.7846 -1.0994
29416SOL     OW88825   6.629   6.584   0.541 -0.2299  0.6668  0.2651
29416SOL    HW188826   6.672   6.662   0.505  0.0945 -0.4567 -1.9130
29416SOL    HW288827   6.543   6.583   0.499  0.1539 -0.6710 -0.5459
29417SOL     OW88828   9.263   1.767   3.954 -0.5576 -0.2525  0.6397
29417SOL    HW188829   9.228   1.823   4.023  0.4234  1.7224 -0.3789
29417SOL    HW288830   9.344   1.811   3.926 -0.5946 -1.3054 -1.3182
29418SOL     OW88831   6.477   8.054   1.080  0.1732 -0.2804  0.2449
29418SOL    HW188832   6.492   8.015   1.166  0.1825  1.4739  1.0887
29418SOL    HW288833   6.555   8.033   1.029  1.1454  0.4341  1.3818
29419SOL     OW88834   5.003   6.137   7.203  0.0814 -0.3327 -0.0228
29419SOL    HW188835   5.029   6.230   7.202  0.1868 -0.3427  0.7315
29419SOL    HW288836   5.020   6.106   7.115 -0.7254  0.5787 -0.5167
29420SOL     OW88837   8.448   8.039   3.351 -0.2400 -0.0206 -0.2308
29420SOL    HW188838   8.389   8.022   3.277 -1.1090 -0.1842  0.4793
29420SOL    HW288839   8.390   8.044   3.427  0.6698 -0.1392  0.4874
29421SOL     OW88840   8.557   9.268   7.263 -0.2518  0.3593  0.2696
29421SOL    HW188841   8.537   9.354   7.300 -1.4134  0.0214  0.4794
29421SOL    HW288842   8.475   9.219   7.271  0.4678 -0.8635  0.4188
29422SOL     OW88843   3.898   6.617   6.620  0.0514 -0.1997 -0.1024
29422SOL    HW188844   3.878   6.705   6.589  0.5308  0.2364  0.7610
29422SOL    HW288845   3.895   6.624   6.716 -0.1966 -1.1938 -0.0258
29423SOL     OW88846   3.721   1.178   4.197  0.2332  0.1219  0.1691
29423SOL    HW188847   3.665   1.147   4.268 -0.5634  2.4393  0.6386
29423SOL    HW288848   3.810   1.163   4.228 -0.1081  0.8648  1.5876
29424SOL     OW88849   0.737   6.119   4.225  0.3258 -0.0244  0.5450
29424SOL    HW188850   0.740   6.048   4.289 -0.7837 -1.1355 -0.5624
29424SOL    HW288851   0.645   6.144   4.221  0.1645 -0.7263 -1.3404
29425SOL     OW88852   8.713   1.944   3.867  0.0552  0.0939 -0.2119
29425SOL    HW188853   8.677   1.966   3.952 -0.7587 -0.5275 -0.3781
29425SOL    HW288854   8.807   1.960   3.875 -0.3171  2.5844 -0.0317
29426SOL     OW88855   4.143   7.708   4.662  0.7203  0.3621 -0.0139
29426SOL    HW188856   4.090   7.692   4.740 -0.7489  0.7962 -0.8801
29426SOL    HW288857   4.192   7.787   4.682  0.1429  0.6313  0.3668
29427SOL     OW88858   8.421   4.189   4.413  0.3138  0.1663 -0.1604
29427SOL    HW188859   8.333   4.228   4.412  0.1125 -0.2528 -1.3090
29427SOL    HW288860   8.419   4.126   4.341  1.6901  0.4595 -0.4788
29428SOL     OW88861   4.557   7.678   1.621 -0.7421  0.4526  0.3837
29428SOL    HW188862   4.490   7.615   1.593  0.8091 -1.3182  0.4860
29428SOL    HW288863   4.636   7.651   1.575  0.2379  1.7054  1.2705
29429SOL     OW88864   9.853   8.928   3.091 -0.2462  0.2469  0.1338
29429SOL    HW188865   9.778   8.946   3.035  0.1619  1.0732 -0.1661
29429SOL    HW288866   9.909   9.005   3.081 -0.0510  0.3097  1.4919
29430SOL     OW88867   4.145   2.000   3.476  0.4646 -0.3364  0.2338
29430SOL    HW188868   4.149   1.905   3.486 -0.6868 -0.7229 -2.1442
29430SOL    HW288869   4.101   2.013   3.391 -0.8294  2.3212  1.1931
29431SOL     OW88870   6.727   4.426   9.938 -0.0557  0.1234 -0.1459
29431SOL    HW188871   6.667   4.487   9.894  0.6617  0.3944 -0.7696
29431SOL    HW288872   6.761   4.371   9.867 -1.8712 -2.0866  0.5802
29432SOL     OW88873   3.159   4.278   3.457  0.4300  0.5131  0.4105
29432SOL    HW188874   3.218   4.207   3.482  2.9820  3.0806  2.3159
29432SOL    HW288875   3.102   4.290   3.533 -0.4087  0.1777 -0.1444
29433SOL     OW88876   3.794   1.153   0.320  0.3515  0.1834 -0.7764
29433SOL    HW188877   3.699   1.147   0.311  0.1887 -1.0014  1.1793
29433SOL    HW288878   3.828   1.111   0.241 -0.8123 -1.7785 -0.2963
29434SOL     OW88879   5.344   4.269   5.755  0.0772 -0.1281  0.2491
29434SOL    HW188880   5.381   4.251   5.668 -0.4940  1.1157 -0.2828
29434SOL    HW288881   5.249   4.264   5.743 -0.0215  0.4816  0.6851
29435SOL     OW88882   8.382   0.439   4.208 -0.0373 -0.2960 -0.1154
29435SOL    HW188883   8.467   0.471   4.177  0.5588  1.1402  2.6376
29435SOL    HW288884   8.400   0.406   4.296 -2.6620  2.2208  1.5399
29436SOL     OW88885   2.836   6.120   7.160  0.9401 -0.2261  0.1105
29436SOL    HW188886   2.885   6.165   7.230  0.1638 -2.3332  2.1204
29436SOL    HW288887   2.835   6.183   7.088  1.7500  2.0934  1.9900
29437SOL     OW88888   7.757   4.880   2.064  0.7854 -0.9483 -0.3546
29437SOL    HW188889   7.787   4.908   2.151 -0.1693 -0.2932 -0.2219
29437SOL    HW288890   7.677   4.830   2.082 -1.4051  2.0658 -1.0263
29438SOL     OW88891   7.036   6.469   1.691 -0.5355  0.3740  0.1376
29438SOL    HW188892   7.124   6.445   1.661 -1.0111 -1.4328  0.0674
29438SOL    HW288893   7.050   6.547   1.745  1.0066  0.5654 -0.4795
29439SOL     OW88894   5.272   3.303   1.587  0.1297  0.2683 -0.2806
29439SOL    HW188895   5.303   3.318   1.676  0.2131 -2.0811  0.1416
29439SOL    HW288896   5.349   3.272   1.540 -0.8008 -2.8496  0.0471
29440SOL     OW88897   9.085   6.854   9.243 -0.1053  0.8125  0.4047
29440SOL    HW188898   9.065   6.930   9.187  0.3597  0.7187  0.1052
29440SOL    HW288899   9.130   6.891   9.318  0.4074  0.8010  0.1062
29441SOL     OW88900   6.758   7.276   0.493  0.6180 -0.3929  0.1262
29441SOL    HW188901   6.820   7.332   0.539  0.0743  2.2939 -2.1344
29441SOL    HW288902   6.682   7.271   0.551  1.7648 -1.2985  1.6267
29442SOL     OW88903   8.078   3.233   5.680 -0.8099  0.5531 -0.2231
29442SOL    HW188904   8.064   3.140   5.700 -1.7927  0.9201  0.9088
29442SOL    HW288905   8.171   3.238   5.657 -0.9830 -0.8908 -1.4232
29443SOL     OW88906   0.604   8.345   7.957 -0.1536 -0.3642 -0.3984
29443SOL    HW188907   0.548   8.267   7.953  0.5240 -0.7943 -2.1469
29443SOL    HW288908   0.553   8.413   7.914 -1.5352  0.7679  2.7231
29444SOL     OW88909   9.988   4.813   8.111 -0.2219  0.3292 -0.4454
29444SOL    HW188910   9.989   4.775   8.199  1.7075  4.1380  1.4288
29444SOL    HW288911   9.896   4.835   8.096 -0.6790 -0.9660  0.2995
29445SOL     OW88912   5.357   2.590   7.493  0.2595  0.1952 -1.4128
29445SOL    HW188913   5.352   2.522   7.560 -0.9469  1.5584 -0.0413
29445SOL    HW288914   5.449   2.617   7.493  0.3645 -0.1337 -0.6167
29446SOL     OW88915   1.625   6.692   6.912 -0.3306 -0.3312 -0.0108
29446SOL    HW188916   1.595   6.717   6.825  1.8503 -0.9304 -0.9846
29446SOL    HW288917   1.556   6.725   6.971 -2.0746 -0.3210 -1.9470
29447SOL     OW88918   6.678   2.132   7.390  0.3373  0.4359 -0.0710
29447SOL    HW188919   6.672   2.037   7.390  0.5453  0.3877  1.7860
29447SOL    HW288920   6.619   2.160   7.320 -0.5509 -1.0038  0.0713
29448SOL     OW88921   9.225   6.025   8.967  0.1033 -0.0267  0.0873
29448SOL    HW188922   9.186   6.106   9.001 -0.4282 -0.2933  0.1326
29448SOL    HW288923   9.184   6.013   8.881 -0.5496 -0.7474  0.4817
29449SOL     OW88924   4.972   1.535   9.311  0.4715 -0.3542 -0.0964
29449SOL    HW188925   5.061   1.530   9.348  0.3844  0.9450  0.3553
29449SOL    HW288926   4.922   1.583   9.377 -0.8873 -2.0734  0.1966
29450SOL     OW88927   0.809   5.709   2.574  0.1502  0.1334 -0.0401
29450SOL    HW188928   0.796   5.736   2.665 -0.5683 -1.5433  0.3924
29450SOL    HW288929   0.750   5.765   2.524  1.5967  2.0579  0.3268
29451SOL     OW88930   4.338   9.112   6.432 -0.1280  0.1605  0.1221
29451SOL    HW188931   4.297   9.034   6.469  0.9989  0.0444  1.1671
29451SOL    HW288932   4.284   9.134   6.356  0.6078 -2.7876 -1.4008
29452SOL     OW88933   6.597   8.934   2.077  0.4235 -0.2013 -0.1040
29452SOL    HW188934   6.533   8.869   2.047  2.1407 -1.2824 -1.6715
29452SOL    HW288935   6.577   9.013   2.026 -0.3173 -0.1785  0.2143
29453SOL     OW88936   6.948   6.615   9.645 -0.1787  0.1495  0.0881
29453SOL    HW188937   7.029   6.566   9.642 -1.3818 -1.9391 -2.6010
29453SOL    HW288938   6.906   6.589   9.727  0.9117 -0.3382  0.5048
29454SOL     OW88939   2.646   7.918   4.678  0.5007 -0.0519 -0.2178
29454SOL    HW188940   2.624   7.950   4.590  1.4112  0.5263 -0.2547
29454SOL    HW288941   2.594   7.973   4.737  0.3328 -0.0402 -0.3770
29455SOL     OW88942   1.141   8.756   4.144 -0.7517 -0.5751  0.0772
29455SOL    HW188943   1.167   8.826   4.084 -2.6614  0.6799  0.6300
29455SOL    HW288944   1.167   8.675   4.099 -0.3634  0.3967 -1.5188
29456SOL     OW88945   9.677   2.534   0.784 -0.0393  0.0023 -0.1263
29456SOL    HW188946   9.618   2.578   0.845  0.1383 -0.1159  0.1354
29456SOL    HW288947   9.673   2.442   0.810 -0.6385 -0.1893 -0.8623
29457SOL     OW88948   7.250   0.973   5.980  0.5531 -0.2325 -0.1244
29457SOL    HW188949   7.262   0.927   5.898  0.1434  0.6700 -0.7095
29457SOL    HW288950   7.278   0.911   6.047  2.1212 -0.5282 -1.0157
29458SOL     OW88951   3.009   4.220   2.822 -0.1714  0.3614 -0.0368
29458SOL    HW188952   3.039   4.250   2.908  0.4656  0.6162 -0.3398
29458SOL    HW288953   3.011   4.125   2.828  0.8712  0.3693 -0.1018
29459SOL     OW88954   7.166   3.918   8.275  0.8746 -0.1267 -0.1654
29459SOL    HW188955   7.072   3.931   8.286  0.8337 -2.0560  2.8364
29459SOL    HW288956   7.178   3.905   8.181 -1.9130 -0.3362 -0.5629
29460SOL     OW88957   1.772   4.732   7.045 -0.2639 -0.4623  0.0832
29460SOL    HW188958   1.805   4.746   7.134  1.2994 -0.2643 -0.4842
29460SOL    HW288959   1.723   4.811   7.024 -1.4652 -0.9147  1.0937
29461SOL     OW88960   5.425   2.071   0.824  0.6893 -0.1604  0.0294
29461SOL    HW188961   5.342   2.105   0.857  1.8004  0.6872  2.1073
29461SOL    HW288962   5.412   2.065   0.729 -1.6067  0.2659  0.2576
29462SOL     OW88963   7.341   2.091   3.408  0.2564 -0.4496  0.3609
29462SOL    HW188964   7.421   2.141   3.394  0.9302 -1.6043 -0.1207
29462SOL    HW288965   7.270   2.151   3.387  0.9794  0.7013  1.1322
29463SOL     OW88966   5.838   9.300   1.615 -0.2955 -0.0953 -0.2397
29463SOL    HW188967   5.899   9.314   1.543  0.5385  0.4538  0.5642
29463SOL    HW288968   5.877   9.229   1.666 -0.6791 -0.2110 -0.1056
29464SOL     OW88969   8.679   7.688   8.796  0.1114  1.3515  0.2280
29464SOL    HW188970   8.665   7.602   8.757  1.6790  0.6116  1.1914
29464SOL    HW288971   8.752   7.726   8.747  1.7615  0.6201  2.0123
29465SOL     OW88972   9.521   3.417   1.644  0.1994  0.1136  0.2299
29465SOL    HW188973   9.591   3.356   1.622 -0.2453 -0.1921 -0.3467
29465SOL    HW288974   9.474   3.375   1.716  1.5652  1.0497  1.7491
29466SOL     OW88975   7.284   7.855   7.537  0.1890  0.1738  0.1211
29466SOL    HW188976   7.233   7.912   7.594  0.5676 -0.4258  1.1000
29466SOL    HW288977   7.351   7.818   7.595  1.2647  0.3681 -0.9539
29467SOL     OW88978   4.304   4.872   2.949  0.0799 -0.2438  0.2649
29467SOL    HW188979   4.326   4.949   2.898  0.5101 -0.3613  0.2677
29467SOL    HW288980   4.387   4.844   2.988 -0.2745 -0.0312  1.2015
29468SOL     OW88981   5.884   2.598   4.834 -0.0929 -0.0781 -0.2678
29468SOL    HW188982   5.794   2.590   4.801  0.0231 -0.3692 -0.5295
29468SOL    HW288983   5.875   2.602   4.929 -0.4167  0.4351 -0.3185
29469SOL     OW88984   4.814   1.232   5.750  0.1612  0.0654  0.2285
29469SOL    HW188985   4.734   1.201   5.708  0.1511  1.2960 -0.7180
29469SOL    HW288986   4.884   1.195   5.696  0.1558  1.3501 -0.6873
29470SOL     OW88987   4.042   0.135   2.465 -0.0628  0.4009  0.0540
29470SOL    HW188988   4.135   0.153   2.451 -0.3425  1.2069 -0.9465
29470SOL    HW288989   4.001   0.160   2.382 -1.2572  0.7769  0.7418
29471SOL     OW88990   6.813   9.656   5.063  0.7129 -0.0388 -0.6116
29471SOL    HW188991   6.816   9.562   5.082  1.1250  0.1156  0.1298
29471SOL    HW288992   6.719   9.675   5.056  0.5400 -0.1863  0.9694
29472SOL     OW88993   9.673   5.228   4.473  0.0734 -0.1924 -0.0171
29472SOL    HW188994   9.649   5.315   4.505  0.8402  0.6961 -1.7645
29472SOL    HW288995   9.605   5.206   4.410  1.7646  0.7783 -2.2994
29473SOL     OW88996   5.465   0.600   6.127  0.3914 -0.4075  0.1135
29473SOL    HW188997   5.541   0.544   6.112  0.9082  0.4114 -0.4527
29473SOL    HW288998   5.444   0.589   6.220 -1.1363 -3.4708 -0.4704
29474SOL     OW88999   1.919   9.134   2.881 -0.0400 -0.4164  0.2460
29474SOL    HW189000   1.854   9.099   2.942  0.8601  0.1725  1.5938
29474SOL    HW289001   1.884   9.220   2.856 -0.4685 -0.7081 -0.1535
29475SOL     OW89002   6.643   3.924   7.201  0.0600 -0.0471  0.2604
29475SOL    HW189003   6.634   3.900   7.294 -1.2806  0.4605  0.2825
29475SOL    HW289004   6.689   4.008   7.203  1.5853 -0.8613  0.3623
29476SOL     OW89005   0.232   0.249   4.345  0.4808  0.3857  0.9841
29476SOL    HW189006   0.304   0.286   4.396 -0.3323  0.4627  2.1306
29476SOL    HW289007   0.153   0.283   4.388 -0.2465 -0.4099  0.3055
29477SOL     OW89008   6.509   0.761   9.282 -0.1054  0.2503  0.2023
29477SOL    HW189009   6.481   0.697   9.347  0.0723  0.4678  0.4935
29477SOL    HW289010   6.480   0.724   9.198  1.0073 -0.7924  0.2389
29478SOL     OW89011   2.608   9.213   9.082  0.1207  0.1078  0.5036
29478SOL    HW189012   2.597   9.230   9.176 -1.0836  0.4164  0.3240
29478SOL    HW289013   2.521   9.230   9.045  0.4714 -0.4595 -0.5999
29479SOL     OW89014   9.286   9.724   2.890  0.3541  0.2423  0.0787
29479SOL    HW189015   9.269   9.708   2.983 -0.2724 -0.5468 -0.1643
29479SOL    HW289016   9.380   9.737   2.885  0.7085 -1.7387  0.5616
29480SOL     OW89017   9.066   1.004   6.165 -0.3152  0.5677  0.3043
29480SOL    HW189018   9.050   1.064   6.238  0.9939  1.3806 -0.0357
29480SOL    HW289019   9.014   1.038   6.093 -0.6688  0.4731  0.5157
29481SOL     OW89020   1.342   7.543   7.809  0.0387 -0.5596 -0.4528
29481SOL    HW189021   1.400   7.470   7.831 -1.4128 -1.4118  0.8333
29481SOL    HW289022   1.301   7.517   7.727  1.3883  0.0239 -1.3381
29482SOL     OW89023   4.796   0.297   7.000  0.1785  0.0292 -0.2387
29482SOL    HW189024   4.883   0.313   7.037 -0.1811 -0.5569  0.9282
29482SOL    HW289025   4.806   0.316   6.907  1.6987 -0.5738 -0.2317
29483SOL     OW89026   8.873   9.675   7.426  0.2538  0.5664  0.1407
29483SOL    HW189027   8.921   9.749   7.387  0.7215  0.4694  0.5228
29483SOL    HW289028   8.786   9.680   7.387  0.4625  0.9677 -0.2867
29484SOL     OW89029   0.213   5.987   5.306 -0.4272  0.1061 -0.3642
29484SOL    HW189030   0.253   5.926   5.369 -0.1050  0.2543 -0.4258
29484SOL    HW289031   0.284   6.043   5.278 -0.8081  0.7694 -0.0183
29485SOL     OW89032   6.249   5.536   9.387  0.2728  0.1010 -0.1237
29485SOL    HW189033   6.208   5.621   9.404  2.9457  1.3917  0.4341
29485SOL    HW289034   6.221   5.513   9.298 -0.0567  1.8559 -0.5075
29486SOL     OW89035   4.103   0.265   9.552 -0.2643 -0.2367 -0.3345
29486SOL    HW189036   4.039   0.241   9.485 -0.1671  0.3206 -0.6382
29486SOL    HW289037   4.075   0.351   9.582  0.3669  0.0395 -0.5136
29487SOL     OW89038   1.419   3.114   3.543  0.4522 -0.2337  0.9720
29487SOL    HW189039   1.353   3.052   3.509 -0.1139  0.4989  0.7060
29487SOL    HW289040   1.498   3.094   3.494 -0.5735  1.4242 -1.5931
29488SOL     OW89041   9.098   6.114   6.393 -0.3740  0.3107 -0.0481
29488SOL    HW189042   9.193   6.116   6.401 -0.3467 -0.5926 -0.0355
29488SOL    HW289043   9.066   6.154   6.474 -0.0161 -0.7547  0.6444
29489SOL     OW89044   6.680   5.356   4.068  0.3833 -0.3226 -0.1868
29489SOL    HW189045   6.732   5.305   4.131  0.3680 -0.3922 -0.2307
29489SOL    HW289046   6.636   5.422   4.121  0.1149 -0.5855 -0.0802
29490SOL     OW89047   1.226   1.255   8.986  0.4372  0.2800  0.1444
29490SOL    HW189048   1.259   1.247   9.076  2.1409  1.5807 -0.3080
29490SOL    HW289049   1.229   1.166   8.951  1.7547  0.0799  0.7234
29491SOL     OW89050   5.740   3.515   7.687  0.0277  0.4985  0.0917
29491SOL    HW189051   5.714   3.427   7.715 -0.8801  0.4321 -0.9134
29491SOL    HW289052   5.662   3.552   7.646  0.0661  2.2091  1.4557
29492SOL     OW89053   8.266   0.291   5.074  0.0831 -0.3556 -0.3615
29492SOL    HW189054   8.206   0.306   5.148  0.0297 -1.0942 -0.2504
29492SOL    HW289055   8.339   0.243   5.112 -0.3956 -1.6024 -0.9690
29493SOL     OW89056   7.348   1.596   5.881 -0.1184 -0.2409  0.1099
29493SOL    HW189057   7.333   1.687   5.907  2.6336  0.0261  1.0403
29493SOL    HW289058   7.284   1.581   5.812 -0.4957  2.4873 -0.2675
29494SOL     OW89059   6.665   3.470   8.763 -0.1316 -0.2518 -0.1440
29494SOL    HW189060   6.645   3.483   8.855 -1.0358 -0.5851 -0.2756
29494SOL    HW289061   6.583   3.491   8.718  0.0683 -0.8434 -0.8013
29495SOL     OW89062   0.354   8.386   6.350 -0.0127  0.0448  0.2732
29495SOL    HW189063   0.442   8.383   6.388  0.1347 -1.6095 -0.1298
29495SOL    HW289064   0.295   8.384   6.426  0.2625  1.9212  0.5799
29496SOL     OW89065   1.184   2.150   4.605  0.1123 -0.8125 -0.1591
29496SOL    HW189066   1.211   2.059   4.602 -0.0747 -0.9019  0.7734
29496SOL    HW289067   1.246   2.195   4.547  0.9989 -1.3245  0.3717
29497SOL     OW89068   5.524   0.635   2.193  0.5018 -0.2679 -0.2799
29497SOL    HW189069   5.541   0.573   2.122  0.2464 -1.3953  0.6195
29497SOL    HW289070   5.444   0.604   2.234  0.8132  0.1856  0.7014
29498SOL     OW89071   7.080   0.487   9.192 -0.0489 -0.3522 -0.1176
29498SOL    HW189072   7.074   0.582   9.180  1.2253  0.1919  2.7022
29498SOL    HW289073   7.156   0.461   9.140 -0.6013  0.0819 -1.1732
29499SOL     OW89074   9.379   6.556   6.664  0.0673 -0.1198  0.4764
29499SOL    HW189075   9.415   6.549   6.575 -1.1068 -1.8073  0.0902
29499SOL    HW289076   9.451   6.528   6.721  0.8654  1.0898  0.0957
29500SOL     OW89077   6.477   3.128   2.417 -0.1944 -0.2753  0.1400
29500SOL    HW189078   6.446   3.042   2.446 -1.3078 -0.1794 -0.7370
29500SOL    HW289079   6.420   3.151   2.344  1.8518 -0.0323 -1.4609
29501SOL     OW89080   2.288   4.101   5.432 -0.7239  0.1453  0.1032
29501SOL    HW189081   2.267   4.059   5.515  2.3120  0.1826  1.0253
29501SOL    HW289082   2.382   4.086   5.421 -0.7875  1.2475 -2.7134
29502SOL     OW89083   9.216   5.018   3.849  0.2991  0.3604 -0.2389
29502SOL    HW189084   9.183   4.941   3.803  0.4675 -1.5524  2.5738
29502SOL    HW289085   9.148   5.085   3.836 -0.9461 -0.9823 -0.9275
29503SOL     OW89086   7.199   8.328   4.095 -0.6947 -0.6673 -0.1345
29503SOL    HW189087   7.123   8.383   4.111 -0.7761 -0.7137 -0.3577
29503SOL    HW289088   7.203   8.270   4.170 -0.5128 -0.2503  0.1853
29504SOL     OW89089   9.578   3.475   8.806  0.3115 -0.0252  0.4811
29504SOL    HW189090   9.598   3.391   8.763 -1.8693 -0.4947  0.2436
29504SOL    HW289091   9.549   3.531   8.734 -0.5724  0.1323  0.9551
29505SOL     OW89092   0.821   7.760   8.758  0.1589  0.1147  0.3317
29505SOL    HW189093   0.868   7.720   8.685  2.0483  1.9529  0.4556
29505SOL    HW289094   0.837   7.700   8.831  2.4463  0.6861  0.3739
29506SOL     OW89095   8.475   0.647   9.505 -0.3547  0.7538  0.2602
29506SOL    HW189096   8.530   0.607   9.437 -1.6985  0.9264 -0.9758
29506SOL    HW289097   8.469   0.579   9.572  0.8207  0.4916  0.1367
29507SOL     OW89098   4.335   6.620   9.601 -0.1411  0.2882 -0.6490
29507SOL    HW189099   4.397   6.610   9.673 -0.7722 -0.2896 -0.1702
29507SOL    HW289100   4.332   6.714   9.585 -1.6814  0.6924  1.6211
29508SOL     OW89101   0.456   3.492   1.374  0.1997 -0.2715  0.0801
29508SOL    HW189102   0.363   3.491   1.400 -0.2099 -1.8317 -1.2984
29508SOL    HW289103   0.465   3.571   1.322  0.4109  1.4960  2.5998
29509SOL     OW89104   3.547   5.115   6.438  0.4429  0.5982  0.3209
29509SOL    HW189105   3.623   5.145   6.388 -0.5880 -0.5618 -2.1473
29509SOL    HW289106   3.487   5.190   6.436  0.3217  0.4930 -0.4445
29510SOL     OW89107   4.592   0.438   7.677  0.1137  0.1462  0.5441
29510SOL    HW189108   4.670   0.446   7.621 -0.0120 -1.2356  0.1537
29510SOL    HW289109   4.603   0.508   7.742  1.4897  0.2145  0.2727
29511SOL     OW89110   5.041   1.984   7.011  0.1149 -0.4030  0.1752
29511SOL    HW189111   4.946   1.981   7.018  0.0709  0.6479  0.1540
29511SOL    HW289112   5.072   1.997   7.101  0.3355 -2.2099  0.4035
29512SOL     OW89113   1.622   3.688   6.829  0.3602 -0.1632 -0.1375
29512SOL    HW189114   1.664   3.706   6.745  0.2575  0.6375 -0.0194
29512SOL    HW289115   1.541   3.642   6.805 -0.8201  2.0633 -0.6566
29513SOL     OW89116   4.561   0.122   4.565 -0.2065  0.3967  0.0013
29513SOL    HW189117   4.497   0.057   4.538  0.3760 -0.5066  0.7654
29513SOL    HW289118   4.602   0.086   4.643 -0.2802  1.9458  0.8032
29514SOL     OW89119   6.960   6.499   5.100  0.3404  0.5008 -0.0060
29514SOL    HW189120   6.954   6.512   5.194 -0.8352  2.3730 -0.2869
29514SOL    HW289121   6.952   6.587   5.063 -1.4932 -0.3976 -1.9301
29515SOL     OW89122   4.599   1.593   5.781 -0.3775 -0.1969  0.0066
29515SOL    HW189123   4.556   1.522   5.734 -0.8197  1.1579 -1.7829
29515SOL    HW289124   4.654   1.550   5.846 -2.2497 -2.0792  0.4354
29516SOL     OW89125   0.261   8.831   1.633 -0.5096  0.6964  0.2413
29516SOL    HW189126   0.196   8.761   1.621  0.5762 -0.4403  0.7031
29516SOL    HW289127   0.249   8.888   1.557 -0.3599 -0.9002 -1.0384
29517SOL     OW89128   6.542   0.260   1.764  0.0894 -0.0224  0.4067
29517SOL    HW189129   6.636   0.256   1.748 -0.0767  1.3361 -1.1630
29517SOL    HW289130   6.533   0.312   1.844  0.6420  0.7355 -0.0125
29518SOL     OW89131   6.743   7.661   2.617 -0.9379  0.1906 -0.1113
29518SOL    HW189132   6.752   7.723   2.689 -1.4952  0.9428 -0.6735
29518SOL    HW289133   6.706   7.582   2.658  2.3232 -0.8481  1.1377
29519SOL     OW89134   9.742   0.922   6.351  0.0927 -0.3911  0.1026
29519SOL    HW189135   9.706   0.997   6.399  1.3832 -0.7488  1.7000
29519SOL    HW289136   9.726   0.847   6.407  1.0820 -0.9322 -0.3167
29520SOL     OW89137   1.588   7.387   6.011  0.0015  0.0891  0.1088
29520SOL    HW189138   1.644   7.419   6.081 -0.1986  0.4891  0.0927
29520SOL    HW289139   1.631   7.415   5.930  0.8844 -1.4552  0.0184
29521SOL     OW89140   7.754   9.959   1.238 -0.7118  0.1569  0.3453
29521SOL    HW189141   7.824   9.979   1.300  0.0853  1.2915 -0.8660
29521SOL    HW289142   7.796   9.967   1.152 -1.8731 -1.0157 -0.3572
29522SOL     OW89143   6.965   7.512   3.188 -0.5360 -0.1855 -0.0814
29522SOL    HW189144   6.914   7.506   3.269 -0.7217 -2.4865 -0.2970
29522SOL    HW289145   6.901   7.500   3.118 -0.2946  1.2422 -0.5759
29523SOL     OW89146   1.462   4.991   7.118  0.5408  0.2457  0.1435
29523SOL    HW189147   1.496   4.936   7.189  1.7106 -1.7618 -1.8677
29523SOL    HW289148   1.521   4.975   7.045 -2.5375 -0.4431 -2.3742
29524SOL     OW89149   9.152   3.874   4.383  0.1951 -0.6235 -0.4295
29524SOL    HW189150   9.103   3.795   4.404 -0.8990 -0.0259 -0.6574
29524SOL    HW289151   9.133   3.890   4.291 -0.4416  0.4748 -0.1228
29525SOL     OW89152   7.815   3.330   1.830  0.5029 -0.1146  0.1665
29525SOL    HW189153   7.726   3.302   1.851  0.9004 -0.1079  1.9821
29525SOL    HW289154   7.803   3.411   1.780 -0.5278  0.4500  1.2598
29526SOL     OW89155   8.256   3.500   7.153  0.2101  0.1009 -0.5628
29526SOL    HW189156   8.204   3.510   7.233  0.7913  0.3497 -0.2062
29526SOL    HW289157   8.192   3.505   7.082 -0.4371 -1.0095 -0.0893
29527SOL     OW89158   9.728   6.049   9.342 -0.0061 -0.0061  0.0723
29527SOL    HW189159   9.765   5.963   9.360  0.8992  0.0840 -1.2122
29527SOL    HW289160   9.792   6.091   9.285 -0.4644  1.5051  0.6354
29528SOL     OW89161   6.638   8.727   8.001 -0.1988  0.0063 -0.0994
29528SOL    HW189162   6.607   8.779   7.927 -0.4635 -0.1165 -0.0745
29528SOL    HW289163   6.650   8.791   8.072  0.6202  0.2159 -0.4139
29529SOL     OW89164   5.199   2.193   5.411  0.4463  0.6362 -0.1035
29529SOL    HW189165   5.206   2.278   5.369  1.9587  0.8038  0.3999
29529SOL    HW289166   5.149   2.209   5.491  0.0866  0.8947 -0.3779
29530SOL     OW89167   8.367   2.849   9.579 -0.8743  0.1210  0.2340
29530SOL    HW189168   8.448   2.882   9.617 -0.4815  0.0346 -0.5230
29530SOL    HW289169   8.392   2.768   9.534 -1.5841 -0.5031  0.9335
29531SOL     OW89170   0.789   5.613   2.298  1.1772 -0.0509  0.2264
29531SOL    HW189171   0.808   5.677   2.230  0.1004  0.3783  0.3178
29531SOL    HW289172   0.798   5.663   2.380 -1.0053  0.3727  0.2513
29532SOL     OW89173   5.726   3.244   7.803  0.0476 -0.2518  0.0491
29532SOL    HW189174   5.681   3.231   7.886 -0.4392  0.5972 -0.0678
29532SOL    HW289175   5.693   3.175   7.746 -1.5393  0.6561 -0.1977
29533SOL     OW89176   4.275   2.284   7.499  0.1265  0.2097 -0.0788
29533SOL    HW189177   4.257   2.302   7.591 -1.0381  2.0664 -0.6263
29533SOL    HW289178   4.189   2.268   7.459  0.6213 -0.7233 -0.8425
29534SOL     OW89179   8.715   9.440   9.379  0.3834 -0.3535  0.1768
29534SOL    HW189180   8.713   9.344   9.379  1.0749 -0.3766 -0.2645
29534SOL    HW289181   8.624   9.466   9.392  0.2608 -1.0674  0.8405
29535SOL     OW89182   9.704   2.644   2.299 -0.0836 -0.0853 -0.1106
29535SOL    HW189183   9.637   2.707   2.271  0.1144 -0.4559 -1.5222
29535SOL    HW289184   9.766   2.642   2.226  1.4776  0.2230  1.1492
29536SOL     OW89185   2.032   2.141   5.965  0.4459  0.1634  0.8099
29536SOL    HW189186   1.978   2.079   5.916  0.4932  1.1054 -0.5140
29536SOL    HW289187   1.980   2.222   5.965  0.5299  0.2424  2.2033
29537SOL     OW89188   9.681   4.943   0.827 -0.4624  0.0161 -0.1284
29537SOL    HW189189   9.648   4.905   0.745  0.5897  0.8005 -0.9385
29537SOL    HW289190   9.773   4.916   0.830 -0.4211  0.2311  0.6615
29538SOL     OW89191   0.667   4.288   3.096 -0.6325 -0.1256 -0.1215
29538SOL    HW189192   0.587   4.283   3.149 -0.2890  1.2653  0.5795
29538SOL    HW289193   0.701   4.376   3.113  0.4957 -0.3250 -1.2210
29539SOL     OW89194   5.262   0.256   2.075 -0.3498 -0.1254  0.6199
29539SOL    HW189195   5.315   0.229   2.001 -0.2678  0.7011  0.3738
29539SOL    HW289196   5.190   0.305   2.037 -2.2090 -2.5449  0.8046
29540SOL     OW89197   6.179   8.258   6.706  0.3534  0.8143 -0.3749
29540SOL    HW189198   6.192   8.335   6.651 -2.0449  0.2312 -1.8850
29540SOL    HW289199   6.134   8.195   6.650 -1.6384 -0.0686  2.0176
29541SOL     OW89200   9.752   1.333   9.224  0.1081 -0.5254 -0.5019
29541SOL    HW189201   9.664   1.339   9.261  0.9038  1.0857  1.3648
29541SOL    HW289202   9.781   1.244   9.244 -0.3942 -0.4398  0.6776
29542SOL     OW89203   0.885   6.057   4.691  0.2543 -0.1381  0.2497
29542SOL    HW189204   0.814   6.115   4.718  0.9038  1.1170 -0.6331
29542SOL    HW289205   0.896   5.997   4.765 -1.7122 -0.3792  0.3864
29543SOL     OW89206   9.017   8.784   0.338 -0.5139 -0.3796 -0.2135
29543SOL    HW189207   9.065   8.795   0.256 -1.1938  1.6575 -0.3985
29543SOL    HW289208   8.959   8.860   0.342 -1.6622 -1.2871  1.3793
29544SOL     OW89209   3.680   1.509   9.444 -0.0816 -0.1222 -0.3813
29544SOL    HW189210   3.594   1.539   9.415 -0.3628  1.6196  1.9521
29544SOL    HW289211   3.678   1.414   9.432 -2.0795 -0.0481 -0.9536
29545SOL     OW89212   4.525   1.920   0.939 -0.5211 -0.0076  0.2678
29545SOL    HW189213   4.542   1.907   0.845 -0.4273 -0.2435  0.3152
29545SOL    HW289214   4.600   1.879   0.982 -1.2049 -1.0853  0.4793
29546SOL     OW89215   9.655   2.057   3.223 -0.0030  0.3520  0.2470
29546SOL    HW189216   9.688   2.030   3.138  1.9062  1.4670  0.5801
29546SOL    HW289217   9.602   2.134   3.206 -0.8015 -0.2523 -0.0643
29547SOL     OW89218   5.557   1.451   5.005  0.0768  0.2572  0.8695
29547SOL    HW189219   5.489   1.389   5.030  1.1021 -1.0975  0.4077
29547SOL    HW289220   5.564   1.510   5.080 -1.1838  0.0824  1.1536
29548SOL     OW89221   8.115   0.427   4.693 -0.2288  0.2108  0.3909
29548SOL    HW189222   8.125   0.344   4.647 -0.3038  0.2773  0.2543
29548SOL    HW289223   8.119   0.493   4.624  1.5122  0.4448  0.6584
29549SOL     OW89224   6.561   7.510   6.415 -0.2766  0.0572  0.2383
29549SOL    HW189225   6.493   7.495   6.350  0.2691 -2.3298  0.1012
29549SOL    HW289226   6.643   7.503   6.367  0.1003  0.2035  0.8441
29550SOL     OW89227   6.525   3.532   7.385  0.2371  0.3037 -0.0756
29550SOL    HW189228   6.440   3.503   7.353  0.4615  0.3056 -0.6946
29550SOL    HW289229   6.581   3.454   7.376  0.9290  0.9493 -2.0466
29551SOL     OW89230   9.400   9.300   9.119  0.6251  0.4040  0.1828
29551SOL    HW189231   9.455   9.349   9.181  0.8677  1.9414 -1.1595
29551SOL    HW289232   9.320   9.352   9.112  0.9850  0.8178 -1.4603
29552SOL     OW89233   1.281   6.782   1.419 -0.8636  0.3875  0.5016
29552SOL    HW189234   1.227   6.828   1.354  1.4016  2.0468 -0.3211
29552SOL    HW289235   1.319   6.708   1.370  1.4138  2.0450 -0.4042
29553SOL     OW89236   4.206   9.363   6.920 -0.6747  0.4476 -0.0933
29553SOL    HW189237   4.230   9.370   7.013  1.7149 -0.9453 -0.5082
29553SOL    HW289238   4.111   9.369   6.919 -0.9356 -1.3012  2.6687
29554SOL     OW89239   4.296   6.377   7.054  0.7754  0.5064 -0.2055
29554SOL    HW189240   4.286   6.469   7.079 -1.8668  0.0496  0.7767
29554SOL    HW289241   4.266   6.373   6.963 -2.5326  0.1727  0.7914
29555SOL     OW89242   3.753   5.631   8.626 -0.0550  0.1282 -0.3334
29555SOL    HW189243   3.832   5.633   8.681 -0.8410 -0.5165  0.8825
29555SOL    HW289244   3.716   5.719   8.634  0.3627  0.3324 -0.6351
29556SOL     OW89245   8.739   8.691   2.375  0.0680  0.3674 -0.5716
29556SOL    HW189246   8.650   8.657   2.384 -0.2275  1.1975 -0.2641
29556SOL    HW289247   8.784   8.662   2.455 -0.2500  0.8885 -0.1968
29557SOL     OW89248   8.059   6.612   7.237  0.0529 -0.0484  0.0142
29557SOL    HW189249   8.053   6.677   7.168  0.9659 -1.3235 -1.3458
29557SOL    HW289250   7.969   6.591   7.259 -0.2502  0.7114 -0.4660
29558SOL     OW89251   4.255   3.289   9.974 -0.2682 -0.5158 -0.8399
29558SOL    HW189252   4.337   3.253   9.939 -0.6355 -0.5541 -1.6995
29558SOL    HW289253   4.216   3.335   9.900  0.2792  1.8813  0.2834
29559SOL     OW89254   6.071   3.186   8.173 -0.0432  0.0876  0.2396
29559SOL    HW189255   5.975   3.186   8.184  0.0604 -0.9891  1.4657
29559SOL    HW289256   6.086   3.127   8.099 -0.3067 -0.4674  0.6138
29560SOL     OW89257   8.597   1.809   3.173  0.9622 -0.4052 -0.5964
29560SOL    HW189258   8.595   1.770   3.261  0.6239  1.4944  0.2945
29560SOL    HW289259   8.550   1.747   3.118 -1.4693 -0.2952  1.1829
29561SOL     OW89260   2.095   9.649   3.038  0.2581 -0.1056 -0.0319
29561SOL    HW189261   2.033   9.663   2.967 -0.4563 -1.0122  0.3797
29561SOL    HW289262   2.106   9.735   3.079  1.8643  0.7766 -2.1253
29562SOL     OW89263   3.492   8.602   7.019  0.2674 -0.3724  0.3340
29562SOL    HW189264   3.412   8.559   7.048 -1.8511  0.9171 -3.0361
29562SOL    HW289265   3.478   8.695   7.039 -0.1246  0.1705 -2.1334
29563SOL     OW89266   0.720   1.259   6.533  0.0191 -0.0089  0.0740
29563SOL    HW189267   0.765   1.260   6.448  1.2497  0.2087  0.7128
29563SOL    HW289268   0.639   1.209   6.516  0.5606 -0.5449 -1.0627
29564SOL     OW89269   6.462   3.620   7.691 -0.5300 -0.6512 -0.5307
29564SOL    HW189270   6.525   3.646   7.624  0.2871 -1.2310 -0.0132
29564SOL    HW289271   6.377   3.645   7.656 -0.1706 -1.3912 -2.0131
29565SOL     OW89272   4.626   4.955   8.916  0.1285  0.4359  0.0291
29565SOL    HW189273   4.610   4.922   9.005 -0.6228  0.3441 -0.1346
29565SOL    HW289274   4.612   4.879   8.860  1.2632  0.3214 -0.1320
29566SOL     OW89275   2.201   2.486   7.305  0.0403 -0.0867 -0.5417
29566SOL    HW189276   2.279   2.471   7.251  1.0401  1.5956  0.3386
29566SOL    HW289277   2.172   2.574   7.279 -0.2314  0.2118  0.7272
29567SOL     OW89278   8.422   7.323   0.799  0.7468 -0.2153 -0.4809
29567SOL    HW189279   8.438   7.230   0.815  2.7356  0.0144 -0.8240
29567SOL    HW289280   8.393   7.327   0.707 -0.7708 -0.5928 -0.0462
29568SOL     OW89281   1.348   7.613   2.890  0.0906 -0.1228  0.3153
29568SOL    HW189282   1.420   7.556   2.861  1.4982  2.4883 -1.7628
29568SOL    HW289283   1.282   7.605   2.821 -0.4216 -0.4313  0.8343
29569SOL     OW89284   6.141   4.211   3.178 -0.0527 -0.4103  0.1661
29569SOL    HW189285   6.077   4.257   3.232  1.1153  2.8879 -1.0478
29569SOL    HW289286   6.092   4.180   3.102 -0.4115  1.3326 -0.3381
29570SOL     OW89287   0.127   9.074   9.994  0.0134 -0.1151  0.3646
29570SOL    HW189288   0.155   9.068   9.903  1.7207 -0.5628  0.8828
29570SOL    HW289289   0.184   9.012  10.041 -0.6868  0.2582  1.7594
29571SOL     OW89290   5.965   1.091   7.922 -0.3852 -0.3489  0.2786
29571SOL    HW189291   5.941   1.013   7.972  0.1367 -1.1907 -0.7451
29571SOL    HW289292   5.963   1.063   7.831 -0.1990  0.8476 -0.1143
29572SOL     OW89293   8.303   8.652   0.926  0.1537  0.6411 -0.1634
29572SOL    HW189294   8.387   8.643   0.880 -0.8282 -0.1491 -1.8812
29572SOL    HW289295   8.270   8.562   0.933 -1.3774  1.1002 -1.1228
29573SOL     OW89296   3.852   6.868   5.269  0.2786  0.2558  0.3307
29573SOL    HW189297   3.763   6.832   5.261  0.5334 -0.7776  1.8668
29573SOL    HW289298   3.908   6.803   5.228  0.3558  0.9173 -0.6556
29574SOL     OW89299   1.771   4.452   1.656 -0.0126  0.2559  0.2170
29574SOL    HW189300   1.751   4.456   1.563 -0.1837  0.0519  0.2434
29574SOL    HW289301   1.756   4.361   1.680  1.9042 -0.1653  0.0236
29575SOL     OW89302   8.340   8.157   5.060  0.3308  0.2393 -0.1137
29575SOL    HW189303   8.319   8.151   5.154  0.7570 -0.8697 -0.0682
29575SOL    HW289304   8.334   8.066   5.029  0.6729  0.5290 -1.0590
29576SOL     OW89305   2.393   1.222   9.079 -0.3784  0.5758 -0.1138
29576SOL    HW189306   2.457   1.290   9.100 -0.3384  0.4167  0.2891
29576SOL    HW289307   2.324   1.234   9.144 -0.6844  0.6480 -0.4529
29577SOL     OW89308   2.151   4.331   7.120  0.6206  0.3264 -0.0082
29577SOL    HW189309   2.231   4.310   7.070  2.2302 -0.5014  2.6826
29577SOL    HW289310   2.130   4.421   7.095  2.6784  0.7233 -0.5090
29578SOL     OW89311   6.289   8.551   4.846 -0.7645 -0.0342  0.5084
29578SOL    HW189312   6.299   8.593   4.761  1.6767  0.1671  0.8262
29578SOL    HW289313   6.252   8.618   4.902  0.3586  0.8017  0.2883
29579SOL     OW89314   8.661   3.695   5.870 -0.2319  0.6684 -0.3812
29579SOL    HW189315   8.634   3.648   5.790  1.6105 -1.4789  0.1346
29579SOL    HW289316   8.579   3.717   5.914 -1.2646 -1.6443 -0.9831
29580SOL     OW89317   0.021   2.773   5.802  0.0980  0.2716 -0.0682
29580SOL    HW189318   0.113   2.749   5.789  0.1626 -0.2141  1.1414
29580SOL    HW289319  -0.021   2.691   5.827 -0.9528  0.2099 -1.8483
29581SOL     OW89320   6.640   6.040   6.568  0.6631  0.0091  0.1856
29581SOL    HW189321   6.699   5.972   6.602  0.8573  0.9149  1.7721
29581SOL    HW289322   6.682   6.122   6.593 -0.8001  0.6876  0.5162
29582SOL     OW89323   8.732   7.792   6.007 -0.0517 -0.0060  0.1013
29582SOL    HW189324   8.702   7.847   6.079 -0.7206 -0.3011  0.0529
29582SOL    HW289325   8.794   7.731   6.048 -0.7436 -0.4457  0.5193
29583SOL     OW89326   4.605   5.509   1.017  0.1370 -0.0059 -0.1738
29583SOL    HW189327   4.640   5.422   1.037  1.0696  0.6425  1.2746
29583SOL    HW289328   4.513   5.505   1.042  0.3935 -0.3444  0.7763
29584SOL     OW89329   7.437   4.137   6.467  0.1226  0.6720 -0.0832
29584SOL    HW189330   7.471   4.146   6.377  0.5131 -1.0125 -0.1392
29584SOL    HW289331   7.406   4.225   6.489  0.0150  1.1323 -1.8639
29585SOL     OW89332   3.897   6.803   4.948 -0.2109  0.5413  0.3919
29585SOL    HW189333   3.824   6.818   4.888 -0.6366  0.6761  0.9315
29585SOL    HW289334   3.870   6.846   5.029 -0.8274 -1.8425  1.5319
29586SOL     OW89335   8.531   2.065   4.871 -0.4099 -0.3593 -0.2364
29586SOL    HW189336   8.623   2.041   4.858 -0.1793  0.3358  0.0689
29586SOL    HW289337   8.533   2.159   4.887 -1.2648 -0.1786 -1.0945
29587SOL     OW89338   9.771   7.802   5.074  0.0275 -0.4959 -0.6535
29587SOL    HW189339   9.777   7.897   5.065  0.5668 -0.5406 -0.8275
29587SOL    HW289340   9.680   7.781   5.055 -0.2796  0.0684  0.1679
29588SOL     OW89341   7.760   0.082   3.322 -0.2463 -0.6375  0.3505
29588SOL    HW189342   7.772   0.029   3.243  1.3380 -0.9731  0.7717
29588SOL    HW289343   7.738   0.019   3.390  0.0680 -0.5616  0.5235
29589SOL     OW89344   6.898   5.418   7.214  0.6465  0.0857 -0.6853
29589SOL    HW189345   6.824   5.478   7.206 -1.4615 -2.0370  1.2257
29589SOL    HW289346   6.947   5.451   7.289 -0.9082 -0.8502  0.8177
29590SOL     OW89347   0.108   8.016   0.781  0.7058  0.6469 -0.0190
29590SOL    HW189348   0.031   7.968   0.811 -0.0795  1.7253 -0.2642
29590SOL    HW289349   0.165   8.022   0.858  0.7204 -0.4535  0.0727
29591SOL     OW89350   1.050   4.082   3.516  0.6679 -0.0227  0.0783
29591SOL    HW189351   0.996   4.037   3.581  1.6175 -0.7026  0.4168
29591SOL    HW289352   1.035   4.175   3.533 -0.9584 -0.1842 -0.3237
29592SOL     OW89353   5.886   9.525   8.711  0.2066 -0.3823  0.2826
29592SOL    HW189354   5.938   9.540   8.790  0.3032  1.5168 -0.0899
29592SOL    HW289355   5.950   9.527   8.640 -0.3477  3.1004 -0.3008
29593SOL     OW89356   8.800   3.440   7.552  0.3668  0.3426  0.0195
29593SOL    HW189357   8.853   3.510   7.590  0.6913 -0.0835  0.3600
29593SOL    HW289358   8.857   3.363   7.554  0.6684  0.4791 -2.0550
29594SOL     OW89359   7.976   1.709   6.966  0.1355 -0.0988 -0.0060
29594SOL    HW189360   8.011   1.650   7.033  0.1576  1.4766  1.4226
29594SOL    HW289361   8.003   1.796   6.994 -1.1842  0.7572 -1.2610
29595SOL     OW89362   4.191   8.280   1.488 -0.1039  0.1141 -0.1116
29595SOL    HW189363   4.214   8.288   1.396  1.1173  0.1238  0.1784
29595SOL    HW289364   4.207   8.188   1.509  0.4080  0.2848  0.2807
29596SOL     OW89365   0.723   5.830   1.125 -0.0633  0.1623  0.4793
29596SOL    HW189366   0.662   5.901   1.146 -1.8166 -1.0312 -0.2698
29596SOL    HW289367   0.677   5.751   1.151  1.5050 -0.7619  0.5492
29597SOL     OW89368   6.433   1.607   6.325 -0.1094 -0.0667 -0.1133
29597SOL    HW189369   6.528   1.599   6.326 -0.1185 -0.1941 -0.1930
29597SOL    HW289370   6.409   1.601   6.233  0.1172  4.0478 -0.6218
29598SOL     OW89371   2.058   4.405   9.809 -0.0621 -0.2832  0.0115
29598SOL    HW189372   2.136   4.426   9.860  0.1465  0.3165 -0.5320
29598SOL    HW289373   2.027   4.490   9.778 -1.5895 -0.3958  1.1470
29599SOL     OW89374   6.076   7.164   8.928 -0.1242 -0.1604  0.7893
29599SOL    HW189375   6.150   7.104   8.940  0.8346  1.0088  0.8737
29599SOL    HW289376   6.105   7.226   8.861 -2.1001 -1.3175 -1.2900
29600SOL     OW89377   9.129   7.079   5.871  0.0095 -0.5067 -0.0022
29600SOL    HW189378   9.214   7.044   5.896 -0.5964 -3.2201 -1.3603
29600SOL    HW289379   9.067   7.033   5.927 -0.7041  0.1329 -0.2460
29601SOL     OW89380   3.581   7.548   0.155 -0.1435  0.5111  1.0004
29601SOL    HW189381   3.555   7.632   0.116 -0.1023  0.2542  0.3988
29601SOL    HW289382   3.607   7.569   0.244  1.7765  1.4692  0.2705
29602SOL     OW89383   5.269   0.087   7.117 -0.3874  0.2468  0.3617
29602SOL    HW189384   5.255   0.000   7.079 -1.5691  1.0153 -1.0172
29602SOL    HW289385   5.349   0.118   7.077  0.1169 -0.2323  0.9633
29603SOL     OW89386   7.661   1.356   9.787 -0.3699  0.1546  0.3375
29603SOL    HW189387   7.647   1.282   9.846  0.6100 -0.1933  0.1633
29603SOL    HW289388   7.607   1.426   9.823 -0.3710 -0.2757  1.2123
29604SOL     OW89389   5.261   2.574   6.900 -0.0173  0.4952 -0.3450
29604SOL    HW189390   5.207   2.495   6.891  1.5368 -0.4727 -1.6941
29604SOL    HW289391   5.263   2.611   6.812 -0.1263  1.6573  0.1351
29605SOL     OW89392   5.775   2.903   1.519  0.4384  0.0198  0.8768
29605SOL    HW189393   5.712   2.841   1.555  2.3362 -1.8851  1.1421
29605SOL    HW289394   5.742   2.922   1.431 -0.6607 -0.6982  1.1129
29606SOL     OW89395   8.833   9.248   6.104 -0.0957 -0.5181  0.7019
29606SOL    HW189396   8.846   9.209   6.190  1.2790 -0.1055  0.7046
29606SOL    HW289397   8.922   9.270   6.074 -0.7026  1.0429 -0.0165
29607SOL     OW89398   8.760   3.146   4.474 -0.3434 -0.0062  0.0318
29607SOL    HW189399   8.713   3.066   4.497 -1.9921  0.9244  0.0642
29607SOL    HW289400   8.763   3.145   4.378 -0.3498 -0.0987  0.0319
29608SOL     OW89401   6.010   5.284   4.277  0.3965  0.2970  0.2998
29608SOL    HW189402   6.068   5.293   4.352  1.6426  0.1273 -0.6046
29608SOL    HW289403   5.970   5.197   4.288 -0.7352  0.9397  1.6062
29609SOL     OW89404   3.147   7.066   5.198  0.4434 -0.0704 -0.3593
29609SOL    HW189405   3.077   7.080   5.261 -0.2143 -1.0416 -0.8516
29609SOL    HW289406   3.159   7.151   5.156 -1.2886 -0.1501 -1.1094
29610SOL     OW89407   2.606   9.806   2.043  0.0882  0.5861  0.1292
29610SOL    HW189408   2.567   9.790   2.129  0.2975  0.0385  0.1220
29610SOL    HW289409   2.690   9.848   2.063  0.4834 -0.2253  0.2297
29611SOL     OW89410   3.250   7.906   9.901 -0.0026 -0.2302  0.0349
29611SOL    HW189411   3.241   7.828   9.847  0.8817 -0.1332 -0.2708
29611SOL    HW289412   3.261   7.872   9.990  2.7324 -0.6057 -0.3602
29612SOL     OW89413   9.639   9.968   8.812 -0.5506 -0.2678  0.6086
29612SOL    HW189414   9.557   9.935   8.775 -0.6685  0.0012  0.6263
29612SOL    HW289415   9.688   9.889   8.835  0.1559 -0.4948 -1.4561
29613SOL     OW89416   4.618   9.989   6.456  0.7662 -0.7461  0.4661
29613SOL    HW189417   4.677   9.924   6.494  0.8880  0.1028  1.8284
29613SOL    HW289418   4.612   9.965   6.364  1.1768 -2.3869  0.8274
29614SOL     OW89419   8.006   3.660   5.307 -0.2107  0.1929 -0.1776
29614SOL    HW189420   8.060   3.739   5.298 -0.9496  0.8496  0.9378
29614SOL    HW289421   8.070   3.590   5.324  0.4120  0.6423 -0.6076
29615SOL     OW89422   3.642   9.604   3.957  0.4654  0.4423 -0.1050
29615SOL    HW189423   3.678   9.672   3.900  3.4021 -0.6367  0.2889
29615SOL    HW289424   3.636   9.527   3.900 -1.6549  0.6298 -0.2222
29616SOL     OW89425   0.895   3.354   7.829  0.5913  0.1463 -0.2426
29616SOL    HW189426   0.831   3.337   7.761 -1.3890 -2.0639  1.9690
29616SOL    HW289427   0.860   3.430   7.877  0.9262  0.4440 -0.4630
29617SOL     OW89428   6.025   2.465   2.920 -0.3141 -0.5986  0.1772
29617SOL    HW189429   5.958   2.523   2.957 -2.0438 -1.5580 -1.2520
29617SOL    HW289430   6.070   2.519   2.855 -1.4598 -0.6198 -0.6660
29618SOL     OW89431   4.314   8.146   5.963  0.6043  0.3087 -0.5460
29618SOL    HW189432   4.279   8.114   5.880  1.1236  1.2667 -1.1459
29618SOL    HW289433   4.409   8.143   5.952  0.6709  1.6184 -0.4580
29619SOL     OW89434   7.438   6.767   2.496 -0.2960  0.2269 -0.3471
29619SOL    HW189435   7.518   6.771   2.548 -0.3663  1.8854 -0.3398
29619SOL    HW289436   7.455   6.821   2.419 -0.9488 -0.4799 -1.0161
29620SOL     OW89437   9.626   4.303   8.380  0.2950 -0.4769 -0.6488
29620SOL    HW189438   9.556   4.245   8.410  0.1208  1.8590  4.4120
29620SOL    HW289439   9.595   4.337   8.296 -3.0416 -2.0481 -0.2049
29621SOL     OW89440   0.294   8.592   2.865  0.0397 -0.6303 -0.0022
29621SOL    HW189441   0.281   8.516   2.921  1.3558 -1.4945 -0.8063
29621SOL    HW289442   0.256   8.568   2.781 -0.4721  0.0191  0.0344
29622SOL     OW89443   0.705   9.676   1.893  0.3184 -0.5241 -0.6514
29622SOL    HW189444   0.795   9.653   1.870  0.0116 -1.4783 -0.9579
29622SOL    HW289445   0.664   9.592   1.914 -0.2242  0.0114  0.4873
29623SOL     OW89446   9.476   0.547   3.614 -0.0767 -0.7540 -0.5134
29623SOL    HW189447   9.456   0.542   3.521 -1.3315  0.2987 -0.3159
29623SOL    HW289448   9.443   0.632   3.642  0.3764 -1.0042  0.8762
29624SOL     OW89449   6.896   9.053   2.606 -0.0461  0.1328 -0.0829
29624SOL    HW189450   6.860   9.141   2.596 -1.3968 -0.2755  0.8664
29624SOL    HW289451   6.981   9.056   2.562 -1.4947  0.9464 -3.0763
29625SOL     OW89452   8.533   1.992   5.739 -0.1500  0.2183 -0.3134
29625SOL    HW189453   8.537   2.074   5.788  1.6865 -1.0762  1.9108
29625SOL    HW289454   8.562   2.016   5.651 -2.3698  2.4117 -0.5611
29626SOL     OW89455   5.285   1.301   2.266 -0.1413 -0.5391  0.4626
29626SOL    HW189456   5.271   1.359   2.191  0.4697 -0.8493  0.0977
29626SOL    HW289457   5.376   1.317   2.291 -0.5799  0.1905  1.6881
29627SOL     OW89458   2.270   7.276   3.522  0.4046  0.2862 -0.4221
29627SOL    HW189459   2.224   7.211   3.575  0.7805  0.6825  0.4055
29627SOL    HW289460   2.328   7.225   3.466  1.1701 -0.0648  0.6790
29628SOL     OW89461   9.349   7.666   6.945  0.2470  0.6577  0.5852
29628SOL    HW189462   9.317   7.626   7.026 -3.4890  0.4182 -0.7824
29628SOL    HW289463   9.274   7.716   6.912  1.1668 -0.1469 -3.2119
29629SOL     OW89464   6.556   6.332   0.717 -0.5201 -0.0054  0.0384
29629SOL    HW189465   6.463   6.355   0.715 -0.4211  0.8367 -3.7321
29629SOL    HW289466   6.600   6.407   0.676  1.6239 -1.0326  0.3125
29630SOL     OW89467   0.661   8.146   2.537  0.6258 -0.0902 -0.6085
29630SOL    HW189468   0.648   8.132   2.443 -2.5902  0.5922 -0.3871
29630SOL    HW289469   0.618   8.071   2.579  1.6581 -0.1738  0.3504
29631SOL     OW89470   5.479   7.855   2.506 -0.1082 -0.0697  0.3388
29631SOL    HW189471   5.419   7.892   2.442 -0.4860 -1.0146  0.1386
29631SOL    HW289472   5.494   7.765   2.477 -0.5529 -0.6312  1.7518
29632SOL     OW89473   8.660   9.467   4.912 -0.6933 -0.3704  0.4862
29632SOL    HW189474   8.708   9.464   4.829  0.2130  0.2293  0.9688
29632SOL    HW289475   8.593   9.399   4.904 -0.1680 -0.7918 -0.4635
29633SOL     OW89476   1.490   8.361   2.286 -0.2149  0.2260 -0.3006
29633SOL    HW189477   1.585   8.355   2.285 -0.2675 -0.6084 -1.0590
29633SOL    HW289478   1.472   8.454   2.274  0.4931  0.2509 -1.2694
29634SOL     OW89479   0.897   5.914   5.182  0.2149 -0.0633 -0.7218
29634SOL    HW189480   0.840   5.841   5.208 -1.0119  0.3895 -2.0223
29634SOL    HW289481   0.909   5.965   5.262 -1.0491 -0.2934 -0.3673
29635SOL     OW89482   7.228   8.865   9.539 -0.0691 -0.5811 -0.3056
29635SOL    HW189483   7.225   8.917   9.619 -1.8629 -1.3501  0.1702
29635SOL    HW289484   7.138   8.836   9.525  0.4888 -1.8005 -1.7270
29636SOL     OW89485   0.854   7.690   8.324  0.7530 -0.2193 -0.2078
29636SOL    HW189486   0.908   7.753   8.371  3.4055 -0.6427 -2.4086
29636SOL    HW289487   0.832   7.734   8.242 -2.2769 -0.1315  0.5407
29637SOL     OW89488   8.001   0.957   7.409  0.2511  0.1357  0.0085
29637SOL    HW189489   8.058   1.034   7.416 -1.0637  1.0782  0.8137
29637SOL    HW289490   7.960   0.967   7.323  1.1079 -0.4375 -0.4867
29638SOL     OW89491   4.005   3.930   4.257  0.4494 -1.0196  0.9606
29638SOL    HW189492   4.072   3.874   4.218 -0.0705 -0.0968 -1.4524
29638SOL    HW289493   4.047   4.016   4.267  0.0352 -0.7880  0.7375
29639SOL     OW89494   3.092   1.769   5.402 -0.7721 -0.5199 -0.3923
29639SOL    HW189495   3.085   1.680   5.370 -1.7235 -0.8060  0.5586
29639SOL    HW289496   3.010   1.811   5.376 -1.5863 -0.7673  1.5862
29640SOL     OW89497   7.655   7.830   2.038 -0.0182  0.4903 -0.0604
29640SOL    HW189498   7.743   7.813   2.072  0.1610 -1.1303 -1.1932
29640SOL    HW289499   7.666   7.905   1.980  0.3750  1.0070  0.6641
29641SOL     OW89500   5.535   6.668   3.327 -0.9605  0.3882 -0.1337
29641SOL    HW189501   5.522   6.760   3.350 -2.5990  0.0405  0.4782
29641SOL    HW289502   5.547   6.624   3.411 -0.4543  0.0035 -0.4065
29642SOL     OW89503   3.883   4.750   2.080 -0.8056  0.4202  0.0196
29642SOL    HW189504   3.859   4.809   2.151  0.4805  0.6410  0.2935
29642SOL    HW289505   3.805   4.696   2.066 -1.0683  0.3482  1.6248
29643SOL     OW89506   1.887   9.399   8.161 -0.3848 -0.0354 -0.6094
29643SOL    HW189507   1.851   9.485   8.183  2.4712  1.0693  0.1939
29643SOL    HW289508   1.898   9.401   8.066 -1.2178  0.0862 -0.7111
29644SOL     OW89509   3.425   5.560   9.696  0.1344 -0.3561 -0.6401
29644SOL    HW189510   3.375   5.502   9.754  0.3889  0.8118  0.8161
29644SOL    HW289511   3.500   5.507   9.668 -1.2690 -1.7539 -1.9593
29645SOL     OW89512   7.426   3.416   0.153 -0.4798 -0.1732  0.2829
29645SOL    HW189513   7.348   3.361   0.148 -1.1664  0.7125  0.9022
29645SOL    HW289514   7.403   3.484   0.217  0.2502  0.9663 -0.6312
29646SOL     OW89515   1.458   8.984   6.148 -0.1216 -0.7390  1.0251
29646SOL    HW189516   1.541   9.031   6.156 -0.1930 -0.3247 -0.5013
29646SOL    HW289517   1.391   9.052   6.144 -0.0627 -0.6303 -3.6626
29647SOL     OW89518   7.893  -0.017   5.698 -0.7661  0.7388 -0.1637
29647SOL    HW189519   7.964   0.004   5.759 -0.5841 -1.6862  0.5845
29647SOL    HW289520   7.860   0.068   5.669  2.3013  1.9692 -0.4063
29648SOL     OW89521   3.527   6.870   7.221  0.2549  0.1260  0.1598
29648SOL    HW189522   3.501   6.820   7.299 -1.4787 -1.6265 -1.4256
29648SOL    HW289523   3.622   6.856   7.215  0.1163 -1.3907  0.8669
29649SOL     OW89524   2.311   5.765   8.570  0.0601  0.2899 -0.8222
29649SOL    HW189525   2.312   5.735   8.661  0.5102 -3.4899 -1.8891
29649SOL    HW289526   2.231   5.728   8.533  0.2544  1.1161 -2.1524
29650SOL     OW89527   7.552   0.587   8.000 -0.1556 -0.3733  0.0038
29650SOL    HW189528   7.580   0.677   8.012 -1.2110 -0.0717  0.2885
29650SOL    HW289529   7.541   0.576   7.906  1.8740 -0.8117 -0.2263
29651SOL     OW89530   9.400   2.416   1.979  0.1377  0.2079  0.2721
29651SOL    HW189531   9.389   2.334   1.930 -0.8962  1.1097 -1.0778
29651SOL    HW289532   9.372   2.395   2.068 -1.9218 -0.4735 -0.4825
29652SOL     OW89533   0.058   6.964   0.561 -0.3523 -0.8325  0.7610
29652SOL    HW189534   0.054   6.890   0.622 -1.9246 -2.4151 -1.1257
29652SOL    HW289535   0.005   7.032   0.602 -0.2111 -1.3122  1.7846
29653SOL     OW89536   6.948   6.390   2.792  0.2164 -0.6628 -0.2471
29653SOL    HW189537   6.946   6.409   2.699  3.1909 -1.7649 -0.6335
29653SOL    HW289538   6.999   6.310   2.800 -2.0619 -2.0361  2.1765
29654SOL     OW89539   3.197   4.112   0.862 -0.5195 -0.4241 -0.4086
29654SOL    HW189540   3.200   4.018   0.876  0.7119 -0.1590  1.3598
29654SOL    HW289541   3.251   4.149   0.932 -0.1270  1.5390 -1.6639
29655SOL     OW89542   2.223   2.400   0.188  0.3360  0.7124  0.0399
29655SOL    HW189543   2.246   2.491   0.207  1.7820  0.5861 -0.9261
29655SOL    HW289544   2.269   2.380   0.106 -0.4045 -0.7170 -0.0628
29656SOL     OW89545   2.973   5.902   0.697  0.2787 -0.0500  0.1638
29656SOL    HW189546   3.015   5.959   0.763  1.9042 -0.5004 -0.4353
29656SOL    HW289547   2.916   5.961   0.648  0.6950  0.7456  0.6032
29657SOL     OW89548   6.307   0.416   5.839 -0.2756 -0.7825 -0.7350
29657SOL    HW189549   6.336   0.492   5.788 -0.0658 -0.5400 -0.2580
29657SOL    HW289550   6.354   0.423   5.922 -2.8465  0.5192  0.7455
29658SOL     OW89551   2.903   1.582   6.478 -1.3191  0.0251 -0.3807
29658SOL    HW189552   2.882   1.676   6.481 -1.4047 -0.0026 -0.1189
29658SOL    HW289553   2.987   1.576   6.523 -2.5040 -0.3630  1.8959
29659SOL     OW89554   0.777   7.733   2.828 -0.7520  0.5753 -0.4135
29659SOL    HW189555   0.742   7.818   2.804  0.0593  1.4017  1.1251
29659SOL    HW289556   0.741   7.672   2.764 -1.7486  1.9931 -1.2433
29660SOL     OW89557   7.410   0.633   7.514 -0.0254 -0.2336 -0.2248
29660SOL    HW189558   7.383   0.685   7.590 -1.0243 -0.6093 -0.3094
29660SOL    HW289559   7.404   0.694   7.440 -1.6199 -0.5496 -0.3920
29661SOL     OW89560   0.575   2.080   2.694 -0.4308  0.9964  0.3426
29661SOL    HW189561   0.600   1.997   2.735 -1.4349  0.5073 -0.0077
29661SOL    HW289562   0.543   2.134   2.766 -2.3112  0.0951  0.2513
29662SOL     OW89563   0.443   6.691   3.659 -0.3051  0.3277 -0.1286
29662SOL    HW189564   0.391   6.734   3.592 -3.4738 -1.4675  0.9783
29662SOL    HW289565   0.465   6.761   3.721 -0.6922  1.2651 -1.0227
29663SOL     OW89566   2.249   5.045   3.900  0.1187 -0.0647  0.1839
29663SOL    HW189567   2.155   5.031   3.890  0.1368  0.2381 -0.4548
29663SOL    HW289568   2.284   4.960   3.926 -0.3432 -0.1538  0.5170
29664SOL     OW89569   0.146   8.595   8.879 -0.0847  0.5283  0.0452
29664SOL    HW189570   0.217   8.571   8.819 -0.6658 -0.1267 -0.3925
29664SOL    HW289571   0.098   8.664   8.833 -0.3797  0.2040 -0.1326
29665SOL     OW89572   8.276   2.900   3.091  0.0567  0.2823  0.8464
29665SOL    HW189573   8.245   2.914   3.002 -2.2904 -3.4568  0.8271
29665SOL    HW289574   8.219   2.955   3.145 -0.5742  0.3103  0.1760
29666SOL     OW89575   4.245   2.280   6.424 -0.1276  0.3474 -0.3906
29666SOL    HW189576   4.222   2.269   6.516  2.1353 -0.2012  0.1958
29666SOL    HW289577   4.164   2.263   6.376 -1.4840  1.1545  1.4950
29667SOL     OW89578   1.786   0.241   4.281 -0.6860 -0.2910  0.2227
29667SOL    HW189579   1.753   0.266   4.194 -0.3148  0.5285  0.3031
29667SOL    HW289580   1.858   0.181   4.263 -0.7048 -0.2380 -0.0331
29668SOL     OW89581   2.747   9.756   0.255  0.0358  0.2679 -0.1599
29668SOL    HW189582   2.664   9.728   0.216  0.8974 -1.5010 -0.8445
29668SOL    HW289583   2.810   9.753   0.183  0.6264  2.1296  0.2147
29669SOL     OW89584   4.087   3.830   7.731 -0.1115  0.0932  0.0749
29669SOL    HW189585   4.056   3.919   7.712  0.8135  0.4478  0.1626
29669SOL    HW289586   4.057   3.812   7.820 -1.6537 -0.3033 -0.5044
29670SOL     OW89587   0.293   6.770   0.125 -0.0684  0.2144 -0.1130
29670SOL    HW189588   0.346   6.825   0.184  0.0975 -1.2554  1.1613
29670SOL    HW289589   0.352   6.750   0.052  1.2457 -1.4485  1.3119
29671SOL     OW89590   2.844   0.134   5.744 -0.0527 -0.1429 -0.2448
29671SOL    HW189591   2.882   0.050   5.720  0.0929  0.0997 -0.8565
29671SOL    HW289592   2.787   0.113   5.819 -0.2935 -0.8425 -0.6156
29672SOL     OW89593   0.234   1.698   1.997 -0.1624 -0.4699  0.2329
29672SOL    HW189594   0.203   1.750   1.923  1.0730  0.8858  0.6235
29672SOL    HW289595   0.156   1.686   2.052 -0.6006  0.4627 -0.1598
29673SOL     OW89596   7.429   7.927   6.541 -0.6041  0.1662 -0.2770
29673SOL    HW189597   7.344   7.944   6.582 -1.0542 -1.4903 -0.4288
29673SOL    HW289598   7.484   7.895   6.612 -0.9115 -1.2141 -0.6310
29674SOL     OW89599   8.320   1.508   8.561 -0.1697 -0.3180  0.1075
29674SOL    HW189600   8.247   1.567   8.544  2.5891  3.0232 -1.5756
29674SOL    HW289601   8.384   1.563   8.607  2.0466 -2.4755 -0.2089
29675SOL     OW89602   6.614   7.720   9.694 -0.2600 -0.0391  0.7991
29675SOL    HW189603   6.650   7.766   9.618 -0.6467 -1.1773 -0.1008
29675SOL    HW289604   6.685   7.663   9.723 -0.2201  0.1652  1.1146
29676SOL     OW89605   9.285   2.886   7.449  0.2265 -0.1328  0.3818
29676SOL    HW189606   9.201   2.898   7.495  0.1072  0.8180 -0.0798
29676SOL    HW289607   9.264   2.829   7.375 -0.3224  1.2630 -0.5676
29677SOL     OW89608   4.949   1.749   4.171  0.3447  0.0535  0.2968
29677SOL    HW189609   4.864   1.704   4.173  1.0149 -1.2716  0.5622
29677SOL    HW289610   4.950   1.800   4.252  0.4578 -1.2750  1.1833
29678SOL     OW89611   8.100   5.437   1.476  0.4817 -0.1972  0.3837
29678SOL    HW189612   8.130   5.433   1.385  0.8554  0.7638  0.4535
29678SOL    HW289613   8.077   5.346   1.497  0.3955 -0.4368 -0.6602
29679SOL     OW89614   0.775   0.031   4.505 -0.2806 -0.4408  0.1591
29679SOL    HW189615   0.748   0.039   4.596  1.1721  0.2138  0.5618
29679SOL    HW289616   0.826  -0.051   4.503  0.9435  0.2900  0.2968
29680SOL     OW89617   9.512   2.263   3.099  0.0071 -0.0639 -0.0031
29680SOL    HW189618   9.467   2.215   3.029 -0.6699 -1.1952  1.1576
29680SOL    HW289619   9.449   2.328   3.128 -1.0573 -1.7482  1.7267
29681SOL     OW89620   5.057   1.223   4.645 -0.1627  0.0256  0.0870
29681SOL    HW189621   5.081   1.308   4.607 -0.6781 -0.5658 -1.6424
29681SOL    HW289622   5.067   1.161   4.573 -1.8576 -1.0487  0.7168
29682SOL     OW89623   0.234   0.225   0.741 -0.1931  0.0440 -0.2968
29682SOL    HW189624   0.209   0.297   0.684  0.0919  1.4278  1.2387
29682SOL    HW289625   0.263   0.267   0.822  0.8106 -1.7693  0.3552
29683SOL     OW89626   5.774   9.671   8.410 -0.1329  0.0506 -0.5819
29683SOL    HW189627   5.824   9.696   8.332  0.7312 -0.1381 -0.1002
29683SOL    HW289628   5.771   9.576   8.406 -1.6110  0.0914 -1.2988
29684SOL     OW89629   8.135   8.419   7.753 -0.4576 -0.4228 -0.1572
29684SOL    HW189630   8.077   8.461   7.817  0.0829  0.1722 -0.0432
29684SOL    HW289631   8.097   8.440   7.668 -1.4250 -1.5837 -0.0262
29685SOL     OW89632   7.889   6.446   0.432  0.0874 -0.2493  0.8070
29685SOL    HW189633   7.984   6.459   0.429  0.2584 -1.5289 -0.8578
29685SOL    HW289634   7.854   6.533   0.452  1.6200  0.0758  2.2961
29686SOL     OW89635   3.814   0.728   9.920  0.1493 -0.1436 -0.7109
29686SOL    HW189636   3.800   0.637   9.948 -1.9047  0.3908  0.1644
29686SOL    HW289637   3.793   0.728   9.827  0.2168 -0.5685 -0.7306
29687SOL     OW89638   5.151   1.869   5.531  0.2046  0.0763  0.1378
29687SOL    HW189639   5.190   1.944   5.576  0.6095 -0.1479  0.1650
29687SOL    HW289640   5.158   1.797   5.594  0.6271 -0.1997 -0.2189
29688SOL     OW89641   9.197   9.021   1.615  0.5962  0.1475 -0.0473
29688SOL    HW189642   9.283   9.061   1.632  0.5528  0.8285 -1.2906
29688SOL    HW289643   9.209   8.928   1.636  1.6144  0.2511 -0.1186
29689SOL     OW89644   2.626   9.307   2.152 -0.7347  0.1234 -0.5873
29689SOL    HW189645   2.618   9.373   2.220  2.1426 -1.2620  1.3145
29689SOL    HW289646   2.714   9.322   2.115 -0.2394 -2.1980 -0.4955
29690SOL     OW89647   6.962   0.602   1.822 -0.3484 -0.3104  0.0921
29690SOL    HW189648   6.873   0.571   1.839  0.0872 -1.3044  0.6698
29690SOL    HW289649   6.959   0.695   1.843 -1.1556 -0.4177  0.5031
29691SOL     OW89650   5.043   8.844   8.071  0.1283 -0.2151  0.5079
29691SOL    HW189651   5.075   8.757   8.095 -1.1158 -0.5742  0.9520
29691SOL    HW289652   4.948   8.834   8.064 -0.0427  1.1157  0.6129
29692SOL     OW89653   8.628   4.833   2.804 -0.1881 -0.8869  0.2771
29692SOL    HW189654   8.606   4.850   2.712  0.4528  1.1911  0.4580
29692SOL    HW289655   8.544   4.812   2.845 -1.3307  2.6316  0.0797
29693SOL     OW89656   0.716   8.808   1.314 -0.3649  0.2947  0.8361
29693SOL    HW189657   0.629   8.847   1.323 -1.3691 -2.2518  4.1606
29693SOL    HW289658   0.772   8.862   1.371 -0.5731 -0.0184  1.3474
29694SOL     OW89659   6.191   0.881   9.152  0.7247 -0.2942  0.4100
29694SOL    HW189660   6.185   0.896   9.057 -2.1765 -0.2648  0.5362
29694SOL    HW289661   6.136   0.805   9.168 -0.2429  0.7386  2.2948
29695SOL     OW89662   6.043   0.068   2.586 -0.2993  0.0445  0.1395
29695SOL    HW189663   6.016   0.140   2.644 -0.7143  0.1275 -0.1513
29695SOL    HW289664   5.962   0.040   2.544  0.2413  1.2311 -1.8243
29696SOL     OW89665   8.313   1.431   6.417 -0.1618  0.1147 -0.3093
29696SOL    HW189666   8.359   1.498   6.468 -1.2422  0.6370 -0.0137
29696SOL    HW289667   8.235   1.410   6.469 -1.2917  0.6463 -1.7339
29697SOL     OW89668   1.224   9.507   4.590  0.3689  0.1935  0.4909
29697SOL    HW189669   1.238   9.432   4.647  0.4632 -1.3994 -1.4991
29697SOL    HW289670   1.130   9.524   4.594  0.3139 -0.1711  0.7785
29698SOL     OW89671   2.632   5.091   4.273 -0.2080  0.0409 -0.3885
29698SOL    HW189672   2.719   5.052   4.288 -0.9396 -1.4700  0.0930
29698SOL    HW289673   2.651   5.181   4.245  1.4765  1.2797  3.9096
29699SOL     OW89674   3.039   3.726   6.091 -0.3837 -0.0344 -0.4795
29699SOL    HW189675   3.133   3.732   6.106  0.0550 -0.6024 -2.6283
29699SOL    HW289676   3.021   3.790   6.022 -1.5908  0.1118 -0.0577
29700SOL     OW89677   6.870   5.662   2.212 -0.0896 -0.1499 -0.4522
29700SOL    HW189678   6.881   5.737   2.153  0.0366 -1.0960 -1.6606
29700SOL    HW289679   6.812   5.602   2.165  1.1007 -1.5282 -0.2431
29701SOL     OW89680   6.307   2.328   4.053 -0.2878  0.0262 -0.3309
29701SOL    HW189681   6.273   2.297   4.137 -0.1901  2.0018  0.4777
29701SOL    HW289682   6.245   2.396   4.026  0.2919  0.1700 -1.3305
29702SOL     OW89683   1.291   8.204   1.865 -0.6166 -0.1744  0.3243
29702SOL    HW189684   1.340   8.204   1.948 -0.2889  2.0951  0.1969
29702SOL    HW289685   1.358   8.218   1.798 -0.9966 -1.0569 -0.2468
29703SOL     OW89686   7.530   2.425   3.823 -0.6534  0.0483  0.3697
29703SOL    HW189687   7.571   2.340   3.806 -0.2283 -0.0068  1.5868
29703SOL    HW289688   7.445   2.419   3.780 -0.0849 -0.4660 -0.7489
29704SOL     OW89689   7.158   6.320   3.938 -0.2803  0.1217 -0.0515
29704SOL    HW189690   7.071   6.333   3.900 -0.7009 -1.2246  0.3974
29704SOL    HW289691   7.141   6.287   4.026  0.7025  1.4663  0.6805
29705SOL     OW89692   0.008   2.306   6.013  0.4162 -0.7084  0.0642
29705SOL    HW189693   0.078   2.244   5.994  0.0413 -1.3632  0.7904
29705SOL    HW289694  -0.068   2.251   6.034 -0.3685 -0.0209 -0.8314
29706SOL     OW89695   8.101   0.070   5.501 -0.0507  0.1399  0.9089
29706SOL    HW189696   8.163   0.005   5.468 -0.9908 -0.0649 -0.5248
29706SOL    HW289697   8.015   0.040   5.473 -0.7828  0.7175  2.3821
29707SOL     OW89698   0.663   6.268   6.145 -0.1560  0.1840  0.0327
29707SOL    HW189699   0.693   6.316   6.222  2.1024 -0.4797 -0.3629
29707SOL    HW289700   0.714   6.187   6.145 -1.2601 -0.5542 -1.2929
29708SOL     OW89701   8.508   7.376   7.087  0.8065 -0.3660 -0.6294
29708SOL    HW189702   8.549   7.318   7.024  3.2202  0.6200 -0.0798
29708SOL    HW289703   8.580   7.429   7.122 -1.0627  2.1809 -0.2881
29709SOL     OW89704   5.353   2.456   1.779  0.6724  0.3525 -0.1665
29709SOL    HW189705   5.351   2.362   1.797  2.2265  0.2567 -0.3471
29709SOL    HW289706   5.383   2.495   1.861 -2.6011  1.0464  0.8703
29710SOL     OW89707   5.118   5.275   4.982  0.0384 -0.3548  0.2743
29710SOL    HW189708   5.112   5.355   4.930  0.9146 -0.5196 -0.0863
29710SOL    HW289709   5.200   5.284   5.031 -0.0821 -0.8344  0.5747
29711SOL     OW89710   6.181   7.838   6.713  0.3747  0.3601 -0.7120
29711SOL    HW189711   6.109   7.888   6.751  1.2082  1.2822 -0.2918
29711SOL    HW289712   6.259   7.891   6.731  1.3368 -1.2081 -0.0294
29712SOL     OW89713   8.117   1.594   9.900  0.3566 -0.6564 -0.2055
29712SOL    HW189714   8.188   1.530   9.903  1.2185  0.2950  0.1211
29712SOL    HW289715   8.045   1.548   9.855  0.8958 -1.8889  0.1621
29713SOL     OW89716   9.578   3.043   6.345 -0.0958 -0.5210  0.0518
29713SOL    HW189717   9.644   3.046   6.414 -0.6368  0.1342  0.5567
29713SOL    HW289718   9.618   3.088   6.271 -0.0396  0.0396  0.4156
29714SOL     OW89719   9.832   3.848   8.396 -0.0732  0.0782 -0.1170
29714SOL    HW189720   9.754   3.797   8.376  1.1668 -1.6106 -0.9087
29714SOL    HW289721   9.880   3.795   8.459  0.7506  0.8021 -0.1098
29715SOL     OW89722   6.958   0.720   7.797 -0.3219  0.2268 -0.0287
29715SOL    HW189723   6.984   0.721   7.889 -0.1062 -0.8183 -0.0655
29715SOL    HW289724   7.022   0.662   7.754  0.0472  1.3106 -0.9845
29716SOL     OW89725   7.919   3.715   2.344 -0.2743 -0.1613 -0.0802
29716SOL    HW189726   7.833   3.750   2.322  0.3047  0.0161 -2.3091
29716SOL    HW289727   7.962   3.786   2.393 -0.3395  0.9689 -1.5806
29717SOL     OW89728   7.435   9.604   8.944  0.1878  0.5189  0.2140
29717SOL    HW189729   7.350   9.580   8.907  0.8616  1.9408 -2.5341
29717SOL    HW289730   7.476   9.520   8.967 -1.5032 -0.2388  0.6547
29718SOL     OW89731   1.995   5.525   0.596  0.0720  0.5462  0.5152
29718SOL    HW189732   2.079   5.514   0.642  0.6803  0.2879 -0.6147
29718SOL    HW289733   2.020   5.548   0.506 -0.9923 -1.8154 -0.4672
29719SOL     OW89734   8.419   9.053   4.462  0.1002 -0.3803 -0.0505
29719SOL    HW189735   8.406   8.959   4.471  1.1011 -0.6024 -0.7908
29719SOL    HW289736   8.505   9.070   4.499 -0.4150  0.3887  0.8464
29720SOL     OW89737   5.384   1.714   6.165  0.3907  0.7699  0.0449
29720SOL    HW189738   5.343   1.693   6.081  1.8798 -0.2066 -0.4685
29720SOL    HW289739   5.323   1.775   6.207 -0.8336  0.5321 -1.3265
29721SOL     OW89740   4.910   2.899   8.008  0.6146 -0.5227  0.0216
29721SOL    HW189741   4.825   2.862   8.032  1.0314 -1.1181  0.6335
29721SOL    HW289742   4.969   2.823   8.005  1.1815 -0.0819 -0.1149
29722SOL     OW89743   3.241   0.231   4.828  0.9193  0.0678 -0.0886
29722SOL    HW189744   3.207   0.168   4.764  5.6143 -1.8016 -1.1817
29722SOL    HW289745   3.224   0.190   4.913  2.0911 -1.7951 -0.6914
29723SOL     OW89746   5.542   5.618   1.258 -0.4434 -0.3790 -0.0725
29723SOL    HW189747   5.549   5.678   1.332  0.3255 -0.7109  0.1294
29723SOL    HW289748   5.562   5.672   1.181  0.1341 -0.3465  0.0981
29724SOL     OW89749   7.098   6.307   7.824  0.6569  0.1688 -0.3500
29724SOL    HW189750   7.065   6.232   7.873 -1.6934 -0.5367 -2.8042
29724SOL    HW289751   7.165   6.271   7.766  1.2226  0.4530  0.1067
29725SOL     OW89752   5.166   6.990   8.370 -1.0638 -0.4131 -0.1331
29725SOL    HW189753   5.169   6.907   8.321  1.2431 -0.4193 -0.1011
29725SOL    HW289754   5.122   6.968   8.452  0.2082 -1.8632  0.2205
29726SOL     OW89755   4.163   9.561   0.216  0.3162  0.5932 -0.6135
29726SOL    HW189756   4.202   9.602   0.138 -0.2984  0.3516 -1.0586
29726SOL    HW289757   4.127   9.479   0.184 -2.0549  1.5548 -0.6073
29727SOL     OW89758   2.432   8.896   1.016 -0.4846  0.6675  0.1850
29727SOL    HW189759   2.470   8.808   1.025 -0.2557  0.7845  0.3705
29727SOL    HW289760   2.503   8.948   0.979 -0.8974  0.5735 -0.7625
29728SOL     OW89761   1.249   6.918   6.771  0.1244 -0.0846 -0.0685
29728SOL    HW189762   1.226   7.011   6.780  1.5508  0.2174  0.7110
29728SOL    HW289763   1.184   6.883   6.711 -0.7869  1.2930  0.0740
29729SOL     OW89764   4.337   5.338   8.589 -0.0459  0.2835 -0.0990
29729SOL    HW189765   4.294   5.366   8.670 -0.7255 -1.4768  0.1965
29729SOL    HW289766   4.422   5.305   8.618 -0.8020 -1.5954  0.1469
29730SOL     OW89767   0.718   6.474   4.894  0.0743  0.7127 -0.2160
29730SOL    HW189768   0.758   6.492   4.809 -1.3979  1.2145 -0.8457
29730SOL    HW289769   0.763   6.396   4.926  0.7446  0.5948 -1.4003
29731SOL     OW89770   3.778   4.165   4.364  0.1570 -0.4397 -0.2317
29731SOL    HW189771   3.705   4.219   4.394 -0.1977 -1.0163 -0.0514
29731SOL    HW289772   3.855   4.220   4.378 -0.0541 -0.4714  1.2055
29732SOL     OW89773   1.204   5.771   5.203  0.4909 -0.0778  0.2506
29732SOL    HW189774   1.124   5.718   5.200  0.1644  0.4422 -0.5870
29732SOL    HW289775   1.274   5.707   5.217 -0.1652 -0.4254  2.5276
29733SOL     OW89776   3.411   3.618   6.430 -0.4414 -0.1310 -0.1044
29733SOL    HW189777   3.461   3.544   6.397  2.2126  1.7653 -0.5776
29733SOL    HW289778   3.410   3.606   6.525  0.5506 -0.4370 -0.1298
29734SOL     OW89779   9.854   5.621   6.673  0.2097 -0.1236 -0.3149
29734SOL    HW189780   9.773   5.646   6.628  0.0213 -1.3157 -0.6900
29734SOL    HW289781   9.824   5.571   6.749  0.5121  2.0780  1.3632
29735SOL     OW89782   1.860   8.504   4.442 -0.0988  0.1905  0.9291
29735SOL    HW189783   1.939   8.524   4.492 -0.3988  0.6409  1.2394
29735SOL    HW289784   1.871   8.552   4.360  0.8588 -1.3581  0.1002
29736SOL     OW89785   3.820   7.017   8.251  0.1681  0.1451  0.6564
29736SOL    HW189786   3.795   6.943   8.194  1.0736  0.3770 -0.0770
29736SOL    HW289787   3.783   7.094   8.207 -0.4509  0.1727  1.2177
29737SOL     OW89788   7.606   0.195   5.596  0.4238  0.1046  0.0009
29737SOL    HW189789   7.536   0.254   5.570  0.4574  0.1619  0.0397
29737SOL    HW289790   7.687   0.245   5.582  0.3732  0.6841  1.6220
29738SOL     OW89791   6.825   3.310   1.003 -0.2966 -0.4655 -0.1594
29738SOL    HW189792   6.784   3.251   1.066  1.6104 -0.5437  1.1063
29738SOL    HW289793   6.853   3.252   0.932 -0.6142 -0.7066 -0.0889
29739SOL     OW89794   1.806   9.680   9.801  0.3831 -0.1197 -0.0397
29739SOL    HW189795   1.891   9.710   9.768  1.1980 -0.7319  1.4195
29739SOL    HW289796   1.827   9.634   9.882 -1.0710 -2.3939 -0.8583
29740SOL     OW89797   6.641   7.510   5.311  0.1791  0.4658 -0.3580
29740SOL    HW189798   6.563   7.458   5.327  0.7133  0.1350  1.3764
29740SOL    HW289799   6.613   7.601   5.326  0.0934  0.3518  0.2083
29741SOL     OW89800   7.547   7.227   1.747  0.3087  0.0579  0.1110
29741SOL    HW189801   7.558   7.142   1.789  1.0907  0.9034  1.7242
29741SOL    HW289802   7.608   7.285   1.794 -0.5203  1.6007 -0.6380
29742SOL     OW89803   0.203   0.830   8.033 -0.0520 -0.7274 -0.3527
29742SOL    HW189804   0.274   0.775   8.065  1.9403 -0.5694 -3.9095
29742SOL    HW289805   0.130   0.770   8.018 -0.4750 -1.0529  2.4907
29743SOL     OW89806   8.526   8.351   5.066 -0.1961 -0.1719 -0.1584
29743SOL    HW189807   8.452   8.293   5.046 -1.3853  0.9804  0.6705
29743SOL    HW289808   8.536   8.344   5.161 -1.4815  2.1369  0.2470
29744SOL     OW89809   3.908   6.459   5.058 -0.3637 -0.2826  0.0633
29744SOL    HW189810   3.921   6.471   4.964 -0.2627  1.1596  0.2369
29744SOL    HW289811   3.812   6.458   5.068 -0.3856 -1.3612 -0.1431
29745SOL     OW89812   7.005   0.044   1.456  0.0601 -0.0118  0.2332
29745SOL    HW189813   6.934   0.108   1.450  0.4957  0.4234 -0.4073
29745SOL    HW289814   6.966  -0.037   1.424 -0.0250  0.3408 -0.5887
29746SOL     OW89815   4.505   8.670   6.626  0.1111  0.0390 -0.6902
29746SOL    HW189816   4.415   8.690   6.602 -0.9285 -2.0917  1.1028
29746SOL    HW289817   4.543   8.630   6.548 -1.3201 -1.3465 -0.7176
29747SOL     OW89818   3.698   7.338   9.939  0.0482  0.5685 -0.3088
29747SOL    HW189819   3.674   7.407  10.001 -0.1128 -0.9491  1.4245
29747SOL    HW289820   3.793   7.344   9.931  0.2291  0.0410  1.1009
29748SOL     OW89821   6.599   3.232   5.919  0.0973 -0.1322  0.1882
29748SOL    HW189822   6.617   3.241   6.013  1.2106 -0.4699  0.0320
29748SOL    HW289823   6.595   3.322   5.887  0.7356 -0.0178  0.4002
29749SOL     OW89824   6.705   2.863   0.189 -0.5425 -0.9648 -0.5004
29749SOL    HW189825   6.703   2.769   0.205  0.8329 -1.0465 -0.7056
29749SOL    HW289826   6.754   2.873   0.107  1.9212  0.0543  0.9772
29750SOL     OW89827   3.152   7.968   2.727 -0.9496 -0.1196 -0.3004
29750SOL    HW189828   3.237   8.011   2.727 -1.0923  0.1711 -0.2549
29750SOL    HW289829   3.098   8.023   2.784 -1.5835  0.5551 -1.5037
29751SOL     OW89830   2.889   8.749   4.545  0.0904  0.1561  0.6804
29751SOL    HW189831   2.919   8.706   4.625 -0.1991  0.8421  1.1603
29751SOL    HW289832   2.969   8.760   4.493  0.1598 -1.0383  0.5047
29752SOL     OW89833   9.464   9.405   8.234  0.7849  0.0993 -0.4176
29752SOL    HW189834   9.384   9.444   8.269  1.0208  0.0516  0.1867
29752SOL    HW289835   9.468   9.318   8.275  0.2052 -0.6428 -1.8257
29753SOL     OW89836   7.716   7.395   6.391  0.2812 -0.1319  0.4697
29753SOL    HW189837   7.635   7.429   6.430  1.0842  0.4157  1.7593
29753SOL    HW289838   7.695   7.305   6.368 -0.8328  0.1369  0.3532
29754SOL     OW89839   0.865   7.338   3.833 -0.2747  0.1860  0.3076
29754SOL    HW189840   0.823   7.320   3.749 -0.0011  0.2119  0.1649
29754SOL    HW289841   0.912   7.420   3.820  0.1044 -0.0203  0.3615
29755SOL     OW89842   2.117   2.797   3.830 -0.1706 -0.0369 -0.3217
29755SOL    HW189843   2.111   2.879   3.878  2.9825  0.1460 -0.0304
29755SOL    HW289844   2.164   2.819   3.750 -0.9159 -1.2556 -1.1345
29756SOL     OW89845   3.303   5.531   5.281  0.1960  0.0314  0.2106
29756SOL    HW189846   3.339   5.603   5.229  1.3082 -1.5130 -1.3024
29756SOL    HW289847   3.222   5.565   5.318  1.1132  2.3073  0.2541
29757SOL     OW89848   4.675   5.048   5.709  0.6288  0.0890  0.3434
29757SOL    HW189849   4.636   4.998   5.637 -1.3784  0.0940  1.3580
29757SOL    HW289850   4.647   5.138   5.694 -0.9872 -0.1147  1.7966
29758SOL     OW89851   1.566   4.455   4.785 -0.0630  0.1135  0.5737
29758SOL    HW189852   1.605   4.401   4.716 -1.2435 -0.9594  0.7174
29758SOL    HW289853   1.531   4.392   4.848 -1.9995  1.0051  0.4553
29759SOL     OW89854   7.142   2.129   4.833 -0.5362  0.3220 -0.0897
29759SOL    HW189855   7.073   2.171   4.883 -1.2263  1.7775 -2.1496
29759SOL    HW289856   7.098   2.059   4.784  0.0770 -0.8942  1.0324
29760SOL     OW89857   2.069   7.619   4.336  0.1802 -0.3619  0.0861
29760SOL    HW189858   2.038   7.708   4.316  0.2503 -0.0710  1.2062
29760SOL    HW289859   2.087   7.580   4.250 -0.7534  0.3775 -0.4645
29761SOL     OW89860   7.170   1.660   9.378 -0.4255 -0.0138  0.0985
29761SOL    HW189861   7.168   1.636   9.470 -0.5590 -2.0690 -0.3981
29761SOL    HW289862   7.203   1.582   9.333 -1.4516  0.5173 -1.6992
29762SOL     OW89863   1.027   9.223   7.237 -0.0534 -0.7157  0.1744
29762SOL    HW189864   1.012   9.135   7.271 -0.5792 -0.8053 -0.2781
29762SOL    HW289865   1.039   9.210   7.143 -2.0943 -0.1035 -0.2099
29763SOL     OW89866   2.752   3.490   3.648 -0.3100  0.2788 -0.0231
29763SOL    HW189867   2.687   3.433   3.607 -0.3802 -0.1894  0.7280
29763SOL    HW289868   2.828   3.484   3.590  0.2309 -1.7800  0.7879
29764SOL     OW89869   4.643   5.167   1.087 -0.0205 -0.1441  0.0406
29764SOL    HW189870   4.711   5.190   1.151  1.4245  0.2748 -1.5703
29764SOL    HW289871   4.571   5.227   1.106  0.2264 -0.2743  1.4935
29765SOL     OW89872   3.195   6.599   1.600 -0.0828 -0.3065  0.2918
29765SOL    HW189873   3.134   6.526   1.609  1.1752 -1.3606  0.6679
29765SOL    HW289874   3.275   6.559   1.564  1.0465  0.6403  1.6336
29766SOL     OW89875   6.680   6.932   2.658 -0.0683 -0.2017  0.7370
29766SOL    HW189876   6.771   6.956   2.677 -0.7909  1.8758  1.9817
29766SOL    HW289877   6.653   6.995   2.592 -0.8321 -0.2391  1.0034
29767SOL     OW89878   9.095   9.770   8.984 -0.3635 -0.4401  0.3984
29767SOL    HW189879   9.051   9.824   9.050 -4.8274 -1.2601 -1.5603
29767SOL    HW289880   9.150   9.832   8.936 -2.2741  1.6349  0.7180
29768SOL     OW89881   2.892   8.142   0.475 -0.2007 -0.2389 -0.2381
29768SOL    HW189882   2.814   8.192   0.498  1.1691  2.5268 -1.1672
29768SOL    HW289883   2.905   8.159   0.382  1.6986 -0.3215 -0.0248
29769SOL     OW89884   4.765   7.593   1.483 -0.1968 -0.3205  0.7852
29769SOL    HW189885   4.804   7.508   1.462  0.1284  0.0562 -0.1788
29769SOL    HW289886   4.820   7.629   1.552  1.2490  0.2411 -0.6019
29770SOL     OW89887   5.100   1.237   6.020 -0.4869  0.1611 -0.2730
29770SOL    HW189888   5.057   1.322   6.008  0.6623  0.7078 -0.6451
29770SOL    HW289889   5.191   1.259   6.039 -0.1223 -0.9926 -0.6230
29771SOL     OW89890   1.950   9.334   4.735  0.8822  0.2367  0.0575
29771SOL    HW189891   2.016   9.382   4.784  0.7794 -0.8616  1.3024
29771SOL    HW289892   1.883   9.400   4.715  1.7410  1.0779 -0.1560
29772SOL     OW89893   9.644   1.469   4.715  0.2271  0.2754  0.1681
29772SOL    HW189894   9.638   1.556   4.753 -0.4219  0.6649 -0.7868
29772SOL    HW289895   9.573   1.465   4.651  0.1718 -0.9977  0.2699
29773SOL     OW89896   5.299   2.894   8.855  0.7064  0.1026 -0.1571
29773SOL    HW189897   5.248   2.814   8.840 -1.1444  0.9934  0.9903
29773SOL    HW289898   5.379   2.864   8.897  0.7826 -1.2819 -1.2060
29774SOL     OW89899   7.298   1.877   8.106 -0.1774  0.3052  0.4465
29774SOL    HW189900   7.366   1.850   8.045 -0.3076  0.6340  0.1519
29774SOL    HW289901   7.220   1.831   8.077 -0.1806  0.2604  0.5250
29775SOL     OW89902   1.053   1.517   6.548  0.4615 -0.1785  0.5259
29775SOL    HW189903   1.110   1.442   6.535  0.6260  0.0366 -0.0236
29775SOL    HW289904   0.987   1.487   6.610  1.6767 -0.1472  1.8660
29776SOL     OW89905   0.244   4.509   6.896 -0.1989  0.1574 -0.1989
29776SOL    HW189906   0.330   4.466   6.891 -0.2216 -0.0524  0.8244
29776SOL    HW289907   0.233   4.528   6.989 -1.2649  0.1834 -0.3187
29777SOL     OW89908   2.063   3.560   9.516 -0.0732 -0.3185  0.9634
29777SOL    HW189909   2.145   3.607   9.526  0.7985 -1.6570  0.4065
29777SOL    HW289910   2.001   3.626   9.485  1.2455  0.3637 -0.3789
29778SOL     OW89911   9.074   0.748   9.080 -0.1284  0.4605 -1.0763
29778SOL    HW189912   9.155   0.703   9.102 -0.9497 -0.9403 -0.8278
29778SOL    HW289913   9.102   0.824   9.028  1.2153 -1.1340 -2.8269
29779SOL     OW89914   6.582   1.949   4.527  0.1046  0.2718  0.4451
29779SOL    HW189915   6.632   1.998   4.461  1.2329  1.1021  1.8626
29779SOL    HW289916   6.508   1.912   4.478  1.4669 -0.0456 -1.4937
29780SOL     OW89917   5.588   6.137   5.738 -0.1569 -1.0095  0.0409
29780SOL    HW189918   5.621   6.219   5.701 -1.0085 -1.2132 -1.2503
29780SOL    HW289919   5.663   6.099   5.783  0.3371  0.3204  0.3902
29781SOL     OW89920   5.214   3.407   6.198  0.4772 -0.2788 -0.2008
29781SOL    HW189921   5.134   3.385   6.150  0.1049 -2.1398  1.1304
29781SOL    HW289922   5.194   3.490   6.241 -0.1918  0.0144 -1.0547
29782SOL     OW89923   2.748   2.193   7.057  0.4644 -0.3301 -0.3285
29782SOL    HW189924   2.812   2.263   7.070 -1.9279  1.5781  3.1339
29782SOL    HW289925   2.800   2.115   7.042  3.5617  1.3324  0.8226
29783SOL     OW89926   6.774   7.222   8.683 -0.0243  1.0799 -0.3696
29783SOL    HW189927   6.723   7.279   8.741 -1.0180  0.0924 -0.2279
29783SOL    HW289928   6.828   7.170   8.742 -0.8502  0.2521 -0.3146
29784SOL     OW89929   5.762   2.351   8.260  0.2145  0.0422  0.2866
29784SOL    HW189930   5.781   2.399   8.340  0.0016 -0.8061  0.8590
29784SOL    HW289931   5.814   2.271   8.267  0.2110 -0.0377 -0.4352
29785SOL     OW89932   0.214   4.580   8.099 -0.0492  0.1084 -0.1819
29785SOL    HW189933   0.280   4.648   8.110 -0.5528  0.3964  1.4191
29785SOL    HW289934   0.259   4.499   8.120  0.0066  0.2186  0.1393
29786SOL     OW89935   9.576   5.377   9.041 -0.2614 -0.1562 -0.4562
29786SOL    HW189936   9.548   5.448   8.983 -0.3495  0.0204 -0.1965
29786SOL    HW289937   9.659   5.347   9.004  0.2297  0.6756 -0.0490
29787SOL     OW89938   8.568   4.858   8.536 -0.4313 -0.4778 -0.2289
29787SOL    HW189939   8.634   4.791   8.520  1.5854  0.7657  2.2402
29787SOL    HW289940   8.508   4.818   8.599 -1.1708 -1.0216 -1.2317
29788SOL     OW89941   0.917   1.391   6.978 -0.1722  0.2223  0.4625
29788SOL    HW189942   0.912   1.338   6.898  2.2860 -0.9049  0.9767
29788SOL    HW289943   0.900   1.328   7.048  3.0709 -0.0763  1.1067
29789SOL     OW89944   7.535   3.770   8.590 -0.2185 -0.8158  0.1958
29789SOL    HW189945   7.573   3.795   8.674  1.2050 -0.1335 -0.6165
29789SOL    HW289946   7.444   3.801   8.595 -0.1016 -0.6428  1.4186
29790SOL     OW89947   6.584   4.049   3.787 -0.1258 -0.4430  0.1342
29790SOL    HW189948   6.671   4.036   3.749  0.0639  2.3914 -0.6877
29790SOL    HW289949   6.532   3.977   3.753  1.5118 -1.3039 -0.6974
29791SOL     OW89950   0.277   2.637   9.429 -0.7014  0.0122  0.5897
29791SOL    HW189951   0.346   2.583   9.392 -0.4323  1.2107 -0.7364
29791SOL    HW289952   0.263   2.601   9.517  1.4254 -0.4082  0.8051
29792SOL     OW89953   9.237   4.293   7.068  0.1557  1.3126  0.0422
29792SOL    HW189954   9.226   4.385   7.094 -0.5803  0.9105  1.2254
29792SOL    HW289955   9.148   4.262   7.054  0.3101  0.4190  0.9729
29793SOL     OW89956   6.592   7.356   0.299  0.3054  0.1402 -0.7779
29793SOL    HW189957   6.658   7.332   0.364  0.4665  1.9808 -0.2015
29793SOL    HW289958   6.585   7.451   0.307 -0.9359  0.1992 -2.2673
29794SOL     OW89959   9.715   6.885   1.796  0.2648 -0.0722  0.1700
29794SOL    HW189960   9.775   6.960   1.795 -0.3429  0.4256 -0.6616
29794SOL    HW289961   9.629   6.924   1.781 -0.1411 -0.8775  0.3763
29795SOL     OW89962   1.255   0.330   8.923  0.4492 -0.2628 -0.0371
29795SOL    HW189963   1.322   0.385   8.964  0.0652  0.7919 -0.7710
29795SOL    HW289964   1.267   0.345   8.829 -1.3538  0.6354 -0.1721
29796SOL     OW89965   3.443   8.144   5.648  0.0417  0.1405  0.0111
29796SOL    HW189966   3.422   8.231   5.683 -0.7136 -0.3208  0.7353
29796SOL    HW289967   3.396   8.083   5.705  0.1187 -0.7213 -0.8165
29797SOL     OW89968   4.954   7.657   9.632  0.7440  0.2514 -0.0275
29797SOL    HW189969   4.972   7.735   9.685  0.3340 -0.3612  1.0629
29797SOL    HW289970   4.858   7.650   9.633  0.6909  0.5251 -1.3277
29798SOL     OW89971   3.461   3.334   7.024  0.1739  0.0252  0.3776
29798SOL    HW189972   3.446   3.424   7.051  0.5309  0.0250  0.5806
29798SOL    HW289973   3.541   3.308   7.069 -0.4782 -0.7339  1.1245
29799SOL     OW89974   2.316   2.437   3.938 -0.1564 -0.3223  0.2995
29799SOL    HW189975   2.294   2.354   3.981  1.0762  0.2482  2.1508
29799SOL    HW289976   2.383   2.413   3.874 -0.9953 -0.9821 -0.3558
29800SOL     OW89977   3.625   0.120   9.333  0.1368  0.1409 -0.0716
29800SOL    HW189978   3.627   0.031   9.367 -0.3767 -0.0236 -0.4607
29800SOL    HW289979   3.710   0.157   9.358  0.7451 -0.7670 -0.7302
29801SOL     OW89980   8.868   2.605   8.786 -0.6986  0.8141 -0.3185
29801SOL    HW189981   8.855   2.561   8.870 -3.0353  1.9022 -0.0120
29801SOL    HW289982   8.882   2.697   8.808  0.3393  0.8588 -1.0771
29802SOL     OW89983   7.665   6.625   9.731  0.0981  0.3409 -0.2543
29802SOL    HW189984   7.615   6.706   9.719  1.6947  1.2073 -1.6245
29802SOL    HW289985   7.622   6.562   9.673  0.6123  1.1162 -1.5378
29803SOL     OW89986   9.693   5.139   1.025  0.2745 -0.7871  0.6943
29803SOL    HW189987   9.669   5.108   1.112 -0.7885  0.0443  0.7183
29803SOL    HW289988   9.693   5.061   0.971 -1.0072 -1.0609  1.0429
29804SOL     OW89989   5.567   3.667   5.674  0.1139  0.1568  0.1244
29804SOL    HW189990   5.543   3.595   5.615  1.5225 -0.5900  0.4044
29804SOL    HW289991   5.588   3.740   5.616  3.0997 -1.0540 -0.5143
29805SOL     OW89992   2.554   8.429   8.140 -0.2357 -0.3809 -0.2408
29805SOL    HW189993   2.485   8.371   8.172 -1.0462  0.1409 -0.9855
29805SOL    HW289994   2.518   8.467   8.059  1.4340 -1.0576 -1.3488
29806SOL     OW89995   2.708   7.641   6.381 -0.1140 -0.0983  0.8084
29806SOL    HW189996   2.797   7.675   6.379  1.6026 -4.0755 -0.8932
29806SOL    HW289997   2.684   7.633   6.288 -0.8557 -2.1344  1.1388
29807SOL     OW89998   0.913   8.386   5.638  0.1780  0.0617  0.1918
29807SOL    HW189999   1.004   8.410   5.657 -0.1129  1.4978 -0.0697
29807SOL    HW290000   0.861   8.445   5.692 -0.6310 -1.5429  1.2387
29808SOL     OW90001   0.621   2.789   2.331 -0.8537 -0.0282 -0.3541
29808SOL    HW190002   0.694   2.728   2.328 -0.9973 -0.1630 -1.7628
29808SOL    HW290003   0.653   2.863   2.383  0.2607 -0.0969 -0.9224
29809SOL     OW90004   9.514   4.845   5.324 -0.4778 -0.3666 -0.1312
29809SOL    HW190005   9.510   4.775   5.259  0.8362 -1.2148  0.6479
29809SOL    HW290006   9.578   4.814   5.388 -1.2283  0.7472  1.2017
29810SOL     OW90007   5.984   3.107   2.877 -0.5729 -0.2069 -0.2240
29810SOL    HW190008   5.941   3.191   2.862  0.8892  0.6152 -0.0017
29810SOL    HW290009   6.072   3.119   2.843  0.0475 -1.2527  0.9445
29811SOL     OW90010   8.979   0.722   3.018  0.0436  0.3352  0.1521
29811SOL    HW190011   8.974   0.626   3.014 -0.0056  0.3721 -1.1404
29811SOL    HW290012   8.937   0.745   3.100  0.0377 -0.7570  0.4677
29812SOL     OW90013   9.289   3.499   8.861 -0.0229 -0.2875 -0.0117
29812SOL    HW190014   9.234   3.512   8.939 -1.3886  0.1812 -1.0243
29812SOL    HW290015   9.379   3.498   8.895 -0.6571 -3.0691  1.9916
29813SOL     OW90016   5.350   2.311   5.762 -0.2187 -0.4392 -0.2064
29813SOL    HW190017   5.389   2.386   5.805 -1.2592 -0.3449  0.6140
29813SOL    HW290018   5.303   2.348   5.687  0.0547 -0.3838 -0.3505
29814SOL     OW90019   4.326   0.689   8.343  0.3794 -0.0750  0.2164
29814SOL    HW190020   4.269   0.752   8.299 -3.0870 -0.6719  3.3554
29814SOL    HW290021   4.411   0.733   8.349 -0.4350  2.0817 -2.2477
29815SOL     OW90022   5.277   2.633   0.256 -0.1633 -0.0561  0.9146
29815SOL    HW190023   5.369   2.662   0.260 -0.2776  0.4637 -0.0750
29815SOL    HW290024   5.280   2.552   0.204 -0.5718  1.4023 -1.5035
29816SOL     OW90025   8.978   4.123   3.647  0.1228  0.6014 -0.2364
29816SOL    HW190026   8.895   4.106   3.601 -0.4168  1.6812  0.3045
29816SOL    HW290027   9.031   4.170   3.583 -0.1173  0.9102 -0.2127
29817SOL     OW90028   2.909   6.411   4.844  0.1339  0.1347  0.5256
29817SOL    HW190029   2.891   6.503   4.826  1.7884  0.7573  1.7648
29817SOL    HW290030   2.997   6.397   4.807  0.4986 -0.5300  1.6061
29818SOL     OW90031   6.393   6.686   7.963 -0.1226  0.0092 -0.3127
29818SOL    HW190032   6.370   6.652   8.050  0.6255 -1.1699 -0.5555
29818SOL    HW290033   6.475   6.642   7.941 -0.6656 -0.2506 -1.9358
29819SOL     OW90034   9.672   0.074   6.126 -0.0104  0.2625  0.8269
29819SOL    HW190035   9.724   0.045   6.202 -1.7862  0.1188  2.0368
29819SOL    HW290036   9.669   0.169   6.135  0.1543  0.2850  0.6619
29820SOL     OW90037   3.226   6.824   2.920  0.4699  0.0073  0.3608
29820SOL    HW190038   3.307   6.778   2.900  1.7861  2.7957 -1.4804
29820SOL    HW290039   3.248   6.879   2.996 -0.0188  0.0355  0.4858
29821SOL     OW90040   7.438   1.073   9.777 -0.4130  0.0619 -0.1772
29821SOL    HW190041   7.358   1.107   9.817 -0.4540  0.4428 -0.5775
29821SOL    HW290042   7.409   0.997   9.727 -0.3352 -0.5255  0.6473
29822SOL     OW90043   1.651   1.276   1.669 -0.0547  0.6337 -0.3935
29822SOL    HW190044   1.643   1.341   1.599 -2.4162  1.7892  0.8528
29822SOL    HW290045   1.591   1.306   1.737  0.7279 -1.4872  1.3461
29823SOL     OW90046   6.490   1.756   1.270 -0.5844  0.1254  0.3831
29823SOL    HW190047   6.416   1.817   1.273 -0.3357  0.3987  1.7150
29823SOL    HW290048   6.544   1.788   1.197 -1.8957 -0.2520 -0.7826
29824SOL     OW90049   8.196   5.003   8.330  0.0701  0.2669 -0.4751
29824SOL    HW190050   8.241   5.081   8.363  1.1472  0.0600 -1.4035
29824SOL    HW290051   8.259   4.962   8.270 -0.6512 -1.0678 -0.3625
29825SOL     OW90052   8.465   6.972   2.608  0.0433 -0.4331  0.7177
29825SOL    HW190053   8.375   6.948   2.631  0.2160 -3.0432 -0.9660
29825SOL    HW290054   8.464   6.980   2.513  1.4466  0.3778  0.7472
29826SOL     OW90055   0.221   7.427   6.747 -0.0743  0.0467 -0.1096
29826SOL    HW190056   0.296   7.415   6.805 -1.3699 -3.7525  1.0797
29826SOL    HW290057   0.155   7.469   6.802  0.6113  2.1531 -0.7782
29827SOL     OW90058   1.647  -0.002   8.972  0.9309 -0.2299  0.2319
29827SOL    HW190059   1.672   0.083   8.936 -1.0863  0.1225 -0.4513
29827SOL    HW290060   1.706  -0.064   8.928  1.0868  0.6046 -0.7958
29828SOL     OW90061   8.519   5.130   2.048  0.0023  0.5574 -0.4434
29828SOL    HW190062   8.601   5.180   2.045  0.3936 -0.0610 -3.7538
29828SOL    HW290063   8.546   5.039   2.037 -0.9454 -0.1259  2.2144
29829SOL     OW90064   9.558   6.737   0.687  0.1631 -0.1998 -0.2482
29829SOL    HW190065   9.529   6.671   0.751  0.7648 -0.7474 -0.5286
29829SOL    HW290066   9.576   6.686   0.608 -1.1274  0.5448 -1.0487
29830SOL     OW90067   8.745   5.312   2.892  0.1360 -0.1690 -0.4847
29830SOL    HW190068   8.760   5.327   2.985 -0.0716 -0.7304 -0.3558
29830SOL    HW290069   8.790   5.384   2.848 -0.3998  0.5154  0.0765
29831SOL     OW90070   9.212   5.707   2.992 -0.2824  0.0580 -0.2369
29831SOL    HW190071   9.279   5.770   2.965 -0.9353  1.0306  0.3422
29831SOL    HW290072   9.261   5.635   3.031  0.5855 -0.5901 -2.3579
29832SOL     OW90073   9.685   6.275   9.784  0.8135  0.2481  0.2542
29832SOL    HW190074   9.623   6.347   9.801 -0.2182 -0.1548 -1.5771
29832SOL    HW290075   9.663   6.245   9.696  2.7219 -0.8529  0.1129
29833SOL     OW90076   3.719   8.375   1.529  0.0947 -0.3815  0.4837
29833SOL    HW190077   3.740   8.358   1.621 -1.6870 -0.8249  0.8474
29833SOL    HW290078   3.804   8.388   1.487  0.9637 -0.5070  2.1211
29834SOL     OW90079   5.777   1.056   3.359  0.3940 -0.2296 -0.6563
29834SOL    HW190080   5.757   1.149   3.351  0.1139 -0.1547  0.6948
29834SOL    HW290081   5.711   1.023   3.420 -0.0930 -1.5176 -1.8367
29835SOL     OW90082   7.033   3.553  -0.010  0.7191 -0.0309  0.3816
29835SOL    HW190083   7.092   3.479   0.004  0.7494  0.1410  1.2634
29835SOL    HW290084   6.955   3.531   0.040 -0.9377 -1.2852 -2.5137
29836SOL     OW90085   9.169   1.060   5.887  0.3656  0.3416  0.2598
29836SOL    HW190086   9.153   0.967   5.905  0.5821  0.2924  0.1934
29836SOL    HW290087   9.083   1.101   5.898 -0.2871 -0.2346 -2.1577
29837SOL     OW90088   2.906   8.648   7.812  0.2660  0.1995 -0.3069
29837SOL    HW190089   2.844   8.630   7.742 -1.8374  1.3842  1.1247
29837SOL    HW290090   2.990   8.660   7.768 -0.6612 -0.6019 -2.4233
29838SOL     OW90091   7.946   5.614   1.996  0.5986 -0.7996 -0.0775
29838SOL    HW190092   7.984   5.612   1.908 -1.4664 -0.0616 -1.0486
29838SOL    HW290093   7.936   5.522   2.020 -0.3386 -1.0513 -1.3300
29839SOL     OW90094   3.208   9.602   2.450  0.0751  0.2798  0.3079
29839SOL    HW190095   3.232   9.523   2.402 -0.3161 -2.1660  3.7266
29839SOL    HW290096   3.258   9.672   2.408  1.8719 -2.0661 -1.7751
29840SOL     OW90097   9.742   5.603   0.470  0.2353 -0.2710  0.3068
29840SOL    HW190098   9.667   5.549   0.493 -1.1954  1.3421 -0.3971
29840SOL    HW290099   9.788   5.616   0.553 -0.3098 -1.1988  0.7686
29841SOL     OW90100   4.026   0.385   4.847  0.2345 -0.5232  0.4375
29841SOL    HW190101   3.934   0.361   4.835 -0.1484 -0.2589  2.5358
29841SOL    HW290102   4.037   0.466   4.797 -0.3242 -1.1658 -0.7918
29842SOL     OW90103   5.192   3.054   7.986  0.3756  0.2781 -0.5237
29842SOL    HW190104   5.179   3.107   8.065  0.7363  0.2047 -0.4150
29842SOL    HW290105   5.214   2.967   8.018 -2.8760 -0.7407 -0.6268
29843SOL     OW90106   0.614   0.869   2.653  0.6249 -0.8576 -0.1168
29843SOL    HW190107   0.675   0.941   2.671  0.2992 -1.2631  3.3159
29843SOL    HW290108   0.655   0.820   2.581  1.9340  1.4943 -1.0729
29844SOL     OW90109   3.882   2.205   4.080  0.4426  0.1143  0.1461
29844SOL    HW190110   3.965   2.170   4.049  0.1680 -0.7581  0.3794
29844SOL    HW290111   3.845   2.249   4.003  0.5415 -0.5808 -0.3131
29845SOL     OW90112   5.838   2.669   8.941  0.3190 -0.1925  0.2655
29845SOL    HW190113   5.910   2.728   8.917  0.7161 -0.6138  0.4046
29845SOL    HW290114   5.796   2.712   9.015  2.0827 -1.2072  1.9205
29846SOL     OW90115   5.553   5.165   8.532  0.1960 -0.6171  0.5598
29846SOL    HW190116   5.621   5.216   8.576  0.2904 -0.6567  0.4603
29846SOL    HW290117   5.593   5.079   8.518 -0.3051 -1.0504  1.6416
29847SOL     OW90118   5.883   7.630   8.845 -0.2695 -0.7097  0.0315
29847SOL    HW190119   5.920   7.708   8.887 -2.1227 -0.0291  0.4887
29847SOL    HW290120   5.895   7.647   8.751 -2.0210  0.9313  0.0281
29848SOL     OW90121   5.349   9.078   5.470 -0.4022 -0.0146  0.2917
29848SOL    HW190122   5.341   9.048   5.379  0.3850  0.4307  0.0706
29848SOL    HW290123   5.314   9.005   5.522 -4.5501  1.1329 -0.4683
29849SOL     OW90124   8.733   7.930   8.444  0.5016 -0.3381  0.0708
29849SOL    HW190125   8.743   7.855   8.384 -1.2874 -0.1955 -0.4799
29849SOL    HW290126   8.669   7.900   8.509 -0.6662  0.8579 -0.4755
29850SOL     OW90127   1.648   1.003   7.292 -0.4753  0.3698  0.3977
29850SOL    HW190128   1.687   1.007   7.380  3.6316  3.4703 -1.2307
29850SOL    HW290129   1.683   0.921   7.255  0.5925  0.7095  0.6047
29851SOL     OW90130   3.543   4.025   2.457 -0.2159 -0.1559  0.2747
29851SOL    HW190131   3.527   3.970   2.533  0.1932  0.7772  1.0646
29851SOL    HW290132   3.458   4.030   2.413 -0.4074 -0.8818  0.5535
29852SOL     OW90133   4.991   2.659   4.964  0.3350  0.4260 -0.0513
29852SOL    HW190134   4.945   2.694   5.041  0.2501  0.9084 -0.3170
29852SOL    HW290135   5.043   2.586   4.998  0.5582  0.8500  0.5311
29853SOL     OW90136   9.331   1.704   8.099 -0.5280 -0.0671 -0.0535
29853SOL    HW190137   9.354   1.631   8.043  0.9201  0.7334 -0.5681
29853SOL    HW290138   9.295   1.664   8.179  0.8206 -1.3564 -0.0600
29854SOL     OW90139   1.649   2.367   7.410 -0.0356 -0.5863  0.0632
29854SOL    HW190140   1.708   2.441   7.396 -1.2360 -0.2268 -5.1050
29854SOL    HW290141   1.696   2.292   7.374 -1.0837 -1.1052 -0.2584
29855SOL     OW90142   3.932   3.837   8.577 -0.3202  0.3379 -0.5099
29855SOL    HW190143   3.965   3.910   8.524  0.7473  0.9518  0.9201
29855SOL    HW290144   3.997   3.828   8.647 -2.2872  0.4127  1.4267
29856SOL     OW90145   1.727   9.559   4.664 -0.2999  0.0799 -0.3249
29856SOL    HW190146   1.649   9.504   4.672 -0.4014  0.2635 -0.0845
29856SOL    HW290147   1.696   9.639   4.621 -0.2531  0.1758 -0.1779
29857SOL     OW90148   1.406   9.861   8.872  0.0365  0.4122  0.2815
29857SOL    HW190149   1.333   9.893   8.924  0.3705  0.3132  0.8230
29857SOL    HW290150   1.484   9.888   8.921  0.3351 -0.6018  0.3822
29858SOL     OW90151   4.378   6.471   4.316 -0.7114 -0.4345  0.3353
29858SOL    HW190152   4.367   6.442   4.406 -2.3904 -0.8020  0.0499
29858SOL    HW290153   4.439   6.408   4.277  0.0882 -0.2179  1.2157
29859SOL     OW90154   9.540   9.170   0.730  0.0210 -0.7822  0.0777
29859SOL    HW190155   9.547   9.162   0.635 -2.3834  0.5933 -0.2989
29859SOL    HW290156   9.498   9.089   0.758 -1.0450 -0.3882 -0.3273
29860SOL     OW90157   5.489   0.712   6.428  0.0048 -0.2796  0.5812
29860SOL    HW190158   5.442   0.786   6.391  1.5589 -0.2308 -1.5246
29860SOL    HW290159   5.568   0.750   6.467  0.6264 -0.7504 -0.1775
29861SOL     OW90160   5.014   8.876   7.111  0.3317 -0.0936 -0.2843
29861SOL    HW190161   5.083   8.934   7.079  0.2235 -0.3697 -1.0360
29861SOL    HW290162   4.953   8.869   7.038 -0.1114 -0.4546  0.1124
29862SOL     OW90163   6.685   2.838   7.150 -0.0394 -0.2414  0.1115
29862SOL    HW190164   6.736   2.881   7.081 -0.2302 -1.2026 -0.6372
29862SOL    HW290165   6.727   2.867   7.231  0.4867  0.5250 -0.4150
29863SOL     OW90166   0.497   7.051   7.749  0.2876  0.1626  0.9504
29863SOL    HW190167   0.531   6.962   7.755 -0.5714 -0.1559  1.3068
29863SOL    HW290168   0.458   7.067   7.836  0.2447  0.7975  0.8166
29864SOL     OW90169   3.945   7.791   6.787 -0.3065 -0.2546  0.4835
29864SOL    HW190170   3.854   7.796   6.815 -0.6729  0.7751 -0.8050
29864SOL    HW290171   3.955   7.862   6.724  1.3915 -0.3559  0.5887
29865SOL     OW90172   7.035   7.174   8.994 -0.4998 -0.2530  0.3422
29865SOL    HW190173   7.114   7.199   8.945 -1.3739  1.3995 -0.3388
29865SOL    HW290174   7.058   7.188   9.086 -0.2929  1.2880  0.0935
29866SOL     OW90175   0.579   4.693   1.278 -0.3303  0.0761 -0.1723
29866SOL    HW190176   0.571   4.699   1.373 -0.8599 -0.2355 -0.1898
29866SOL    HW290177   0.508   4.749   1.245 -0.7262 -0.5264 -0.3683
29867SOL     OW90178   9.037   6.242   8.061 -0.1925  0.3747  0.1706
29867SOL    HW190179   8.947   6.248   8.093 -0.5929  0.4216 -0.9347
29867SOL    HW290180   9.089   6.289   8.126 -1.0506  0.9130  0.4795
29868SOL     OW90181   0.378   8.324   0.831  0.4550 -0.3804 -0.1909
29868SOL    HW190182   0.376   8.362   0.743  0.1092 -0.7568 -0.3495
29868SOL    HW290183   0.447   8.258   0.827  2.0530  1.1551  0.4877
29869SOL     OW90184   1.327   6.407   7.401 -0.4867 -0.1994  0.2281
29869SOL    HW190185   1.339   6.372   7.313  0.2476  0.9255 -0.1345
29869SOL    HW290186   1.273   6.486   7.388  1.4907  1.2643  0.4706
29870SOL     OW90187   9.610   4.073   6.810 -0.0875 -0.3389  0.0536
29870SOL    HW190188   9.652   4.072   6.896  0.7489 -1.0291 -0.3518
29870SOL    HW290189   9.527   4.119   6.824  0.5138  0.4827  1.0060
29871SOL     OW90190   5.174   8.839   0.541 -0.1088 -0.3335 -0.3428
29871SOL    HW190191   5.269   8.837   0.528 -0.2074  0.0551 -1.1732
29871SOL    HW290192   5.158   8.919   0.590 -0.2061  0.7594 -2.0763
29872SOL     OW90193   3.077   5.447   9.480  0.1706 -0.1597 -0.5327
29872SOL    HW190194   3.004   5.492   9.524 -0.6897 -0.7870 -1.2648
29872SOL    HW290195   3.148   5.511   9.480 -1.2033  1.5072 -2.1102
29873SOL     OW90196   1.127   6.419   6.554  0.0092  0.3935  0.2607
29873SOL    HW190197   1.067   6.385   6.620 -1.2123 -1.8196 -1.8318
29873SOL    HW290198   1.193   6.351   6.544  0.8564  1.2300  0.0481
29874SOL     OW90199   3.384   9.875   3.845  0.0131 -0.1851 -0.1935
29874SOL    HW190200   3.425   9.925   3.916  0.7012 -0.4879 -0.3695
29874SOL    HW290201   3.347   9.942   3.787  0.2275  0.0913 -0.0150
29875SOL     OW90202   6.553   9.236   8.213 -0.8265 -0.0695 -0.3508
29875SOL    HW190203   6.546   9.272   8.301  1.4840  0.3934 -0.2789
29875SOL    HW290204   6.549   9.312   8.155 -1.7788 -0.3152 -0.6214
29876SOL     OW90205   4.426   6.894   8.618  0.1723 -0.5201 -0.8652
29876SOL    HW190206   4.418   6.881   8.524  0.7454 -1.9063 -0.7436
29876SOL    HW290207   4.506   6.847   8.642  0.6015  0.6817  0.1564
29877SOL     OW90208   6.903   6.491   7.748 -0.2018  0.2371  0.1319
29877SOL    HW190209   6.974   6.449   7.798  0.0131  1.0975  0.5746
29877SOL    HW290210   6.913   6.457   7.660 -0.6003 -1.3319  0.6628
29878SOL     OW90211   7.220   0.752   6.542  0.2863  0.3982 -0.1294
29878SOL    HW190212   7.211   0.841   6.576  0.4873  0.0369  0.8982
29878SOL    HW290213   7.315   0.736   6.544  0.3428  0.4956 -1.2288
29879SOL     OW90214   1.957   0.222   7.395  0.9055  0.2662  0.4364
29879SOL    HW190215   2.021   0.160   7.429 -0.6464 -2.2258 -0.8364
29879SOL    HW290216   1.886   0.221   7.459  0.2773 -0.3995 -0.2404
29880SOL     OW90217   2.160   6.645   2.278 -0.3128  0.9760 -0.6813
29880SOL    HW190218   2.189   6.585   2.347 -1.0798 -0.5191 -1.6111
29880SOL    HW290219   2.073   6.613   2.254 -0.3665  1.9246 -1.8252
29881SOL     OW90220   4.066   6.436   0.600  0.2182 -0.2429 -0.6535
29881SOL    HW190221   4.141   6.376   0.604  0.9634  0.7187  0.4878
29881SOL    HW290222   4.013   6.414   0.677  0.4865  0.5245 -0.2374
29882SOL     OW90223   5.029   1.494   7.092  0.3943  0.1495  0.4940
29882SOL    HW190224   4.995   1.578   7.121  2.4686  0.7697  1.3582
29882SOL    HW290225   5.004   1.489   6.999 -0.5496  1.2750  0.6612
29883SOL     OW90226   7.508   2.170   4.044 -0.2272 -0.1435 -0.4310
29883SOL    HW190227   7.418   2.138   4.053 -0.4968  0.4843 -0.8843
29883SOL    HW290228   7.504   2.261   4.072  0.0132  0.2470 -1.6224
29884SOL     OW90229   6.837   9.796   1.110 -0.0020 -0.2784 -0.1586
29884SOL    HW190230   6.863   9.795   1.202 -0.9618  1.5842  0.1655
29884SOL    HW290231   6.818   9.704   1.090  3.0880 -1.2079  0.5865
29885SOL     OW90232   4.152   6.073   8.233  0.6872  0.0811 -0.3135
29885SOL    HW190233   4.186   6.137   8.294  0.7027  0.3634 -0.6126
29885SOL    HW290234   4.059   6.094   8.224  0.5693 -0.2895  0.0156
29886SOL     OW90235   0.369   0.863   4.247  0.1832  0.0326 -0.7999
29886SOL    HW190236   0.276   0.840   4.242  0.7630 -3.6063  1.4657
29886SOL    HW290237   0.395   0.873   4.155 -2.5215  2.0562 -1.4870
29887SOL     OW90238   0.922   3.711   2.251  0.6847 -0.1247 -0.4467
29887SOL    HW190239   0.941   3.749   2.337  0.4945 -1.7930  0.3816
29887SOL    HW290240   0.844   3.758   2.221 -0.3238 -0.7025  1.1234
29888SOL     OW90241   0.002   9.769   9.279 -0.1982 -0.2788 -0.6657
29888SOL    HW190242   0.034   9.750   9.191 -0.2992  0.9116 -0.9657
29888SOL    HW290243   0.019   9.862   9.292 -0.5889 -0.3405  0.4055
29889SOL     OW90244   4.312   5.039   4.926  0.0579 -0.2036 -0.2783
29889SOL    HW190245   4.221   5.047   4.896 -0.1132  0.2002  0.3156
29889SOL    HW290246   4.335   5.128   4.953  1.0175 -0.0591 -1.4873
29890SOL     OW90247   8.622   0.199   0.745 -0.2830 -0.3316  0.1733
29890SOL    HW190248   8.696   0.143   0.725  2.3794  2.2496  1.9473
29890SOL    HW290249   8.562   0.144   0.796 -0.0704 -2.6977 -1.9518
29891SOL     OW90250   7.446   9.335   7.065  0.0635 -0.4073 -0.0696
29891SOL    HW190251   7.459   9.241   7.053  2.8385 -0.1262  0.0399
29891SOL    HW290252   7.522   9.375   7.023  0.1922  1.6401  1.9337
29892SOL     OW90253   6.296   8.442   8.001 -0.1675  0.3310  0.0597
29892SOL    HW190254   6.308   8.537   8.003 -0.9653  0.4306  0.7361
29892SOL    HW290255   6.355   8.412   7.932 -0.7557  1.4517 -0.9852
29893SOL     OW90256   9.121   7.479   5.509  0.1174 -0.1617  0.3369
29893SOL    HW190257   9.190   7.455   5.447  0.3517  1.2328  0.0184
29893SOL    HW290258   9.039   7.456   5.465  0.2360  1.6244 -0.9182
29894SOL     OW90259   2.125   0.128   8.838  0.5954  0.3727  0.2252
29894SOL    HW190260   2.162   0.083   8.762 -0.3819  0.6254 -0.4232
29894SOL    HW290261   2.190   0.116   8.907  0.5075 -1.7990  0.0079
29895SOL     OW90262   8.218   1.977   0.094 -0.4502 -0.1065 -0.0594
29895SOL    HW190263   8.169   1.921   0.034 -1.2295  0.9769 -0.4602
29895SOL    HW290264   8.218   1.930   0.177 -1.2145 -0.6316 -0.3543
29896SOL     OW90265   8.073   9.017   5.907 -0.1675 -0.6731  0.1726
29896SOL    HW190266   7.986   8.981   5.926 -0.2683 -1.1490 -1.1171
29896SOL    HW290267   8.064   9.058   5.821  0.7573 -0.2707  0.2591
29897SOL     OW90268   0.168   5.820   9.589 -0.0971 -0.5286  0.0381
29897SOL    HW190269   0.163   5.768   9.669  0.7638  2.6470  2.3275
29897SOL    HW290270   0.079   5.815   9.552 -0.9269 -0.9485  1.9514
29898SOL     OW90271   0.746   3.018   9.767  0.5868  0.4105 -0.0445
29898SOL    HW190272   0.812   2.987   9.706  2.3605  2.3232  0.7811
29898SOL    HW290273   0.727   2.942   9.822  2.0804 -0.2125 -0.3371
29899SOL     OW90274   2.709   5.923   0.945 -0.2515  0.2042 -0.3800
29899SOL    HW190275   2.688   5.941   0.853  0.2648  1.3497 -0.2801
29899SOL    HW290276   2.649   5.852   0.969 -0.8666  0.3558 -1.4065
29900SOL     OW90277   9.634   9.243   7.321  0.2457  0.3626  0.0740
29900SOL    HW190278   9.542   9.252   7.298  0.1080 -0.1805  0.3879
29900SOL    HW290279   9.665   9.171   7.265  0.3647  0.2536  0.2783
29901SOL     OW90280   4.480   0.546   4.914  0.1525 -0.2876 -0.1128
29901SOL    HW190281   4.561   0.596   4.916  0.3480 -0.5706 -0.9966
29901SOL    HW290282   4.494   0.477   4.850 -0.6740 -0.5389 -0.0462
29902SOL     OW90283   1.288   0.548   5.776  0.4273  0.0357  0.2885
29902SOL    HW190284   1.273   0.511   5.689  3.6200  1.0426 -0.8458
29902SOL    HW290285   1.218   0.612   5.787  0.3690  0.4253 -1.9178
29903SOL     OW90286   0.962   3.039   7.070  0.3635  0.3624  0.4900
29903SOL    HW190287   0.895   2.971   7.079 -0.9829  1.4173 -0.9519
29903SOL    HW290288   1.024   3.004   7.006  0.7616 -0.2960  1.2304
29904SOL     OW90289   3.143   1.233   6.319 -0.0124  0.3104  0.3929
29904SOL    HW190290   3.089   1.159   6.293 -0.7514  1.7352 -2.5152
29904SOL    HW290291   3.084   1.292   6.365  0.6437 -0.8854  2.9937
29905SOL     OW90292   1.110   7.717   6.704  0.0765  0.2521 -0.0819
29905SOL    HW190293   1.140   7.788   6.761  1.4078 -0.7822  0.5567
29905SOL    HW290294   1.073   7.652   6.764 -1.4075  0.5000 -0.6821
29906SOL     OW90295   4.969   3.548   8.144  0.4235 -0.1676  0.7071
29906SOL    HW190296   5.020   3.606   8.087 -0.6910  0.1041 -0.0482
29906SOL    HW290297   5.007   3.561   8.231  1.1924  0.5360  0.2856
29907SOL     OW90298   5.807   4.682   4.635 -0.4747  0.1437 -0.1047
29907SOL    HW190299   5.777   4.757   4.584  0.0132  0.1188 -0.4379
29907SOL    HW290300   5.728   4.646   4.675 -0.8226  0.3281 -0.6234
29908SOL     OW90301   8.712   8.622   4.758  0.1846 -0.1132 -0.4245
29908SOL    HW190302   8.728   8.528   4.744 -1.6068 -0.3631 -1.0424
29908SOL    HW290303   8.620   8.627   4.782  0.4468  1.4408  0.3422
29909SOL     OW90304   7.370   8.866   5.665  0.1838  0.1055 -0.5293
29909SOL    HW190305   7.354   8.792   5.607  1.8533  0.6734 -1.7865
29909SOL    HW290306   7.462   8.858   5.689  0.1024  1.1726  0.1881
29910SOL     OW90307   3.945   0.898   0.925  0.2143  0.0787 -0.4397
29910SOL    HW190308   3.988   0.973   0.967 -0.9259  0.5808 -0.1180
29910SOL    HW290309   3.852   0.918   0.932 -0.0768 -1.0343 -1.0115
29911SOL     OW90310   3.136   0.194   6.564  0.2057  0.2429 -0.0509
29911SOL    HW190311   3.231   0.181   6.567  0.0012 -1.3215  0.9951
29911SOL    HW290312   3.104   0.157   6.646 -1.3957 -0.0724 -0.7755
29912SOL     OW90313   6.447   5.293   9.162  0.7353  0.5730 -0.2236
29912SOL    HW190314   6.504   5.340   9.101  1.7257 -0.2020  0.0661
29912SOL    HW290315   6.362   5.336   9.154  1.3181  1.6644 -0.7888
29913SOL     OW90316   1.967   3.895   9.525 -0.1656  0.7679 -0.1436
29913SOL    HW190317   1.963   3.880   9.431 -2.2558  1.1382 -0.1468
29913SOL    HW290318   2.004   3.983   9.532  3.3009 -0.5073 -0.4149
29914SOL     OW90319   7.491   5.431   8.937  0.1671 -0.4407 -0.7986
29914SOL    HW190320   7.484   5.398   8.848 -0.3020  0.9216 -1.2946
29914SOL    HW290321   7.464   5.523   8.931  1.4018  0.0536  0.5032
29915SOL     OW90322   6.954   4.200   3.803 -0.1201 -0.0342  0.0361
29915SOL    HW190323   7.047   4.178   3.810  0.3675  0.1449 -3.6811
29915SOL    HW290324   6.911   4.118   3.780 -0.7129  0.0828  0.7163
29916SOL     OW90325   4.960   8.166   2.020  0.3891 -0.0480 -0.3841
29916SOL    HW190326   4.873   8.154   2.059  1.4732 -1.1578  1.8840
29916SOL    HW290327   4.969   8.260   2.011 -1.1631  0.0793 -0.9815
29917SOL     OW90328   0.749   4.527   3.128  0.0850  0.1221  0.1368
29917SOL    HW190329   0.715   4.595   3.070  0.0635 -0.5448 -0.6429
29917SOL    HW290330   0.806   4.574   3.189  0.2447  0.8101 -0.5330
29918SOL     OW90331   7.155   1.981   1.462  0.0403 -0.2175 -0.5115
29918SOL    HW190332   7.102   1.963   1.540  1.1006 -0.1396  0.2537
29918SOL    HW290333   7.243   1.953   1.486  0.4342  0.0255 -1.6134
29919SOL     OW90334   9.484   3.131   3.621 -0.6610 -0.0399  0.7330
29919SOL    HW190335   9.437   3.180   3.553 -0.7639 -1.3645 -0.1902
29919SOL    HW290336   9.572   3.169   3.621 -0.4751 -0.3985 -0.5910
29920SOL     OW90337   8.752   4.352   9.753  0.1057 -0.2046  0.1362
29920SOL    HW190338   8.762   4.267   9.798 -0.2826 -0.1606  0.3078
29920SOL    HW290339   8.695   4.334   9.679 -0.3641  0.0046  0.4456
29921SOL     OW90340   1.445   6.775   6.212  0.1901  0.4337  0.2498
29921SOL    HW190341   1.370   6.805   6.162  0.5721  0.1239 -0.5168
29921SOL    HW290342   1.411   6.761   6.301 -0.6512  0.2778 -0.0956
29922SOL     OW90343   7.508   0.130   2.167  0.1089 -0.2605 -0.1836
29922SOL    HW190344   7.567   0.198   2.200 -0.3262  0.5861 -1.0856
29922SOL    HW290345   7.534   0.051   2.213 -0.3734  0.8026  2.0301
29923SOL     OW90346   5.550   2.411   4.528 -0.1553  0.4302  0.4467
29923SOL    HW190347   5.571   2.504   4.533  0.0583  0.3788  0.5096
29923SOL    HW290348   5.526   2.397   4.436 -1.6308  0.8521  0.7385
29924SOL     OW90349   9.924   6.741   9.738 -0.1978 -0.3144 -0.0298
29924SOL    HW190350   9.870   6.811   9.702  0.2540 -0.5795 -1.2580
29924SOL    HW290351   9.899   6.738   9.831 -0.6354  1.0731 -0.0728
29925SOL     OW90352   3.365   0.364   0.787 -0.2166 -0.4492  0.5077
29925SOL    HW190353   3.373   0.405   0.701 -1.1557 -0.5958  0.3411
29925SOL    HW290354   3.427   0.412   0.842  1.1109 -0.9889 -0.4628
29926SOL     OW90355   0.488   7.303   0.163  0.6683 -0.1570  0.0604
29926SOL    HW190356   0.459   7.217   0.133 -0.0735  0.6602 -1.7137
29926SOL    HW290357   0.558   7.327   0.101  0.9848  0.4493  0.6401
29927SOL     OW90358   8.871   4.320   0.198  0.4487  0.2511 -0.3398
29927SOL    HW190359   8.800   4.291   0.142 -0.1163  0.7133  0.1291
29927SOL    HW290360   8.929   4.244   0.204 -0.5621 -0.5095  0.1530
29928SOL     OW90361   3.565   6.533   8.816  0.6016 -0.0099  0.0985
29928SOL    HW190362   3.564   6.438   8.829  0.1722 -0.0392 -0.1283
29928SOL    HW290363   3.644   6.562   8.862 -0.5994 -0.1592  2.4013
29929SOL     OW90364   1.782   8.737   4.044  0.0924  0.2646  0.3864
29929SOL    HW190365   1.785   8.783   3.961 -0.5116  1.2095  0.8643
29929SOL    HW290366   1.697   8.694   4.045  0.2579 -0.0604  0.3470
29930SOL     OW90367   6.911   6.562   3.509  0.2190 -0.0322  0.2951
29930SOL    HW190368   6.951   6.649   3.514 -1.3022  0.8371 -1.3523
29930SOL    HW290369   6.981   6.505   3.479  0.7944  1.0025 -0.3914
29931SOL     OW90370   9.443   2.156   8.941 -0.2256  0.1616 -0.0548
29931SOL    HW190371   9.374   2.195   8.995 -0.3409  0.1838 -0.2194
29931SOL    HW290372   9.519   2.151   9.000 -0.8564 -1.4915  0.6906
29932SOL     OW90373   5.175   0.131   6.725  0.0306  0.0267 -0.1972
29932SOL    HW190374   5.151   0.039   6.731  1.0502 -0.1830  0.8484
29932SOL    HW290375   5.092   0.178   6.735 -0.1967 -0.7182  1.8131
29933SOL     OW90376   3.431   3.758   4.515 -0.5405  0.0551 -0.5908
29933SOL    HW190377   3.512   3.714   4.540 -1.4726 -1.0303  0.6429
29933SOL    HW290378   3.367   3.730   4.580 -1.8098  1.2366 -1.2796
29934SOL     OW90379   7.512   2.197   8.721  0.0683 -0.3284  0.1537
29934SOL    HW190380   7.572   2.272   8.720  2.5662 -2.2140 -1.1527
29934SOL    HW290381   7.436   2.229   8.769  1.6100  2.5733  0.9271
29935SOL     OW90382   0.687   2.372   0.549 -0.1404  0.0664 -0.2844
29935SOL    HW190383   0.627   2.319   0.497  0.5372 -0.2279 -0.7898
29935SOL    HW290384   0.772   2.363   0.505  0.1419  1.0018  0.0347
29936SOL     OW90385   5.034   2.644   1.320  0.3731 -0.0199  0.1370
29936SOL    HW190386   5.098   2.713   1.337  0.4316 -0.1763  0.5505
29936SOL    HW290387   4.967   2.686   1.266 -1.2773  1.2984  2.9729
29937SOL     OW90388   8.236   2.347   5.861 -0.2887 -0.4195 -0.3285
29937SOL    HW190389   8.279   2.334   5.776 -0.0460 -0.8325 -0.1434
29937SOL    HW290390   8.143   2.354   5.839 -0.4753 -2.5656 -0.4620
29938SOL     OW90391   2.171   6.058   2.207 -0.2601 -0.1730 -0.3716
29938SOL    HW190392   2.104   6.008   2.160  0.1546 -0.6574 -0.4532
29938SOL    HW290393   2.219   6.105   2.139  0.6409 -1.2345 -0.5056
29939SOL     OW90394   0.644   1.902   2.367  0.1409  0.8156 -0.1910
29939SOL    HW190395   0.613   1.824   2.321  2.7282 -1.4004  1.5073
29939SOL    HW290396   0.685   1.868   2.446 -0.1228  4.1008  1.4939
29940SOL     OW90397   0.715   3.780   8.348 -0.2569  0.0462  0.2083
29940SOL    HW190398   0.799   3.816   8.376 -0.4864  0.8253 -0.0883
29940SOL    HW290399   0.670   3.854   8.307 -1.5942 -0.0440  1.4615
29941SOL     OW90400   0.259   6.666   9.067  0.1938  0.0591 -0.3098
29941SOL    HW190401   0.352   6.655   9.087  0.3529  2.8561  0.8444
29941SOL    HW290402   0.214   6.640   9.148  0.1479  1.1253  0.0134
29942SOL     OW90403   9.521   5.202   0.538  0.1662  0.0727 -0.1233
29942SOL    HW190404   9.598   5.191   0.482  0.3767  0.3483  0.1067
29942SOL    HW290405   9.542   5.278   0.592  0.8900 -1.4598  1.8755
29943SOL     OW90406   0.266   0.632   6.633  0.9036 -0.2565 -0.2771
29943SOL    HW190407   0.327   0.605   6.702  0.9870 -0.6890 -0.5157
29943SOL    HW290408   0.190   0.666   6.681  0.9536 -0.5685  0.0300
29944SOL     OW90409   2.567   1.565   1.453 -0.0642 -0.5432  0.1647
29944SOL    HW190410   2.518   1.639   1.417  0.3706 -0.0383  0.5869
29944SOL    HW290411   2.501   1.504   1.483 -0.4918  0.8063  2.1644
29945SOL     OW90412   3.751   1.690   4.829  0.1885 -0.4837 -0.4815
29945SOL    HW190413   3.750   1.621   4.762 -1.2625 -1.8715  0.8551
29945SOL    HW290414   3.837   1.731   4.821  0.0167 -0.4822 -3.2510
29946SOL     OW90415   7.386   3.737   4.922  0.8129 -0.4692  0.1252
29946SOL    HW190416   7.433   3.764   4.843  1.3407 -1.6197  0.0229
29946SOL    HW290417   7.393   3.811   4.981  1.2396  0.0420 -0.5512
29947SOL     OW90418   3.817   8.702   1.950 -0.0463  0.0248 -0.1618
29947SOL    HW190419   3.818   8.664   2.038 -0.3619  1.5165  0.5361
29947SOL    HW290420   3.727   8.730   1.937  0.1265  0.3278 -0.7203
29948SOL     OW90421   7.285   1.839   7.007 -0.6033 -0.0446  0.2015
29948SOL    HW190422   7.241   1.918   7.039 -0.2247  0.3912 -0.3245
29948SOL    HW290423   7.220   1.798   6.950 -0.3481  0.6169 -0.6017
29949SOL     OW90424   0.732   0.172   0.455  0.4069 -0.0249  0.0778
29949SOL    HW190425   0.677   0.124   0.392 -1.9195  1.2207  1.0354
29949SOL    HW290426   0.809   0.198   0.405 -0.0155 -1.5460 -1.4515
29950SOL     OW90427   3.155   8.234   1.221  0.7560  0.3528 -0.2026
29950SOL    HW190428   3.108   8.196   1.295 -1.0763 -0.7263 -1.8254
29950SOL    HW290429   3.114   8.196   1.144  1.3948  2.7538 -1.8657
29951SOL     OW90430   3.295   9.002   3.955 -1.3643  0.6370  0.0679
29951SOL    HW190431   3.260   9.044   3.877  0.1723 -1.1746 -1.7192
29951SOL    HW290432   3.278   8.909   3.942  0.1396  0.1544  1.2139
29952SOL     OW90433   2.196   6.896   7.394 -0.2533  0.5647 -0.0091
29952SOL    HW190434   2.134   6.901   7.467 -2.3515 -1.2635 -1.5290
29952SOL    HW290435   2.196   6.985   7.357  0.1372  1.2713  1.6021
29953SOL     OW90436   3.140   7.092   6.868  0.5549  0.8079  0.5975
29953SOL    HW190437   3.229   7.103   6.901  0.1600 -0.7374  2.3331
29953SOL    HW290438   3.112   7.180   6.845  2.1994  1.4465  0.8579
29954SOL     OW90439   2.679   3.371   0.777  0.4818  0.0353 -0.2762
29954SOL    HW190440   2.603   3.422   0.801 -0.6167 -1.9941  0.8637
29954SOL    HW290441   2.746   3.395   0.841  0.4452  1.0109 -0.5955
29955SOL     OW90442   3.017   3.670   7.383 -0.1853  0.1214  0.5090
29955SOL    HW190443   2.955   3.621   7.437  0.6283 -3.5129 -1.5833
29955SOL    HW290444   3.100   3.663   7.430 -0.3570  0.9217  0.9609
29956SOL     OW90445   9.277   8.579   8.102 -0.2518 -0.0780  0.4451
29956SOL    HW190446   9.357   8.547   8.143 -1.0252  0.1382  2.2159
29956SOL    HW290447   9.226   8.500   8.084 -0.2645 -0.1148  0.6480
29957SOL     OW90448   0.792   6.232   8.064  0.3162  0.2308 -0.5168
29957SOL    HW190449   0.760   6.168   8.001 -0.7230 -1.8009  1.8797
29957SOL    HW290450   0.861   6.279   8.018  0.9112 -2.3944 -2.5471
29958SOL     OW90451   6.021   6.938   6.560 -0.3616 -0.3217 -0.3105
29958SOL    HW190452   6.075   6.982   6.626 -0.4470 -0.4095 -0.1831
29958SOL    HW290453   5.931   6.965   6.581 -0.2240  1.3762 -1.6647
29959SOL     OW90454   5.120   3.471   7.604  0.7084 -0.4889  0.4270
29959SOL    HW190455   5.087   3.551   7.645  0.5257 -1.0438  1.3893
29959SOL    HW290456   5.205   3.456   7.645  1.9046  0.5543 -1.5467
29960SOL     OW90457   5.993   4.749   6.136 -0.1869 -0.0008 -0.2884
29960SOL    HW190458   5.966   4.683   6.200 -1.9879 -0.5733 -1.5540
29960SOL    HW290459   6.059   4.704   6.082 -0.3447 -0.2787 -0.2516
29961SOL     OW90460   9.659   2.578   3.298  0.3596  0.4884  0.2875
29961SOL    HW190461   9.709   2.657   3.275  2.6374 -0.9786 -0.0614
29961SOL    HW290462   9.698   2.508   3.246 -0.8761 -1.1073  1.3957
29962SOL     OW90463   8.698   3.959   5.668 -0.7213  0.1649  0.4679
29962SOL    HW190464   8.700   3.865   5.655 -1.8085  0.3042 -0.9935
29962SOL    HW290465   8.750   3.995   5.596 -1.8373  0.7428 -0.0759
29963SOL     OW90466   3.002   4.063   7.151 -0.1601  0.2242 -0.0232
29963SOL    HW190467   3.047   4.148   7.154 -0.5782  0.4339  0.4770
29963SOL    HW290468   3.056   4.006   7.206  1.5480 -0.5622 -2.3595
29964SOL     OW90469   3.997   2.933   9.772 -0.2269 -0.1889 -0.0128
29964SOL    HW190470   3.993   3.022   9.736 -0.2477 -0.2021 -0.0443
29964SOL    HW290471   4.046   2.942   9.854 -1.9711  0.1916  1.0310
29965SOL     OW90472   1.950   4.978   0.241 -0.2259 -0.2763  0.0583
29965SOL    HW190473   1.882   5.044   0.233  0.2459  0.1396 -0.7840
29965SOL    HW290474   2.011   4.998   0.169  0.6592 -0.7685  0.6448
29966SOL     OW90475   7.973   5.887   8.062 -0.2908 -0.0930 -0.3861
29966SOL    HW190476   8.002   5.961   8.008 -1.1104  0.7512  0.3130
29966SOL    HW290477   7.939   5.824   7.998  2.0523 -0.6881 -1.1562
29967SOL     OW90478   9.429   8.509   7.792  0.1082  0.5457  0.6448
29967SOL    HW190479   9.467   8.563   7.862 -4.3192  2.3934  1.9252
29967SOL    HW290480   9.423   8.568   7.717  1.0446 -0.1906 -0.0349
29968SOL     OW90481   1.440   2.685   3.180  1.0242 -0.2144 -0.3367
29968SOL    HW190482   1.509   2.640   3.229  1.1586  1.0087  0.6256
29968SOL    HW290483   1.359   2.650   3.216  1.1010 -1.5733 -1.3932
29969SOL     OW90484   6.759   6.394   0.110 -0.0631  0.1769  0.4592
29969SOL    HW190485   6.773   6.306   0.076 -0.7649 -0.0173  0.6398
29969SOL    HW290486   6.757   6.383   0.205 -0.0512  0.4017  0.4873
29970SOL     OW90487   5.342   0.905   6.268  0.5586  0.4715 -0.4577
29970SOL    HW190488   5.373   0.993   6.287  0.3231  0.5791 -0.5665
29970SOL    HW290489   5.304   0.911   6.180  0.2760  0.3294 -0.3478
29971SOL     OW90490   5.402   5.995   3.463  0.0617  0.1110 -0.0148
29971SOL    HW190491   5.330   5.932   3.469  2.3003 -2.5640  0.2978
29971SOL    HW290492   5.410   6.013   3.370 -1.3121  0.8779 -0.0138
29972SOL     OW90493   3.495   0.899   9.536  0.4757 -0.3720  0.1370
29972SOL    HW190494   3.411   0.854   9.545 -0.4294  0.5903 -2.5901
29972SOL    HW290495   3.538   0.855   9.463  0.2300  2.1344 -1.6104
29973SOL     OW90496   3.246   1.836   5.608  0.4314 -0.0250  0.8393
29973SOL    HW190497   3.195   1.813   5.530 -1.2632  4.8233  0.1896
29973SOL    HW290498   3.316   1.770   5.611 -2.8144 -3.9828 -1.2003
29974SOL     OW90499   4.867   5.495   9.010 -0.0772 -0.2315 -0.1976
29974SOL    HW190500   4.853   5.564   8.945 -0.7832 -0.2177 -0.0308
29974SOL    HW290501   4.958   5.467   8.995 -0.8496 -1.7188 -2.6646
29975SOL     OW90502   0.689   3.482   2.648  0.2644  0.7729 -0.4455
29975SOL    HW190503   0.618   3.526   2.601 -0.3104 -1.0385 -1.3456
29975SOL    HW290504   0.752   3.459   2.580 -0.5656 -1.8600 -0.4332
29976SOL     OW90505   3.680   5.086   6.759 -0.5691  0.0328  0.1136
29976SOL    HW190506   3.664   5.049   6.846  2.1548 -2.0080 -0.1292
29976SOL    HW290507   3.693   5.010   6.703 -1.7307  1.3242 -2.0343
29977SOL     OW90508   1.567   7.632   3.313 -0.2275 -0.3542 -0.1000
29977SOL    HW190509   1.590   7.721   3.284 -0.1494 -0.5944 -0.7980
29977SOL    HW290510   1.482   7.615   3.273 -0.2793 -0.5653  0.1010
29978SOL     OW90511   1.693   0.179  -0.008 -0.1219  0.4440  0.0850
29978SOL    HW190512   1.624   0.147  -0.066  0.4526 -2.3690  0.7955
29978SOL    HW290513   1.653   0.179   0.079  0.7005 -1.2190  0.5059
29979SOL     OW90514   6.163   6.418   5.670  0.3429  0.2598 -0.6423
29979SOL    HW190515   6.107   6.450   5.599  1.1000  1.8204 -0.5942
29979SOL    HW290516   6.237   6.479   5.670  0.9130 -0.4026  0.7632
29980SOL     OW90517   1.882   9.719   3.532 -0.7305 -0.5191 -0.2003
29980SOL    HW190518   1.961   9.669   3.513 -1.2830 -0.9060 -1.5395
29980SOL    HW290519   1.862   9.766   3.451 -3.1649 -2.2107 -0.6805
29981SOL     OW90520   8.895   8.094   7.085 -0.1533  1.0319 -0.0251
29981SOL    HW190521   8.981   8.085   7.126 -0.8707  1.3852  1.6413
29981SOL    HW290522   8.876   8.188   7.090  0.1248  1.2659 -2.1129
29982SOL     OW90523   3.836   8.637   5.211 -0.0725 -0.2617 -0.8522
29982SOL    HW190524   3.844   8.732   5.205  1.2538 -0.3465 -0.6265
29982SOL    HW290525   3.913   8.603   5.165 -0.9895 -1.2570 -1.7074
29983SOL     OW90526   1.772   6.270   9.609 -0.2778 -0.1502 -0.1642
29983SOL    HW190527   1.777   6.322   9.689  0.5423  0.6867 -0.7453
29983SOL    HW290528   1.852   6.292   9.561 -0.0286 -1.7559 -0.5424
29984SOL     OW90529   5.648   4.844   8.132 -0.0222 -0.1026  0.3545
29984SOL    HW190530   5.664   4.782   8.203  0.5479  0.2995  0.5831
29984SOL    HW290531   5.553   4.846   8.123 -0.1003 -0.1928  1.0766
29985SOL     OW90532   3.339   8.096   5.963 -0.1402 -0.5429 -0.4264
29985SOL    HW190533   3.432   8.085   5.982 -0.3152 -0.6106  0.4116
29985SOL    HW290534   3.294   8.047   6.031 -0.7954 -0.6874 -0.9451
29986SOL     OW90535   0.142   3.064   2.745 -0.4766 -0.5107 -0.1165
29986SOL    HW190536   0.188   2.983   2.765 -1.3375 -0.5527  2.0217
29986SOL    HW290537   0.164   3.083   2.654  3.8209 -0.4720  0.7019
29987SOL     OW90538   2.990   1.724   4.596  0.1548 -0.2598 -0.6516
29987SOL    HW190539   3.072   1.766   4.623  0.6920 -1.4694 -0.3664
29987SOL    HW290540   2.998   1.717   4.500  0.2094 -0.0372 -0.6659
29988SOL     OW90541   1.495   6.272   1.687 -0.7663 -0.5425 -0.6115
29988SOL    HW190542   1.409   6.232   1.704 -0.5563 -0.9081 -0.3970
29988SOL    HW290543   1.546   6.202   1.646 -0.1345 -0.7453  0.4946
29989SOL     OW90544   7.236   6.428   6.499  0.3607 -0.4752 -0.8392
29989SOL    HW190545   7.218   6.521   6.484 -1.3839 -0.5926  0.3353
29989SOL    HW290546   7.165   6.382   6.455  0.6848 -1.2290 -0.5882
29990SOL     OW90547   2.873   9.463   7.631 -0.1476 -0.6680  0.2357
29990SOL    HW190548   2.966   9.487   7.630 -0.0456 -0.9847  1.2107
29990SOL    HW290549   2.828   9.546   7.650 -0.0902 -0.4586 -0.5224
29991SOL     OW90550   0.300   0.106   5.239 -0.2944 -0.2070  0.1639
29991SOL    HW190551   0.386   0.108   5.281 -1.0202 -1.1998  1.7620
29991SOL    HW290552   0.263   0.192   5.257 -0.5593 -0.5856  1.5360
29992SOL     OW90553   7.702   5.411   9.578  0.4732 -0.1187 -0.1631
29992SOL    HW190554   7.773   5.372   9.527 -0.7038 -0.2681 -1.7538
29992SOL    HW290555   7.649   5.337   9.607  1.5256 -0.1145  2.0380
29993SOL     OW90556   0.218   5.577   6.244 -0.1083 -0.0438 -0.4213
29993SOL    HW190557   0.201   5.489   6.211  0.6960  0.1122 -1.2996
29993SOL    HW290558   0.276   5.565   6.319  0.6561 -0.2289 -1.0273
29994SOL     OW90559   5.397   3.491   4.263 -0.2906 -0.4090  0.1875
29994SOL    HW190560   5.377   3.530   4.177 -2.5897  0.0513  0.8644
29994SOL    HW290561   5.492   3.486   4.265 -0.1272  0.5524 -1.9642
29995SOL     OW90562   6.700   4.123   1.273  0.1545  0.0247  0.2547
29995SOL    HW190563   6.734   4.192   1.216  0.1907 -0.8540 -0.8270
29995SOL    HW290564   6.728   4.041   1.231 -2.7654 -0.7453 -0.4257
29996SOL     OW90565   9.993   4.059   8.327  0.3815  0.1968  0.5570
29996SOL    HW190566   9.957   4.144   8.350 -2.1759 -0.4232 -0.8334
29996SOL    HW290567   9.927   3.996   8.355  0.6312 -1.0664 -1.5213
29997SOL     OW90568   5.806   3.095   9.533 -0.0576 -0.9774  0.0847
29997SOL    HW190569   5.730   3.065   9.582  0.1050 -0.8337  0.4302
29997SOL    HW290570   5.873   3.110   9.600 -0.6764  1.8920  0.1779
29998SOL     OW90571   1.876   7.560   2.568  0.3563  0.2046  0.3741
29998SOL    HW190572   1.935   7.636   2.563 -0.8640  1.3086  1.9491
29998SOL    HW290573   1.789   7.597   2.577 -0.2341 -1.3701  1.7338
29999SOL     OW90574   8.399   8.081   0.621  0.0473 -0.0762  0.2004
29999SOL    HW190575   8.476   8.029   0.598  0.3103  0.2123  0.4083
29999SOL    HW290576   8.343   8.022   0.670 -1.3913 -1.2862 -2.6886
30000SOL     OW90577   5.702   5.119   7.245  0.3662 -0.5879  0.6118
30000SOL    HW190578   5.770   5.160   7.191  1.2364 -1.5174  0.9652
30000SOL    HW290579   5.625   5.174   7.232  1.2706  0.7140  0.4821
30001SOL     OW90580   6.938   7.970   4.373  0.2544 -0.2157  0.2689
30001SOL    HW190581   6.916   8.050   4.325  0.6891 -0.4965 -0.3950
30001SOL    HW290582   6.904   7.899   4.319 -0.9890 -0.4570  1.3173
30002SOL     OW90583   6.786   1.580   4.376 -0.5250 -0.4352 -0.1923
30002SOL    HW190584   6.716   1.547   4.433 -0.3443  0.6540  0.7102
30002SOL    HW290585   6.841   1.632   4.435  0.5263 -0.5175 -1.0806
30003SOL     OW90586   9.436   0.653   0.377 -0.4768  0.6594  0.1346
30003SOL    HW190587   9.522   0.622   0.409 -0.4427  0.7148  0.0962
30003SOL    HW290588   9.374   0.619   0.441 -0.2723  2.0411  1.1333
30004SOL     OW90589   3.998   1.301   9.734  0.4894 -0.0079  0.2933
30004SOL    HW190590   4.060   1.325   9.665  0.7240 -0.0263  0.4985
30004SOL    HW290591   3.947   1.381   9.749 -1.1875 -0.6428 -1.5847
30005SOL     OW90592   9.745   5.287   6.061 -0.0287 -0.1631 -0.0617
30005SOL    HW190593   9.736   5.336   6.142  0.5445  0.2551 -0.2477
30005SOL    HW290594   9.666   5.233   6.056  0.0692 -0.4063  0.9142
30006SOL     OW90595   2.838   6.934   1.093 -0.1978 -0.4636 -0.7016
30006SOL    HW190596   2.878   6.851   1.119  0.9549  0.0754 -0.6937
30006SOL    HW290597   2.833   6.984   1.174  0.4588  0.0093 -0.9433
30007SOL     OW90598   2.538   9.076   2.980  0.1852  0.1763  0.5018
30007SOL    HW190599   2.484   9.057   3.056 -0.8319  0.3105 -0.1592
30007SOL    HW290600   2.481   9.128   2.923  0.3657 -1.2409 -1.0522
30008SOL     OW90601   6.917   2.401   9.748 -0.5029  0.0153 -0.3003
30008SOL    HW190602   6.906   2.453   9.828 -0.3646 -0.5475  0.0897
30008SOL    HW290603   6.954   2.462   9.684 -0.3760  0.4026  0.1404
30009SOL     OW90604   1.029   1.209   8.280  0.0141  0.4226  0.8169
30009SOL    HW190605   1.104   1.157   8.310 -0.7912 -0.2742  1.7029
30009SOL    HW290606   1.067   1.274   8.222  1.1463 -0.7879  0.1325
30010SOL     OW90607   0.366   1.323   4.672  0.2204  0.9555 -0.2542
30010SOL    HW190608   0.272   1.308   4.662 -0.6490  1.0422  5.1405
30010SOL    HW290609   0.402   1.237   4.693  0.3490  1.5607  2.3535
30011SOL     OW90610   7.171   5.618   8.164  0.2075 -0.3002 -0.4593
30011SOL    HW190611   7.146   5.664   8.084 -1.2318  0.7104  0.5011
30011SOL    HW290612   7.236   5.675   8.205 -0.0306 -0.1457 -0.2889
30012SOL     OW90613   8.997   0.492   5.225  0.4795  0.2008  0.1507
30012SOL    HW190614   9.001   0.398   5.242 -0.2093 -0.3451 -2.1959
30012SOL    HW290615   9.049   0.532   5.294  0.2424 -1.8364  1.5996
30013SOL     OW90616   6.498   0.016   2.579 -0.4019  0.2491  0.4631
30013SOL    HW190617   6.486  -0.064   2.527 -0.9982  1.3233 -1.1227
30013SOL    HW290618   6.565   0.065   2.533 -0.5916  1.0137  0.9853
30014SOL     OW90619   7.291   5.866   2.587  0.4489  0.1890 -0.1192
30014SOL    HW190620   7.244   5.838   2.664  1.3979  0.7553  0.6956
30014SOL    HW290621   7.340   5.788   2.558 -0.4511 -0.2141 -0.5819
30015SOL     OW90622   4.515   5.664   5.236  0.2099  0.0282  0.5381
30015SOL    HW190623   4.422   5.646   5.220 -0.2225  1.9966  0.5928
30015SOL    HW290624   4.521   5.674   5.331  0.5516 -0.4265  0.5656
30016SOL     OW90625   8.192   1.109   4.497 -0.2894 -0.2505 -0.0534
30016SOL    HW190626   8.287   1.125   4.497 -0.4344  1.2705  2.7253
30016SOL    HW290627   8.155   1.189   4.535 -2.6324 -1.1872 -0.2294
30017SOL     OW90628   0.120   3.538   7.883 -0.3447 -0.1468  0.2250
30017SOL    HW190629   0.044   3.514   7.830  0.1898  1.4484 -1.3445
30017SOL    HW290630   0.082   3.571   7.965 -1.6089  3.1631 -1.5008
30018SOL     OW90631   6.255   6.062   6.250  0.6767  0.3525 -0.4125
30018SOL    HW190632   6.307   6.117   6.309  0.5011  0.4425 -0.3397
30018SOL    HW290633   6.194   6.016   6.307 -1.2667  2.3671 -0.7127
30019SOL     OW90634   6.809   6.682   2.683 -0.1004  0.3354  0.0033
30019SOL    HW190635   6.762   6.758   2.718 -0.9154  0.0985 -0.5675
30019SOL    HW290636   6.761   6.606   2.716  0.4731  0.0645  0.2356
30020SOL     OW90637   6.007   8.451   6.207  0.7118 -0.3537 -0.0707
30020SOL    HW190638   5.970   8.459   6.295 -0.7923  1.3578 -0.7875
30020SOL    HW290639   6.031   8.541   6.184  1.5519 -0.8508 -1.2265
30021SOL     OW90640   7.987   7.459   9.238 -0.1817 -0.1536 -0.7284
30021SOL    HW190641   7.935   7.538   9.221  0.4861 -0.2349 -3.7568
30021SOL    HW290642   8.078   7.485   9.220  0.1524 -1.3719 -0.9451
30022SOL     OW90643   0.978   3.673   5.290 -0.0128  0.5255  0.0795
30022SOL    HW190644   0.910   3.736   5.266 -0.0018  0.0509 -1.3339
30022SOL    HW290645   1.056   3.726   5.306  0.1310  0.8766 -1.5912
30023SOL     OW90646   5.069   8.141   4.044 -0.2051 -0.3565  0.5344
30023SOL    HW190647   5.076   8.125   3.950  0.4835  1.3552  0.2579
30023SOL    HW290648   5.151   8.109   4.081 -0.1199 -0.2614  0.4272
30024SOL     OW90649   2.691   1.371   9.192  0.0000 -0.2561 -0.0168
30024SOL    HW190650   2.620   1.436   9.196  0.4728  0.1936  1.5881
30024SOL    HW290651   2.746   1.401   9.120 -0.6072  0.2583 -0.2803
30025SOL     OW90652   0.856   4.305   9.311 -0.8095  0.6422  0.6663
30025SOL    HW190653   0.900   4.230   9.270 -1.1245  0.0405  1.4230
30025SOL    HW290654   0.771   4.310   9.268 -0.4272  1.1733 -0.0634
30026SOL     OW90655   5.658   8.577   9.914 -0.0588  0.2242  0.3539
30026SOL    HW190656   5.601   8.517   9.963  1.1725 -0.4910  0.9556
30026SOL    HW290657   5.741   8.530   9.906  0.7881  1.6519  0.4043
30027SOL     OW90658   8.826   7.936   7.769 -0.4541 -0.5427  0.2072
30027SOL    HW190659   8.777   7.975   7.697  1.3770 -0.0415 -0.8243
30027SOL    HW290660   8.778   7.962   7.848 -0.4965  2.0234 -0.5889
30028SOL     OW90661   6.802   7.337   5.806 -0.6455 -0.3491  0.0146
30028SOL    HW190662   6.773   7.322   5.716 -2.4218 -1.9445  0.7917
30028SOL    HW290663   6.732   7.301   5.860 -0.5289  2.2118  2.0896
30029SOL     OW90664   2.099   5.091   3.601  0.1848 -0.6300  0.0108
30029SOL    HW190665   2.178   5.065   3.648 -0.2672 -1.3839  0.3631
30029SOL    HW290666   2.040   5.125   3.669 -0.5561 -1.9234  0.0393
30030SOL     OW90667   7.129   2.951   4.688  1.0960 -0.3602 -0.1157
30030SOL    HW190668   7.139   2.864   4.725 -0.8328 -1.7304 -2.5340
30030SOL    HW290669   7.139   2.939   4.593 -0.1271  1.8491 -0.6089
30031SOL     OW90670   3.289   9.116   7.275 -0.1392  0.2638  0.1650
30031SOL    HW190671   3.339   9.186   7.233  0.9689 -0.4634  0.2145
30031SOL    HW290672   3.226   9.089   7.208  0.5822  0.1536 -0.4875
30032SOL     OW90673   3.620   2.035   9.740  0.1531 -0.4395  0.3383
30032SOL    HW190674   3.675   2.111   9.722  1.3225 -0.7018  2.4876
30032SOL    HW290675   3.532   2.071   9.754  0.6556  0.5112  1.1659
30033SOL     OW90676   3.743   1.820   5.956  0.1229  0.4686 -0.4746
30033SOL    HW190677   3.692   1.875   5.896  1.1428  0.1529 -1.6607
30033SOL    HW290678   3.808   1.778   5.901 -0.1578 -1.3955  0.5305
30034SOL     OW90679   7.646   4.776   5.430  0.5781  0.1782 -0.5735
30034SOL    HW190680   7.637   4.699   5.373 -0.0909  0.1342 -0.4197
30034SOL    HW290681   7.658   4.848   5.369  1.6605 -0.1002 -0.7031
30035SOL     OW90682   2.380   5.822   1.289  0.0712 -0.5418 -0.3182
30035SOL    HW190683   2.299   5.840   1.241  0.2732 -0.4690 -0.6396
30035SOL    HW290684   2.396   5.901   1.340  0.5387 -0.0976 -1.1237
30036SOL     OW90685   4.606   4.715   1.291  0.1136 -0.3086  0.1206
30036SOL    HW190686   4.590   4.740   1.382 -1.4623 -0.9635  0.0517
30036SOL    HW290687   4.598   4.798   1.242  2.0300  0.2401  0.6513
30037SOL     OW90688   9.600   9.405   1.720 -0.5826  0.5349 -0.0374
30037SOL    HW190689   9.618   9.312   1.707 -0.2526  0.3304  1.6569
30037SOL    HW290690   9.609   9.443   1.633 -0.8245 -1.0239 -0.7795
30038SOL     OW90691   2.455   1.489   9.190  0.0226 -0.0937 -0.4804
30038SOL    HW190692   2.464   1.513   9.282  1.8487 -0.3727 -0.5540
30038SOL    HW290693   2.416   1.567   9.149 -1.5368 -0.2511  0.6197
30039SOL     OW90694   6.561   5.644   7.461 -0.2716  0.3541  0.2744
30039SOL    HW190695   6.542   5.608   7.548 -0.0578 -0.4920 -0.0176
30039SOL    HW290696   6.617   5.720   7.478 -0.5444  0.4209  0.8972
30040SOL     OW90697   2.582   2.722   8.725 -0.3613 -0.4935  0.0723
30040SOL    HW190698   2.495   2.739   8.763 -1.6432 -3.2820 -1.3789
30040SOL    HW290699   2.608   2.638   8.762  1.3322 -0.1277 -0.2381
30041SOL     OW90700   7.219   3.027   4.438  0.4108 -0.7883  0.5110
30041SOL    HW190701   7.233   3.104   4.383  0.1396 -0.6044  0.6960
30041SOL    HW290702   7.275   2.959   4.400 -0.5177 -0.9606 -0.5818
30042SOL     OW90703   8.151   9.677   5.331  0.1391  0.1967 -0.1519
30042SOL    HW190704   8.187   9.760   5.301  1.8619  0.0372  1.2967
30042SOL    HW290705   8.227   9.620   5.343 -0.7706 -0.8318  1.1037
30043SOL     OW90706   1.235   8.393   2.825  0.1931 -0.0825  0.2560
30043SOL    HW190707   1.194   8.393   2.912  0.2304 -0.9270  0.2810
30043SOL    HW290708   1.260   8.485   2.811  0.6318 -0.0201  1.3389
30044SOL     OW90709   7.464   8.421   6.900 -0.4438 -0.0153 -0.4839
30044SOL    HW190710   7.383   8.372   6.917 -0.3026 -0.0948 -0.0087
30044SOL    HW290711   7.464   8.490   6.967  0.3261 -0.5710  0.1163
30045SOL     OW90712   1.992   5.026   4.905 -1.4575 -0.0026  0.6604
30045SOL    HW190713   2.003   5.112   4.865  2.1326 -0.3923  0.5675
30045SOL    HW290714   2.022   5.038   4.996 -0.5162 -1.2147  0.5330
30046SOL     OW90715   7.611   9.298   9.545  0.1624  0.2424  0.5618
30046SOL    HW190716   7.594   9.358   9.618  0.6465  1.0366  0.0317
30046SOL    HW290717   7.557   9.222   9.564  1.2331 -0.1203  2.4376
30047SOL     OW90718   3.546   4.125   1.599  0.0278  0.3316 -0.2319
30047SOL    HW190719   3.584   4.111   1.686  1.0173  2.1078 -0.3349
30047SOL    HW290720   3.621   4.122   1.539 -0.4603  0.5031 -0.8582
30048SOL     OW90721   1.384   0.963   3.455 -0.2444 -0.3752 -0.5439
30048SOL    HW190722   1.373   0.879   3.498  0.2442  0.8381  2.1378
30048SOL    HW290723   1.306   0.972   3.399 -2.1735 -1.1003  1.8532
30049SOL     OW90724   4.882   0.908   5.661  0.1642  0.2398 -0.1637
30049SOL    HW190725   4.868   0.816   5.641 -0.3195  0.2555  0.1008
30049SOL    HW290726   4.929   0.942   5.584 -0.7047  0.0472 -0.7974
30050SOL     OW90727   5.340   5.547   9.777 -0.5670  0.0026  0.4394
30050SOL    HW190728   5.364   5.615   9.840 -3.0017  0.6275  0.8079
30050SOL    HW290729   5.321   5.594   9.696 -0.9184 -0.3772  0.2945
30051SOL     OW90730   4.186   4.619   3.644 -0.1054 -0.2069  0.4649
30051SOL    HW190731   4.188   4.712   3.623 -0.3709 -0.4988 -1.0077
30051SOL    HW290732   4.104   4.587   3.605  0.5707 -1.2640 -0.1513
30052SOL     OW90733   2.570   7.998   0.320 -0.3142 -0.0831  0.0649
30052SOL    HW190734   2.556   8.027   0.230 -1.4961 -1.5719 -0.2756
30052SOL    HW290735   2.584   8.079   0.369 -1.2439  0.8828 -1.1821
30053SOL     OW90736   9.770   7.381   7.959  0.2240  0.6448  0.0003
30053SOL    HW190737   9.810   7.461   7.924  2.1316 -0.1552  0.2187
30053SOL    HW290738   9.835   7.348   8.021 -0.5228 -1.0791 -0.0948
30054SOL     OW90739   8.325   0.181   6.123  0.3276 -0.4659  0.8475
30054SOL    HW190740   8.371   0.148   6.200  0.8480 -0.6524  0.4576
30054SOL    HW290741   8.334   0.112   6.058 -0.6907 -0.6060  0.8287
30055SOL     OW90742   9.116   0.278   4.194  0.0005  0.4697 -0.3979
30055SOL    HW190743   9.174   0.306   4.123 -1.3438 -0.2556 -1.8452
30055SOL    HW290744   9.045   0.342   4.194 -2.7665 -2.2473 -3.3186
30056SOL     OW90745   0.457   7.826   3.488 -0.0447  0.3850 -0.9280
30056SOL    HW190746   0.549   7.800   3.481 -0.0036  0.5863 -1.1604
30056SOL    HW290747   0.441   7.834   3.582  0.5542  1.6763 -0.9184
30057SOL     OW90748   5.437   0.117   8.513  0.0616 -0.7327 -0.4443
30057SOL    HW190749   5.377   0.052   8.549 -0.9944  0.9356  0.9695
30057SOL    HW290750   5.422   0.114   8.418  0.1189 -2.5595 -0.4377
30058SOL     OW90751   1.318   9.295   2.529 -0.2588 -0.2873 -0.1232
30058SOL    HW190752   1.337   9.357   2.600 -0.1972  0.2467 -0.6066
30058SOL    HW290753   1.373   9.323   2.457 -2.2786  0.8316 -1.3065
30059SOL     OW90754   0.352   3.543   3.592 -0.1096  0.0539 -0.4480
30059SOL    HW190755   0.325   3.457   3.624  0.4673  0.1860  0.4230
30059SOL    HW290756   0.269   3.587   3.570 -0.5039 -0.2311  0.4015
30060SOL     OW90757   1.585   0.201   0.236  0.2923  0.2296  0.5501
30060SOL    HW190758   1.492   0.222   0.228  0.1011 -0.0043  1.9843
30060SOL    HW290759   1.603   0.203   0.330  1.7876  0.4687  0.2913
30061SOL     OW90760   3.521   3.657   0.955  0.0826  0.4478  0.1455
30061SOL    HW190761   3.463   3.618   1.021  0.2810  1.6091  1.0486
30061SOL    HW290762   3.602   3.675   1.003  1.3185 -1.2811 -1.1174
30062SOL     OW90763   6.740   9.472   9.713 -0.1951  0.2570  0.2368
30062SOL    HW190764   6.708   9.521   9.637 -2.1417 -0.9379  0.2288
30062SOL    HW290765   6.712   9.525   9.789  0.6419  0.8038  0.1839
30063SOL     OW90766   4.378   5.058   2.300 -0.2913 -0.2881 -0.0657
30063SOL    HW190767   4.429   5.042   2.220 -3.2012 -0.3636 -2.0752
30063SOL    HW290768   4.427   5.127   2.346  2.1169 -1.0718 -1.2461
30064SOL     OW90769   4.457   5.962   4.698 -0.4989 -0.1037 -0.1192
30064SOL    HW190770   4.397   6.033   4.724 -0.5739  0.4740 -1.7900
30064SOL    HW290771   4.427   5.936   4.611  0.4123 -1.2424 -0.1110
30065SOL     OW90772   4.498   9.401   7.402 -0.1343  0.0805  0.0262
30065SOL    HW190773   4.470   9.361   7.484  0.8956 -2.2002 -0.6510
30065SOL    HW290774   4.465   9.491   7.406  0.1448  0.1364  3.0328
30066SOL     OW90775   3.229   9.657   4.634  0.6560 -0.3652 -0.0315
30066SOL    HW190776   3.154   9.612   4.672  0.2598 -0.2074 -0.6127
30066SOL    HW290777   3.303   9.599   4.650  0.4424 -0.4629  0.6607
30067SOL     OW90778   0.281   4.505   4.942 -0.0167 -0.0600  0.1725
30067SOL    HW190779   0.228   4.559   5.001 -2.1968  0.5286 -2.1303
30067SOL    HW290780   0.320   4.567   4.881 -0.6715 -0.8429 -1.0919
30068SOL     OW90781   3.826   5.014   2.216 -0.0875 -0.0372  0.2254
30068SOL    HW190782   3.804   5.101   2.181  1.1722 -0.1345 -0.8818
30068SOL    HW290783   3.899   5.030   2.276 -0.5719 -0.2064  0.8698
30069SOL     OW90784   0.915   2.735   4.118  0.8783  0.2577  0.4281
30069SOL    HW190785   0.941   2.804   4.178 -1.3646  2.1328 -0.5705
30069SOL    HW290786   0.891   2.782   4.037 -2.2440 -1.4527  0.2120
30070SOL     OW90787   5.736   6.748   5.481 -0.2349 -0.3539 -0.1775
30070SOL    HW190788   5.719   6.654   5.487  0.2863 -0.4301  0.1838
30070SOL    HW290789   5.649   6.788   5.483 -0.7411 -0.9497 -3.3649
30071SOL     OW90790   9.190   5.910   3.549  0.2461  0.2087 -0.3414
30071SOL    HW190791   9.159   5.821   3.537 -0.0224  0.4138 -1.2095
30071SOL    HW290792   9.184   5.925   3.644  0.8551 -0.8814 -0.1129
30072SOL     OW90793   3.162   1.287   7.119 -0.1525 -0.5082 -0.6175
30072SOL    HW190794   3.174   1.379   7.141  0.2311 -1.1689  2.3905
30072SOL    HW290795   3.074   1.283   7.081 -0.8194  0.9287  0.6373
30073SOL     OW90796   2.660   8.113   8.936  0.2236  0.3382 -0.8110
30073SOL    HW190797   2.658   8.038   8.997  0.0168  1.1287  0.1845
30073SOL    HW290798   2.749   8.147   8.943  0.1171  0.6042 -0.7272
30074SOL     OW90799   1.041   4.564   2.327  0.1579  0.1473  0.1002
30074SOL    HW190800   1.008   4.649   2.357  0.1099  0.1252  0.1114
30074SOL    HW290801   0.970   4.503   2.348 -1.1342  0.5509 -2.5681
30075SOL     OW90802   8.691   3.198   5.998  0.6524  0.0192  0.1908
30075SOL    HW190803   8.608   3.192   5.951 -0.1925  1.3593  1.4637
30075SOL    HW290804   8.720   3.288   5.986  0.4759  0.3707  2.1018
30076SOL     OW90805   8.004   8.555   9.252 -0.2137  0.1095 -0.1110
30076SOL    HW190806   7.939   8.544   9.321  0.4522  1.8291  0.8838
30076SOL    HW290807   7.999   8.475   9.200 -1.2791 -0.9242  1.4834
30077SOL     OW90808   2.319   7.558   8.832 -0.1334  0.0511  0.1621
30077SOL    HW190809   2.385   7.581   8.766  0.1053 -0.8849  0.0549
30077SOL    HW290810   2.242   7.535   8.780 -1.1144  2.6400  0.3115
30078SOL     OW90811   3.499   6.715   5.574  0.6237 -0.4693 -0.5120
30078SOL    HW190812   3.492   6.639   5.515 -2.3915  2.2124 -4.1450
30078SOL    HW290813   3.416   6.717   5.621  0.8589  0.2952 -0.1119
30079SOL     OW90814   9.818   4.068   5.068  1.0600  0.0469  0.6594
30079SOL    HW190815   9.878   3.995   5.085  1.3807  0.3698  0.9424
30079SOL    HW290816   9.869   4.127   5.012  0.7983  0.0544  0.4266
30080SOL     OW90817   4.245   2.922   7.929 -0.3072  0.7436 -0.0144
30080SOL    HW190818   4.247   2.879   8.014  1.5100 -2.2575 -1.4012
30080SOL    HW290819   4.334   2.910   7.894 -1.6332 -0.4443 -3.3555
30081SOL     OW90820   7.931   8.095   9.817  0.3220  0.0967 -0.4114
30081SOL    HW190821   7.902   8.176   9.859  1.3927  0.1844  0.1959
30081SOL    HW290822   7.851   8.058   9.778 -0.2271  1.3008 -0.4730
30082SOL     OW90823   6.874   5.459   0.330  0.1069 -0.0919  0.4830
30082SOL    HW190824   6.961   5.422   0.344  0.0994 -0.8553 -1.1951
30082SOL    HW290825   6.884   5.552   0.349  1.1248 -0.2770  0.9230
30083SOL     OW90826   7.625   4.347   8.764 -0.4643 -0.3667  0.2768
30083SOL    HW190827   7.670   4.377   8.685  2.3670 -2.0186  1.1108
30083SOL    HW290828   7.631   4.252   8.761 -0.5768 -0.4924  2.3020
30084SOL     OW90829   2.349   7.676   7.446 -0.2376  0.2629 -0.4052
30084SOL    HW190830   2.282   7.726   7.493  1.0718  0.2188  1.6664
30084SOL    HW290831   2.299   7.617   7.389 -1.9238  1.0354  0.2017
30085SOL     OW90832   6.822   8.657   8.935  0.2860 -0.0809  0.0003
30085SOL    HW190833   6.732   8.624   8.926  0.5029 -0.2405 -2.0507
30085SOL    HW290834   6.875   8.578   8.945  0.4705 -0.2443 -1.8206
30086SOL     OW90835   7.806   1.002   6.787  0.2859 -0.1696  0.2022
30086SOL    HW190836   7.728   1.048   6.816  0.5898  0.4934 -0.0118
30086SOL    HW290837   7.773   0.922   6.747 -0.3830  0.6708 -1.0007
30087SOL     OW90838   1.396   3.134   1.226 -0.4308 -0.3813 -0.0055
30087SOL    HW190839   1.448   3.140   1.146  0.2294 -2.2932  0.2329
30087SOL    HW290840   1.336   3.208   1.221  1.3373  1.0712 -0.9849
30088SOL     OW90841   6.160   6.544   9.203  0.6060 -0.2497 -0.2214
30088SOL    HW190842   6.211   6.604   9.148  0.6427  0.1089  0.1907
30088SOL    HW290843   6.150   6.592   9.285 -1.8733  0.4264 -0.8502
30089SOL     OW90844   5.355   1.151   4.647 -0.2717  0.2940  0.1884
30089SOL    HW190845   5.280   1.202   4.678  0.9046  1.0973  1.8227
30089SOL    HW290846   5.386   1.104   4.724 -0.0547 -1.3041 -0.8367
30090SOL     OW90847   9.831   7.211   3.429 -0.4322  0.0936  0.4155
30090SOL    HW190848   9.839   7.305   3.443  2.2786  0.0220 -0.0366
30090SOL    HW290849   9.898   7.191   3.363 -3.2759 -1.6585 -2.2163
30091SOL     OW90850   3.388   8.408   1.240 -0.1537  0.1695 -0.3996
30091SOL    HW190851   3.460   8.357   1.277 -0.0622  0.1867 -0.5505
30091SOL    HW290852   3.317   8.345   1.227 -0.5420  0.3496  0.7279
30092SOL     OW90853   3.646   5.830   7.635  0.3293 -0.1614 -0.7316
30092SOL    HW190854   3.742   5.835   7.636  0.3732  0.0070  2.2325
30092SOL    HW290855   3.626   5.746   7.594  1.5812  0.8500 -3.6711
30093SOL     OW90856   1.503   2.920   2.346  0.0649 -0.3654  0.0827
30093SOL    HW190857   1.477   2.979   2.276 -2.2600 -1.8021 -0.3396
30093SOL    HW290858   1.454   2.950   2.423  2.1371  0.8252  1.0417
30094SOL     OW90859   1.751   9.517   0.659  0.3502  0.2875  0.0019
30094SOL    HW190860   1.706   9.432   0.649 -1.8311  1.2506  0.8751
30094SOL    HW290861   1.829   9.510   0.604 -0.0664 -2.0765 -0.3915
30095SOL     OW90862   0.933   0.684   2.615 -0.8981 -0.1858 -0.0100
30095SOL    HW190863   0.863   0.654   2.673 -2.4527 -2.5621 -2.8895
30095SOL    HW290864   0.990   0.607   2.605 -0.2091  0.4369 -1.0162
30096SOL     OW90865   7.883   4.200   3.728  0.0884  0.3944 -0.7897
30096SOL    HW190866   7.860   4.185   3.819 -2.3452 -0.6703 -1.5068
30096SOL    HW290867   7.859   4.119   3.683  2.3050  0.4519 -2.2571
30097SOL     OW90868   5.006   7.501   2.288 -0.0337  0.2716  0.2064
30097SOL    HW190869   4.945   7.563   2.246 -0.7737  0.2387  1.2027
30097SOL    HW290870   5.062   7.556   2.343 -0.1643  0.1455  0.4673
30098SOL     OW90871   7.009   7.568   4.086  0.0906 -0.3327 -0.1607
30098SOL    HW190872   7.012   7.536   3.996 -0.3218 -0.9938  0.0580
30098SOL    HW290873   7.101   7.575   4.112  0.2520  0.9196 -0.9959
30099SOL     OW90874   3.928   1.537   2.997  0.0586 -0.0187  0.2337
30099SOL    HW190875   3.962   1.610   3.049 -0.9829  1.2339 -0.7489
30099SOL    HW290876   3.954   1.558   2.907 -1.2623 -0.2316 -0.2242
30100SOL     OW90877   6.439   2.705   3.929 -0.2336 -0.3856 -0.1127
30100SOL    HW190878   6.403   2.786   3.893 -0.1979 -0.5526 -0.5219
30100SOL    HW290879   6.427   2.714   4.024 -0.0023  0.2133 -0.1313
30101SOL     OW90880   7.287   7.044   1.062 -0.8553  0.1800 -0.3247
30101SOL    HW190881   7.270   7.085   1.147 -1.5027  1.8131 -1.1875
30101SOL    HW290882   7.378   7.066   1.042 -1.0924  0.9412 -0.6198
30102SOL     OW90883   8.979   0.175   8.266  0.0237  0.4688 -0.4894
30102SOL    HW190884   8.913   0.108   8.282 -1.2761  1.3409 -1.9173
30102SOL    HW290885   8.943   0.254   8.305  1.4021  0.4399  0.9157
30103SOL     OW90886   9.204   6.247   3.360 -0.1997 -0.4808 -0.0508
30103SOL    HW190887   9.292   6.249   3.398 -1.0697 -0.5605  2.0958
30103SOL    HW290888   9.178   6.339   3.354  0.4914 -0.3630 -1.9635
30104SOL     OW90889   6.382   4.507   0.211 -0.5912 -0.1202  0.2345
30104SOL    HW190890   6.380   4.520   0.116  2.3252 -2.2697 -0.2752
30104SOL    HW290891   6.295   4.475   0.233 -1.3149  0.3640 -1.6979
30105SOL     OW90892   5.474   8.114   8.982  0.1197 -0.0452 -0.2475
30105SOL    HW190893   5.526   8.117   8.902  0.0473  0.1646 -0.2851
30105SOL    HW290894   5.466   8.020   9.001  0.5568 -0.0790 -0.2107
30106SOL     OW90895   2.073   4.075   6.974  0.5884 -0.6765  0.3199
30106SOL    HW190896   2.101   4.158   7.014 -0.6937 -1.1257  2.3198
30106SOL    HW290897   2.066   4.094   6.881  2.4928  0.8225  0.4197
30107SOL     OW90898   4.297   9.627   2.807 -0.0235 -0.0505 -0.0595
30107SOL    HW190899   4.259   9.582   2.882  0.2163  0.5651  0.4422
30107SOL    HW290900   4.245   9.599   2.732 -0.5644 -0.3004  0.4119
30108SOL     OW90901   6.503   2.995   5.829  0.2197  0.9959  0.1642
30108SOL    HW190902   6.557   2.924   5.793 -1.6297 -0.6471  0.4087
30108SOL    HW290903   6.565   3.057   5.865  1.9663 -1.7655  2.2843
30109SOL     OW90904   0.542   4.109   9.020  0.4462 -0.1825  0.2352
30109SOL    HW190905   0.607   4.059   8.971  0.5713  2.7377 -3.0397
30109SOL    HW290906   0.458   4.073   8.992  0.5781 -0.0077 -0.4111
30110SOL     OW90907   6.070   8.832   6.743  0.8785 -0.1600 -0.0972
30110SOL    HW190908   6.146   8.790   6.702  0.5033 -0.2695 -0.6903
30110SOL    HW290909   6.056   8.782   6.824  0.4524 -1.1833 -0.7816
30111SOL     OW90910   2.846   1.171   6.632  0.2348  0.2520  0.1447
30111SOL    HW190911   2.830   1.254   6.676  2.1627  1.0957 -0.6171
30111SOL    HW290912   2.796   1.107   6.683 -1.1994  1.8346  0.8206
30112SOL     OW90913   1.433   9.131   5.195  0.1514  0.0173 -0.5360
30112SOL    HW190914   1.412   9.200   5.133  0.2625 -1.7618 -2.6730
30112SOL    HW290915   1.476   9.064   5.143  1.1378 -1.1787  1.6739
30113SOL     OW90916   9.891   5.162   2.041  0.3964  0.1485 -0.3358
30113SOL    HW190917   9.957   5.228   2.063  1.2377 -1.2667  1.6392
30113SOL    HW290918   9.862   5.128   2.125 -1.3331 -0.7753 -1.2562
30114SOL     OW90919   5.995   2.345   4.779  0.0559 -0.2709  0.1779
30114SOL    HW190920   5.996   2.432   4.817 -0.4163 -0.1548 -0.0651
30114SOL    HW290921   6.086   2.317   4.780  0.5480  1.0791 -1.7008
30115SOL     OW90922   8.834   3.005   4.868 -0.2666 -0.4389  0.2758
30115SOL    HW190923   8.748   2.974   4.839 -1.0864  0.3425  1.7170
30115SOL    HW290924   8.824   3.099   4.879  1.4330  0.0256 -1.5520
30116SOL     OW90925   8.534   6.552   0.272  0.0596 -0.6723 -0.3223
30116SOL    HW190926   8.506   6.578   0.184 -0.6198 -0.8667 -0.1695
30116SOL    HW290927   8.618   6.509   0.258  0.4462  0.2004 -0.7558
30117SOL     OW90928   1.048   1.078   6.228 -0.2689  0.4969 -0.6481
30117SOL    HW190929   1.135   1.082   6.188  0.3302  0.0959  0.5595
30117SOL    HW290930   1.008   0.999   6.190  1.0314 -0.9927  0.9011
30118SOL     OW90931   4.484   8.172   4.047 -0.1962  0.0025  0.5283
30118SOL    HW190932   4.580   8.169   4.049 -0.1946 -1.5982 -0.2603
30118SOL    HW290933   4.458   8.080   4.043 -1.6806  0.4585 -2.0347
30119SOL     OW90934   1.376   9.670   3.580 -0.1295 -0.2776 -0.3813
30119SOL    HW190935   1.457   9.707   3.617  0.4632 -0.7037 -1.2089
30119SOL    HW290936   1.354   9.727   3.507 -1.1140  0.3747  0.4037
30120SOL     OW90937   0.913   3.964   8.454 -0.3034  0.0159  0.0815
30120SOL    HW190938   0.923   3.915   8.535 -2.6682 -1.1499 -0.2607
30120SOL    HW290939   0.854   4.035   8.476  0.9568  1.1705 -0.0955
30121SOL     OW90940   3.151   7.675   4.876  0.0772 -0.0609 -0.0732
30121SOL    HW190941   3.100   7.598   4.901 -1.8050 -0.1099 -3.4479
30121SOL    HW290942   3.106   7.748   4.917 -0.8139 -0.4175 -0.3752
30122SOL     OW90943   9.112   4.100   4.555 -0.0935 -0.2234 -0.4733
30122SOL    HW190944   9.095   4.076   4.646  1.8715 -0.8021 -0.1992
30122SOL    HW290945   9.107   4.017   4.508 -0.4809 -0.0202 -0.7930
30123SOL     OW90946   5.272   3.335   8.900 -0.6339 -0.3467  0.2311
30123SOL    HW190947   5.366   3.323   8.892 -0.1728 -0.5474  4.0578
30123SOL    HW290948   5.234   3.264   8.847  1.2090  0.4267 -2.3245
30124SOL     OW90949   6.630   4.303   7.443  0.4492 -0.6018 -0.3650
30124SOL    HW190950   6.575   4.369   7.401 -0.6047 -1.6807 -0.7547
30124SOL    HW290951   6.657   4.343   7.525  1.9530  1.2819 -1.6715
30125SOL     OW90952   4.568   8.802   5.402 -0.5855 -0.0516 -0.1660
30125SOL    HW190953   4.545   8.746   5.328  1.0944  0.9861 -1.5492
30125SOL    HW290954   4.563   8.745   5.479 -0.4392 -1.6861 -1.3277
30126SOL     OW90955   0.657   5.408   1.162  0.0790  0.3136 -0.2232
30126SOL    HW190956   0.609   5.486   1.190 -0.4937  0.8619 -2.4571
30126SOL    HW290957   0.588   5.346   1.138  0.5318 -0.4039  0.3245
30127SOL     OW90958   0.152   0.621   8.569  0.1527  0.1856 -0.4485
30127SOL    HW190959   0.088   0.693   8.562  0.4830  0.4621 -0.6424
30127SOL    HW290960   0.144   0.573   8.487  0.3243  0.3293 -0.5496
30128SOL     OW90961   7.396   5.141   9.831  0.0979  0.1091 -0.1708
30128SOL    HW190962   7.456   5.100   9.769  1.8786  0.1634  1.4245
30128SOL    HW290963   7.453   5.187   9.892 -1.6571  1.2297  0.6907
30129SOL     OW90964   2.477   1.562   3.664 -0.1577  0.0031 -0.4363
30129SOL    HW190965   2.490   1.486   3.608 -0.5267 -0.0999 -0.3884
30129SOL    HW290966   2.449   1.631   3.604 -0.1393  0.0094 -0.4376
30130SOL     OW90967   3.376   7.728   0.871  0.2055  0.2822  0.6764
30130SOL    HW190968   3.448   7.703   0.813 -0.2319  0.7845 -0.1074
30130SOL    HW290969   3.328   7.646   0.886  0.4327  0.1131  0.4812
30131SOL     OW90970   5.794   5.933   8.594  0.2155 -0.0362  0.1470
30131SOL    HW190971   5.826   5.880   8.667 -0.6005 -0.7842 -0.0218
30131SOL    HW290972   5.863   5.997   8.579  0.3878  0.1562  1.5978
30132SOL     OW90973   2.988   3.202   7.626  0.3193  0.0861  0.1428
30132SOL    HW190974   2.913   3.237   7.673 -0.5013  0.0181 -1.0794
30132SOL    HW290975   2.951   3.141   7.561  1.4896 -0.6576  0.1268
30133SOL     OW90976   0.586   9.904   3.233  0.2798  0.0215 -0.0106
30133SOL    HW190977   0.613   9.838   3.170 -0.1416  1.0175 -1.2706
30133SOL    HW290978   0.536   9.856   3.299  1.0259 -1.0911 -0.2361
30134SOL     OW90979   5.444   8.708   0.259 -0.3242  0.1070  0.4052
30134SOL    HW190980   5.440   8.739   0.349  0.8516  5.1317 -0.9430
30134SOL    HW290981   5.361   8.736   0.220 -0.3542 -0.9615 -0.3437
30135SOL     OW90982   0.420   1.534   9.657 -0.1966 -0.5814  0.1567
30135SOL    HW190983   0.340   1.532   9.604 -0.4015  2.1268  0.2294
30135SOL    HW290984   0.484   1.578   9.602 -0.4493  2.4103  2.0643
30136SOL     OW90985   1.877   5.037   6.071  0.3336  1.1042 -0.1236
30136SOL    HW190986   1.823   5.107   6.109  2.4184  3.0158 -0.4036
30136SOL    HW290987   1.898   5.069   5.983 -0.5083 -1.0046 -1.1371
30137SOL     OW90988   0.861   8.996   0.431 -0.1987 -0.2852 -0.1675
30137SOL    HW190989   0.841   8.910   0.469  0.7040 -1.0402 -1.3483
30137SOL    HW290990   0.938   9.026   0.478  1.3720 -1.5554 -1.8175
30138SOL     OW90991   8.798   0.515   7.829 -0.0532  0.2450  0.0995
30138SOL    HW190992   8.783   0.528   7.923  0.9868 -0.0497  0.3197
30138SOL    HW290993   8.831   0.425   7.822  2.1227  1.0031 -0.2431
30139SOL     OW90994   3.899   7.025   4.686 -0.5872  0.4289 -0.7181
30139SOL    HW190995   3.915   7.076   4.606  0.9810  1.0193 -0.0635
30139SOL    HW290996   3.985   7.019   4.728 -1.6008  1.3700  1.6539
30140SOL     OW90997   9.588   9.391   5.231  0.3059 -0.8278 -0.2475
30140SOL    HW190998   9.523   9.350   5.289  0.0307 -0.8712 -0.5849
30140SOL    HW290999   9.669   9.388   5.282  0.1840 -1.3475 -0.0672
30141SOL     OW91000   5.746   2.674   2.033  0.0178  0.1906 -0.0257
30141SOL    HW191001   5.696   2.630   1.965 -2.1295  2.3313  0.0355
30141SOL    HW291002   5.834   2.683   1.996 -1.1173  1.4252 -2.6641
30142SOL     OW91003   2.478   7.017   7.562 -0.0379 -0.1893  0.2609
30142SOL    HW191004   2.399   7.071   7.563 -1.5935 -2.2465  3.0282
30142SOL    HW291005   2.526   7.043   7.640  2.1394  1.0162 -1.3783
30143SOL     OW91006   5.500   2.139   8.546  0.3445  0.5953 -0.3838
30143SOL    HW191007   5.550   2.090   8.481  2.5375  0.6433  1.1676
30143SOL    HW291008   5.565   2.194   8.591 -0.8699 -0.0512  2.4002
30144SOL     OW91009   5.884   2.002   4.586 -0.5972 -0.5183  0.0332
30144SOL    HW191010   5.872   2.076   4.646  0.2072 -0.3215 -0.0339
30144SOL    HW291011   5.884   2.041   4.499  1.7334 -0.2941  0.0722
30145SOL     OW91012   6.574   0.793   1.238 -0.4469  0.1636  0.4805
30145SOL    HW191013   6.644   0.820   1.180  1.2276 -1.7088  1.5157
30145SOL    HW291014   6.591   0.840   1.320 -0.8974  0.3360  0.4783
30146SOL     OW91015   3.333   9.816   7.876 -0.4475 -1.3903  0.2035
30146SOL    HW191016   3.361   9.873   7.804  2.1919 -1.5929  0.9752
30146SOL    HW291017   3.268   9.868   7.923  1.6946  1.0014  0.7493
30147SOL     OW91018   0.946   9.863   3.056 -0.0477 -0.4000  0.2081
30147SOL    HW191019   0.946   9.958   3.070  0.9433 -0.2227 -0.8478
30147SOL    HW291020   0.901   9.851   2.973  1.0888 -0.7181 -0.3779
30148SOL     OW91021   1.395   7.874   2.898 -0.4545 -0.2972  0.0012
30148SOL    HW191022   1.310   7.912   2.878 -0.3782  0.1771  0.5327
30148SOL    HW291023   1.376   7.782   2.918 -0.6431 -0.5460 -1.2846
30149SOL     OW91024   7.043   2.890   0.445  0.2228  0.1211  0.1505
30149SOL    HW191025   7.123   2.937   0.471 -0.3616  2.3508 -1.7534
30149SOL    HW291026   7.069   2.838   0.369  0.3218 -0.8753  0.8459
30150SOL     OW91027   8.525   3.641   0.994 -0.0205 -0.4710 -0.2600
30150SOL    HW191028   8.611   3.642   1.036 -1.0284 -1.5925  2.0013
30150SOL    HW291029   8.481   3.720   1.026 -0.3464 -0.6619 -0.2304
30151SOL     OW91030   6.052   5.021   6.208 -0.0636  0.2622 -0.1906
30151SOL    HW191031   6.009   5.072   6.140 -1.3816 -1.1274 -0.4607
30151SOL    HW291032   6.075   4.939   6.165  0.9201  0.1426  0.5386
30152SOL     OW91033   1.618   3.763   8.163 -0.4551 -0.6638 -0.4444
30152SOL    HW191034   1.634   3.710   8.241  1.8039 -0.7492 -0.8998
30152SOL    HW291035   1.588   3.847   8.197  0.9602 -0.5321  0.5944
30153SOL     OW91036   3.763   5.792   9.010  0.7328 -0.8326 -0.0604
30153SOL    HW191037   3.763   5.875   9.058 -3.2514 -1.4211  1.3494
30153SOL    HW291038   3.812   5.732   9.067 -2.3120 -1.0427  2.6353
30154SOL     OW91039   3.101   2.030   8.482 -0.1563 -0.4825 -0.1667
30154SOL    HW191040   3.169   2.096   8.470  0.8032 -1.6598 -1.6928
30154SOL    HW291041   3.030   2.076   8.527 -0.0329  1.9061 -2.2079
30155SOL     OW91042   8.302   9.478   4.438  0.3440  0.5087  0.0517
30155SOL    HW191043   8.344   9.549   4.391  1.9074 -0.9460 -0.8809
30155SOL    HW291044   8.301   9.405   4.376 -1.6411 -0.1777  0.8059
30156SOL     OW91045   5.166   5.133   0.525 -0.1075 -0.4068  0.2687
30156SOL    HW191046   5.090   5.122   0.583 -1.3226  0.6713 -1.0589
30156SOL    HW291047   5.212   5.049   0.530 -2.8674 -2.1247 -0.9282
30157SOL     OW91048   3.244   1.311   3.387 -0.1487  0.1274 -0.5431
30157SOL    HW191049   3.172   1.373   3.393 -0.6507 -0.4705 -0.1994
30157SOL    HW291050   3.236   1.272   3.300 -1.5593 -1.4601  0.2263
30158SOL     OW91051   3.057   3.225   1.294  0.7892 -0.1212  0.3487
30158SOL    HW191052   3.009   3.167   1.236 -0.0382  0.9630 -0.0919
30158SOL    HW291053   3.032   3.198   1.383 -0.4170  0.2295  0.1292
30159SOL     OW91054   5.284   7.649   0.056 -0.0282  0.3159 -0.0799
30159SOL    HW191055   5.194   7.620   0.039  0.0576  0.1777 -0.3163
30159SOL    HW291056   5.277   7.744   0.066 -0.2482  0.2663  0.2355
30160SOL     OW91057   5.439   4.381   7.743  1.0683  0.0891  0.4080
30160SOL    HW191058   5.472   4.308   7.690  1.8110  0.3275  0.5318
30160SOL    HW291059   5.345   4.383   7.725  1.1506 -0.4751 -0.1193
30161SOL     OW91060   0.826   9.893   2.811  0.1949 -0.0473 -0.2790
30161SOL    HW191061   0.857   9.971   2.766 -0.3642  0.2912 -0.0935
30161SOL    HW291062   0.737   9.880   2.777  0.3595 -0.7283 -0.4681
30162SOL     OW91063   1.768   0.918   7.878  0.0301  0.2697 -0.3222
30162SOL    HW191064   1.834   0.854   7.907  0.2162  0.2781 -0.7205
30162SOL    HW291065   1.814   0.971   7.813  0.0987  1.2785  0.5289
30163SOL     OW91066   8.128   0.472   8.642 -0.7154  0.9566 -0.2444
30163SOL    HW191067   8.085   0.436   8.565  1.1713  3.9072 -2.9369
30163SOL    HW291068   8.200   0.411   8.660 -0.4264  0.8695 -1.6368
30164SOL     OW91069   3.463   6.974   4.798 -0.0248  0.5546  0.6068
30164SOL    HW191070   3.440   6.958   4.890  0.1050 -0.6450  0.4436
30164SOL    HW291071   3.397   7.037   4.768  0.1447  1.2432  1.6060
30165SOL     OW91072   5.532   8.405   2.062 -0.0071  0.3780  0.5296
30165SOL    HW191073   5.537   8.359   1.978 -1.2048  0.1794  0.5496
30165SOL    HW291074   5.511   8.495   2.039  1.7192  0.8173  0.5269
30166SOL     OW91075   7.796   8.739   5.491 -1.5298 -0.5611  0.0847
30166SOL    HW191076   7.850   8.763   5.567 -1.0835  0.0514 -0.4094
30166SOL    HW291077   7.844   8.668   5.449 -0.0415  1.2444 -1.4439
30167SOL     OW91078   7.783   7.243   4.438  0.6092 -0.8403 -0.2033
30167SOL    HW191079   7.857   7.278   4.388  0.1823  2.3978  1.1257
30167SOL    HW291080   7.713   7.232   4.374  1.3604 -1.1218 -0.9983
30168SOL     OW91081   8.131   5.336   4.425 -0.2574  0.1809  0.0036
30168SOL    HW191082   8.221   5.353   4.452 -0.5407  1.7524  0.0739
30168SOL    HW291083   8.112   5.406   4.362 -1.2482 -0.4776 -0.4590
30169SOL     OW91084   3.432   9.457   0.904 -0.0629 -0.0416 -0.4117
30169SOL    HW191085   3.379   9.419   0.974  0.3355  1.9733  1.0784
30169SOL    HW291086   3.392   9.543   0.888  1.3190  0.5237 -0.9575
30170SOL     OW91087   5.561   7.048   3.793 -0.9189  0.2312  0.3421
30170SOL    HW191088   5.578   6.996   3.714 -1.8924  1.2558 -0.5817
30170SOL    HW291089   5.491   7.000   3.838 -1.1640  0.2480 -0.0192
30171SOL     OW91090   0.464   4.160   8.394  0.5151  0.3540 -0.0561
30171SOL    HW191091   0.391   4.099   8.391  0.0644  0.9074 -0.7702
30171SOL    HW291092   0.441   4.221   8.464 -0.9122  1.9455 -1.8025
30172SOL     OW91093   7.055   4.547   8.085  0.6245 -0.5293 -0.1495
30172SOL    HW191094   7.015   4.615   8.138  2.3978  0.5408 -0.1161
30172SOL    HW291095   7.147   4.573   8.077  1.0106 -2.1085 -1.4319
30173SOL     OW91096   6.621   1.785   4.271 -0.1297 -0.3016 -0.0838
30173SOL    HW191097   6.535   1.749   4.289 -0.4144 -0.5287 -1.7059
30173SOL    HW291098   6.682   1.716   4.296 -0.3013  0.2362  2.0357
30174SOL     OW91099   8.133   8.172   7.115 -0.2343 -0.4488 -0.1191
30174SOL    HW191100   8.220   8.204   7.138  0.1883 -1.1637 -0.6795
30174SOL    HW291101   8.149   8.089   7.070 -1.2053 -0.5772 -0.2506
30175SOL     OW91102   7.838   7.733   4.933  0.3465  0.3864 -0.1006
30175SOL    HW191103   7.789   7.666   4.979  1.4164 -0.0208  0.4826
30175SOL    HW291104   7.887   7.686   4.865 -1.4392  1.0110 -1.9206
30176SOL     OW91105   6.761   9.999   8.610 -0.0140 -0.2008  0.2380
30176SOL    HW191106   6.807   9.916   8.595 -0.4903 -0.5683  0.7566
30176SOL    HW291107   6.675   9.973   8.644 -0.1248  0.5067  0.5241
30177SOL     OW91108   8.687   4.334   0.418  0.1119  0.0813 -0.1936
30177SOL    HW191109   8.740   4.387   0.477  0.4509 -2.0387  1.5532
30177SOL    HW291110   8.730   4.343   0.333  0.8841  1.5508  0.3246
30178SOL     OW91111   5.352   7.721   3.821 -0.2302  0.7826 -0.5957
30178SOL    HW191112   5.382   7.654   3.883 -1.3059  1.3595  0.6083
30178SOL    HW291113   5.430   7.772   3.801  0.6464 -0.8670 -1.6448
30179SOL     OW91114   5.437   8.757   5.652  0.3730  0.0611  0.6225
30179SOL    HW191115   5.424   8.827   5.716  0.8286  0.4645  0.2760
30179SOL    HW291116   5.407   8.793   5.569 -1.7948 -1.0338  0.8722
30180SOL     OW91117   6.027   1.475   9.004 -0.3266 -0.1170  0.2762
30180SOL    HW191118   6.020   1.433   8.919 -1.5607 -1.5993  1.0670
30180SOL    HW291119   6.066   1.561   8.985  2.0360 -1.4332 -1.4502
30181SOL     OW91120   1.607   3.808   6.424  0.1033  0.5091  0.4306
30181SOL    HW191121   1.583   3.899   6.442 -1.0371  0.7077 -1.7777
30181SOL    HW291122   1.653   3.780   6.503 -0.3039  2.7064  1.5408
30182SOL     OW91123   4.568   0.617   7.225 -0.0262 -0.0587 -0.0879
30182SOL    HW191124   4.567   0.523   7.206 -2.2398  0.3239 -2.4241
30182SOL    HW291125   4.478   0.637   7.250  0.5812  1.3719  1.1017
30183SOL     OW91126   6.988   3.122   2.863  0.3443  0.0956 -0.1119
30183SOL    HW191127   6.980   3.100   2.955 -0.3660 -0.2953 -0.2577
30183SOL    HW291128   6.902   3.102   2.826 -0.6119  3.6600 -0.1823
30184SOL     OW91129   1.822   2.618   8.141 -0.1227 -0.7716 -0.0404
30184SOL    HW191130   1.763   2.552   8.105  1.9006 -2.8687  0.2468
30184SOL    HW291131   1.804   2.617   8.235 -1.7433  0.8993 -0.2780
30185SOL     OW91132   2.735   7.808   6.843  0.1628 -0.1238 -0.5578
30185SOL    HW191133   2.800   7.799   6.773  1.0293 -0.3505  0.2476
30185SOL    HW291134   2.753   7.893   6.882 -1.3284  0.6916 -1.5824
30186SOL     OW91135   3.822   0.072   2.069  0.5093  0.2543 -0.3360
30186SOL    HW191136   3.821  -0.020   2.096 -1.1120 -0.2305 -1.8533
30186SOL    HW291137   3.906   0.084   2.025  0.8030 -0.4447  0.0294
30187SOL     OW91138   5.032   8.662   9.643 -0.7202  0.4289 -0.4205
30187SOL    HW191139   5.034   8.579   9.595 -2.6455  0.2767 -0.3125
30187SOL    HW291140   5.073   8.642   9.727  0.0468 -0.0494 -0.8944
30188SOL     OW91141   6.083   6.667   0.434 -0.0685  0.1316 -0.7647
30188SOL    HW191142   6.045   6.704   0.513  1.0348 -2.6901  1.2297
30188SOL    HW291143   6.142   6.736   0.401 -2.5432  2.4065 -0.7958
30189SOL     OW91144   8.572   1.639   3.408 -0.4817 -0.7968 -0.0133
30189SOL    HW191145   8.665   1.636   3.431 -0.2148  2.0021 -0.4223
30189SOL    HW291146   8.529   1.588   3.477  1.4312 -3.7803 -0.8460
30190SOL     OW91147   6.652   4.536   2.685  0.1286 -0.5047  0.2126
30190SOL    HW191148   6.564   4.509   2.710 -0.0219 -0.4781 -0.2703
30190SOL    HW291149   6.650   4.632   2.690  0.1013 -0.4999  0.1140
30191SOL     OW91150   0.443   0.298   7.774  0.1395 -0.1036  0.4866
30191SOL    HW191151   0.374   0.331   7.717  1.2134  1.5971  0.0982
30191SOL    HW291152   0.457   0.208   7.745 -1.1225 -0.1036 -0.1710
30192SOL     OW91153   2.150   4.248   8.069 -0.6535 -0.3302 -0.0562
30192SOL    HW191154   2.066   4.205   8.083 -0.9036 -0.2308 -1.1635
30192SOL    HW291155   2.144   4.330   8.118 -1.0509 -0.5030  0.1837
30193SOL     OW91156   0.713   4.739   2.444 -0.1145  0.1704 -0.1964
30193SOL    HW191157   0.806   4.736   2.470  0.1849  0.0237 -1.2537
30193SOL    HW291158   0.713   4.784   2.360 -1.0784  0.6755  0.0632
30194SOL     OW91159   2.141   2.658   5.235 -0.2688  0.0492  1.0302
30194SOL    HW191160   2.200   2.614   5.296 -0.2564  2.2068  2.6651
30194SOL    HW291161   2.083   2.711   5.290 -1.7513  0.3702 -0.7146
30195SOL     OW91162   3.167   5.502   1.588 -0.0762  0.0819 -0.0618
30195SOL    HW191163   3.106   5.565   1.625 -0.1846  0.0922 -0.2560
30195SOL    HW291164   3.230   5.485   1.658  0.9310  1.6493 -0.5430
30196SOL     OW91165   4.620   8.825   8.673 -0.1211  0.2053 -0.4471
30196SOL    HW191166   4.569   8.898   8.637 -0.5778  0.0765 -0.0777
30196SOL    HW291167   4.612   8.756   8.607  0.7889  0.6739 -1.0660
30197SOL     OW91168   5.066   7.855   6.835 -0.2443  0.1676 -0.3770
30197SOL    HW191169   5.002   7.835   6.766 -0.0921 -2.1364  0.0478
30197SOL    HW291170   5.025   7.925   6.886 -1.6654 -0.0677 -1.1175
30198SOL     OW91171   5.294   6.973   6.521 -0.2862 -0.1656 -0.0753
30198SOL    HW191172   5.365   7.036   6.532 -1.2302  0.8803  0.0759
30198SOL    HW291173   5.230   6.996   6.587 -1.2840 -0.3844 -0.9399
30199SOL     OW91174   3.886   3.548   8.561 -0.3212 -0.0027  0.2633
30199SOL    HW191175   3.892   3.642   8.578  0.4128  0.3782 -1.8259
30199SOL    HW291176   3.955   3.509   8.615  0.1699  0.8027  0.2179
30200SOL     OW91177   6.010   8.935  -0.004 -0.2485  0.5247  0.1560
30200SOL    HW191178   5.986   8.859  -0.057 -0.4792  0.3446  0.5183
30200SOL    HW291179   6.055   8.899   0.072  0.0591  0.7821  0.1021
30201SOL     OW91180   3.319   9.036   0.169  0.3223  0.2047  0.1638
30201SOL    HW191181   3.369   8.992   0.237 -0.0065 -1.4239 -0.5987
30201SOL    HW291182   3.366   9.118   0.153  1.4755 -0.2804  0.9866
30202SOL     OW91183   2.407   1.975   7.899 -0.0374 -0.1465 -0.1139
30202SOL    HW191184   2.349   2.049   7.915 -0.4129 -0.0714 -1.7310
30202SOL    HW291185   2.391   1.950   7.808  1.2911 -1.1649 -0.0999
30203SOL     OW91186   8.986   9.313   2.381 -0.2064 -0.7010  0.3340
30203SOL    HW191187   8.925   9.250   2.343  0.5951 -0.8745 -0.7271
30203SOL    HW291188   8.951   9.398   2.356  0.1222 -0.8067 -0.5037
30204SOL     OW91189   5.102   3.250   2.522 -0.1027  0.0969 -0.1432
30204SOL    HW191190   5.023   3.276   2.569 -0.1729  0.1620 -0.2962
30204SOL    HW291191   5.082   3.164   2.486  0.1265 -0.1737  0.3525
30205SOL     OW91192   8.026   2.209   7.313  0.1872 -0.0052 -0.0033
30205SOL    HW191193   8.115   2.196   7.345 -0.1615  0.1595  1.1009
30205SOL    HW291194   7.985   2.124   7.322  0.0352  0.0844  0.1550
30206SOL     OW91195   1.125   0.948   1.338  0.2400  0.1308  0.3023
30206SOL    HW191196   1.171   0.902   1.267 -0.4235 -0.2479  0.1016
30206SOL    HW291197   1.187   1.013   1.369  1.4579 -1.3423  1.0451
30207SOL     OW91198   5.725   9.304   4.181 -0.2321  0.3628  0.0395
30207SOL    HW191199   5.771   9.334   4.102 -1.2338  1.4180 -0.1703
30207SOL    HW291200   5.794   9.288   4.245  0.5394  0.2468 -0.8078
30208SOL     OW91201   0.564   8.586   9.087 -0.8863  0.3662  0.6390
30208SOL    HW191202   0.621   8.544   9.152  0.7600  0.0135 -0.9474
30208SOL    HW291203   0.600   8.674   9.077 -0.6093  0.1558 -0.3464
30209SOL     OW91204   8.938   4.856   2.996  0.7826 -0.2392  0.3578
30209SOL    HW191205   8.883   4.819   3.065  1.1396 -0.4330  0.5399
30209SOL    HW291206   8.909   4.948   2.990  0.0211 -0.4882  0.0218
30210SOL     OW91207   5.946   9.833   0.600 -0.7839  0.3787 -0.1270
30210SOL    HW191208   5.935   9.745   0.564 -0.2232  0.7461 -1.2431
30210SOL    HW291209   5.857   9.863   0.619 -0.9641 -0.5113  0.5156
30211SOL     OW91210   9.623   1.023   2.203  0.0347 -0.1402  0.3925
30211SOL    HW191211   9.663   0.940   2.228  0.7074  0.2521  0.6677
30211SOL    HW291212   9.588   1.007   2.115  3.0314  0.1378 -1.0133
30212SOL     OW91213   7.349   6.256   7.124 -0.2064  0.1800  0.6716
30212SOL    HW191214   7.296   6.242   7.046  0.8654  0.1083 -0.0752
30212SOL    HW291215   7.398   6.336   7.105 -0.9114  0.9267  1.8481
30213SOL     OW91216   3.174   4.497   9.382  0.9094  0.1315  0.1738
30213SOL    HW191217   3.159   4.449   9.463  2.1085  0.0329  0.3457
30213SOL    HW291218   3.092   4.544   9.367  0.0631 -1.1942  0.5114
30214SOL     OW91219   2.043   8.555   5.543  0.0832  0.3467  0.5987
30214SOL    HW191220   1.949   8.566   5.555 -0.3772 -3.1501  1.3793
30214SOL    HW291221   2.052   8.526   5.452  0.9011  3.6867 -0.5398
30215SOL     OW91222   8.503   5.983   9.610 -0.0913 -0.0732 -0.0615
30215SOL    HW191223   8.458   5.920   9.666 -0.5680  0.0193 -0.3400
30215SOL    HW291224   8.513   5.938   9.526  0.5138 -0.1650  0.0534
30216SOL     OW91225   2.777   7.587   0.229  0.5303  0.3365  0.2167
30216SOL    HW191226   2.850   7.587   0.167  1.0198  0.3411  0.7828
30216SOL    HW291227   2.731   7.670   0.213  0.8130  0.4605  0.0442
30217SOL     OW91228   8.996   8.293   8.897  0.0909 -0.0296 -0.5280
30217SOL    HW191229   9.025   8.236   8.968  0.1638  1.4135  0.6478
30217SOL    HW291230   9.077   8.320   8.853  0.2147  0.5742  0.0511
30218SOL     OW91231   2.593   4.903   2.757  0.3305 -0.1850 -0.4055
30218SOL    HW191232   2.656   4.859   2.699  1.1439  0.0284  0.2944
30218SOL    HW291233   2.596   4.995   2.729 -0.3031 -0.3129 -0.9201
30219SOL     OW91234   8.797   3.767   7.967 -0.3000 -0.2866 -0.6213
30219SOL    HW191235   8.774   3.831   8.034  3.1643  1.9470 -1.3175
30219SOL    HW291236   8.846   3.700   8.014 -2.1304 -1.4361 -0.2412
30220SOL     OW91237   9.491   3.316   9.477  0.5351  0.6264 -0.3549
30220SOL    HW191238   9.574   3.331   9.522  0.3788  0.0209  0.1379
30220SOL    HW291239   9.428   3.371   9.524  0.7693  1.6453 -1.1672
30221SOL     OW91240   3.113   3.256   0.486 -0.1822 -0.2136 -0.1200
30221SOL    HW191241   3.075   3.329   0.536 -2.4918 -0.9240 -0.7023
30221SOL    HW291242   3.205   3.280   0.475 -0.0558  0.9663  2.6164
30222SOL     OW91243   8.482   6.571   3.366 -0.4650 -0.1769 -0.1582
30222SOL    HW191244   8.453   6.519   3.441 -3.8797  1.1350 -0.4019
30222SOL    HW291245   8.485   6.661   3.398 -0.6477  0.2387 -1.2473
30223SOL     OW91246   9.450   5.853   2.931  0.2665 -0.4809 -0.1680
30223SOL    HW191247   9.488   5.864   2.844  0.7835 -2.0773 -0.1779
30223SOL    HW291248   9.418   5.940   2.954  0.6456  0.1032 -1.7001
30224SOL     OW91249   9.851   8.222   6.883 -0.3372 -0.0743 -0.0813
30224SOL    HW191250   9.901   8.160   6.937 -0.1155  0.2033  0.0315
30224SOL    HW291251   9.918   8.274   6.838 -0.5084 -0.6318 -1.0101
30225SOL     OW91252   9.530   5.139   4.946 -0.2523 -0.3938 -0.2590
30225SOL    HW191253   9.589   5.126   4.871  2.3216  1.6801  1.2071
30225SOL    HW291254   9.582   5.110   5.021 -1.8339 -0.1508  0.9574
30226SOL     OW91255   4.543   6.248   9.698 -0.3081  0.3215  0.1486
30226SOL    HW191256   4.463   6.279   9.739  1.1246  0.1822  3.3520
30226SOL    HW291257   4.517   6.169   9.651 -1.9451 -0.2683  1.9013
30227SOL     OW91258   1.879   0.155   8.572  0.0363  0.1975  0.1495
30227SOL    HW191259   1.827   0.075   8.576  1.5061 -0.7879  0.2123
30227SOL    HW291260   1.956   0.131   8.521 -0.1041  1.9573 -1.0022
30228SOL     OW91261   3.205   7.033   6.173 -0.5663  0.1431 -0.1121
30228SOL    HW191262   3.255   6.967   6.220  0.8168  0.9165 -0.4630
30228SOL    HW291263   3.116   6.997   6.170 -0.3454 -0.6805  1.6212
30229SOL     OW91264   2.077   1.271   3.438 -0.6348 -0.4679 -0.2932
30229SOL    HW191265   1.992   1.280   3.393 -1.8941 -1.8645  1.6333
30229SOL    HW291266   2.089   1.354   3.484 -0.8348 -0.1755 -0.7567
30230SOL     OW91267  10.000   8.256   2.500 -0.2594  0.5331  0.2747
30230SOL    HW191268   9.918   8.211   2.480 -0.9668  1.9746 -0.2004
30230SOL    HW291269   9.985   8.347   2.472  1.2113  1.0071  0.9352
30231SOL     OW91270   2.099   3.553   8.108 -0.0468 -0.2108  0.1024
30231SOL    HW191271   2.010   3.588   8.112 -0.1138 -0.4774  1.1685
30231SOL    HW291272   2.155   3.631   8.113 -0.2203 -0.0860  0.1028
30232SOL     OW91273   4.800   8.939   2.059  0.1884  0.5061 -0.0078
30232SOL    HW191274   4.789   9.034   2.061 -0.6256  0.4171  0.1106
30232SOL    HW291275   4.868   8.924   1.993 -1.4741  1.0096 -1.9337
30233SOL     OW91276   7.002   3.702   1.562  0.5181 -0.1542  0.4835
30233SOL    HW191277   7.001   3.726   1.655 -0.2878 -1.5714  0.8708
30233SOL    HW291278   7.043   3.777   1.519  0.6331  0.6688  1.9384
30234SOL     OW91279   7.609   7.817   2.308 -0.5160  0.0542  0.3703
30234SOL    HW191280   7.516   7.811   2.331 -0.8715  1.7797 -0.5070
30234SOL    HW291281   7.610   7.823   2.213  0.4054  1.3025  0.4438
30235SOL     OW91282   3.278   0.877   1.741 -0.5013  0.2175 -0.0509
30235SOL    HW191283   3.311   0.814   1.677 -1.4677  0.7874 -1.1462
30235SOL    HW291284   3.338   0.951   1.735  1.0385 -0.7904  1.7182
30236SOL     OW91285   4.730   0.200   4.212  0.3185  0.5604  0.1027
30236SOL    HW191286   4.703   0.109   4.226  0.4070 -0.0648 -3.1406
30236SOL    HW291287   4.649   0.250   4.223  0.3835  0.2706  2.5760
30237SOL     OW91288   6.173   2.777   8.406 -0.8868  0.3235 -0.2763
30237SOL    HW191289   6.198   2.869   8.419  1.7173 -0.1302 -1.4632
30237SOL    HW291290   6.171   2.740   8.494 -0.8019  1.2558  0.1277
30238SOL     OW91291   2.811   3.868   9.130 -0.8780 -0.3082 -0.0840
30238SOL    HW191292   2.898   3.907   9.143 -1.1875 -0.0109  1.3441
30238SOL    HW291293   2.760   3.936   9.086 -0.3275 -0.5853 -1.1808
30239SOL     OW91294   1.222   0.037   1.287 -0.0211  0.0749  0.3234
30239SOL    HW191295   1.136   0.029   1.246  0.1389  0.1486 -0.0254
30239SOL    HW291296   1.202   0.065   1.377 -0.4724 -1.9068  0.8999
30240SOL     OW91297   9.016   2.070   4.825 -0.2638 -0.0369  0.1056
30240SOL    HW191298   9.077   1.997   4.817 -0.6136 -0.2064 -1.2731
30240SOL    HW291299   9.070   2.146   4.844  0.4522 -0.0970 -1.5586
30241SOL     OW91300   4.251   3.352   2.493 -0.3161  0.0708 -0.2871
30241SOL    HW191301   4.177   3.312   2.447  1.1366 -1.4672 -1.4128
30241SOL    HW291302   4.264   3.296   2.570 -0.5887  0.6127  0.1620
30242SOL     OW91303   5.743   4.098   4.074  0.4043  0.1189  0.2402
30242SOL    HW191304   5.719   4.132   4.160  0.9644 -0.4751  0.6387
30242SOL    HW291305   5.837   4.083   4.079  0.2075 -1.3644  0.0551
30243SOL     OW91306   8.826   3.509   4.018  0.0730  0.2728  0.3232
30243SOL    HW191307   8.839   3.457   4.097 -1.0937  1.3710  1.2769
30243SOL    HW291308   8.814   3.444   3.949  3.8047 -0.7610  0.4340
30244SOL     OW91309   1.623   8.028   3.825 -0.5622  0.0353  0.3279
30244SOL    HW191310   1.710   8.062   3.803 -0.5443 -1.1689 -1.6942
30244SOL    HW291311   1.565   8.103   3.814  0.0583  0.5488  0.4799
30245SOL     OW91312   6.967   5.600   1.508  0.3202 -0.0578 -0.0991
30245SOL    HW191313   6.932   5.614   1.596  1.4750  1.3318  0.1828
30245SOL    HW291314   7.060   5.581   1.522  0.3209 -0.7486 -0.9747
30246SOL     OW91315   5.119   6.620   8.710  0.0449 -0.5038  0.2502
30246SOL    HW191316   5.139   6.581   8.625 -1.1445 -2.6722  0.8986
30246SOL    HW291317   5.079   6.550   8.760 -2.1364  1.5326  1.5745
30247SOL     OW91318   3.154   0.117   6.261 -0.6502  0.0875 -0.5483
30247SOL    HW191319   3.176   0.169   6.339 -0.1433 -0.0985 -0.5652
30247SOL    HW291320   3.081   0.061   6.290 -0.6627  0.2299 -0.2965
30248SOL     OW91321   9.816   1.729   3.522 -0.0115  0.5745  0.0606
30248SOL    HW191322   9.908   1.717   3.546  0.4700  0.7224 -1.6028
30248SOL    HW291323   9.769   1.717   3.604  1.4432 -0.0455  0.8535
30249SOL     OW91324   1.623   9.878   1.928 -0.4261  0.1772  0.6107
30249SOL    HW191325   1.618   9.811   1.996 -1.6938 -1.1165 -0.6706
30249SOL    HW291326   1.592   9.958   1.971 -1.4685 -0.6668  1.5017
30250SOL     OW91327   5.750   0.273   1.494 -0.2696 -0.1383 -0.6284
30250SOL    HW191328   5.824   0.222   1.526 -0.9227  0.3639  1.8622
30250SOL    HW291329   5.674   0.234   1.537 -1.1098  1.1851 -0.8627
30251SOL     OW91330   8.827   9.199   8.478 -0.4574 -0.0705  0.4457
30251SOL    HW191331   8.859   9.201   8.388 -0.0870  1.1936  0.5906
30251SOL    HW291332   8.748   9.253   8.477  0.6348  1.6257  1.2595
30252SOL     OW91333   2.519   2.686   6.189 -0.0258 -0.1819  0.2148
30252SOL    HW191334   2.434   2.722   6.214 -0.1141 -1.3021  1.6862
30252SOL    HW291335   2.498   2.610   6.135  0.0574 -0.0834  0.0440
30253SOL     OW91336   6.413   6.000   3.277 -0.1374 -0.1757 -0.0377
30253SOL    HW191337   6.458   5.956   3.350  1.0825  0.5009 -0.3654
30253SOL    HW291338   6.418   6.093   3.298  0.2462  0.0281 -0.9963
30254SOL     OW91339   5.214   4.412   3.031  0.2550 -0.6879  0.2420
30254SOL    HW191340   5.210   4.473   2.957  1.7484 -0.3190  0.4430
30254SOL    HW291341   5.178   4.331   2.996 -0.7072 -0.0232 -0.3668
30255SOL     OW91342   2.270   9.740   7.659 -0.3634 -0.1428 -0.4144
30255SOL    HW191343   2.303   9.806   7.719 -1.1328  0.8496 -1.0340
30255SOL    HW291344   2.202   9.694   7.708  0.5205 -0.8276  0.1861
30256SOL     OW91345   0.335   8.882   0.045  0.3157  0.2291  0.2764
30256SOL    HW191346   0.328   8.801   0.095  0.6420 -0.2449 -0.4163
30256SOL    HW291347   0.356   8.853  -0.044  0.2033  1.0657 -0.0339
30257SOL     OW91348   0.718   1.686  -0.017  0.1104 -0.0324  0.1612
30257SOL    HW191349   0.761   1.632   0.049  1.0767 -0.1983 -0.5835
30257SOL    HW291350   0.775   1.763  -0.026  0.7942 -0.6910 -1.5182
30258SOL     OW91351   0.818   0.229   5.363 -0.6890 -0.0747 -0.3789
30258SOL    HW191352   0.782   0.170   5.430  1.1394 -1.2521 -0.3718
30258SOL    HW291353   0.819   0.315   5.406  0.1051 -0.7393  1.0082
30259SOL     OW91354   3.001   5.168   9.471 -0.3828  0.0294  0.0947
30259SOL    HW191355   3.025   5.260   9.461 -2.2667  0.4778 -0.6528
30259SOL    HW291356   2.950   5.165   9.552 -0.4308 -0.3506  0.0545
30260SOL     OW91357   2.346   3.775   2.973  0.3920 -0.0900 -0.1449
30260SOL    HW191358   2.435   3.750   2.947  0.3864 -0.2405 -0.0205
30260SOL    HW291359   2.307   3.811   2.894  0.5554 -0.0486 -0.2077
30261SOL     OW91360   1.279   8.366   8.284  0.3056  0.2113 -0.8886
30261SOL    HW191361   1.332   8.287   8.292 -1.0865 -0.7715 -0.8913
30261SOL    HW291362   1.195   8.335   8.249 -0.0127  1.8113 -1.6189
30262SOL     OW91363   1.093   5.382   3.846  0.4343 -0.4417  0.5527
30262SOL    HW191364   0.999   5.395   3.857  0.3734 -0.0094 -0.3874
30262SOL    HW291365   1.131   5.416   3.927 -0.1727  0.0049  0.6601
30263SOL     OW91366   2.121   3.142   2.578 -0.2485 -0.1801  0.3263
30263SOL    HW191367   2.203   3.180   2.548 -0.1177 -0.4285  0.3638
30263SOL    HW291368   2.112   3.173   2.668 -1.3395  1.7041 -0.3985
30264SOL     OW91369   3.495   7.295   1.690 -0.6564  0.1702  0.2765
30264SOL    HW191370   3.573   7.275   1.638 -1.0678  0.3650 -0.4260
30264SOL    HW291371   3.422   7.268   1.635 -1.1550  1.5591  0.2109
30265SOL     OW91372   3.899   2.428   1.475  0.0931 -0.0850 -0.3740
30265SOL    HW191373   3.843   2.489   1.426  0.7962  2.4773  1.8078
30265SOL    HW291374   3.838   2.377   1.527 -0.4104  1.8637  1.0810
30266SOL     OW91375   1.188   3.063   5.476 -0.8138 -0.2100  0.2430
30266SOL    HW191376   1.232   3.131   5.528  2.7923 -0.3130 -2.3103
30266SOL    HW291377   1.244   2.986   5.486 -2.0474 -1.3004 -0.9132
30267SOL     OW91378   1.958   4.582   3.662 -0.5167 -0.0895 -0.1080
30267SOL    HW191379   2.004   4.644   3.605 -0.0692  0.4651  0.8429
30267SOL    HW291380   1.920   4.518   3.601  0.2898  0.2565 -1.0029
30268SOL     OW91381   4.015   7.582   9.672 -0.7244 -0.4460  0.1541
30268SOL    HW191382   3.955   7.654   9.653 -2.1541 -0.4864  3.7374
30268SOL    HW291383   3.958   7.507   9.686  0.4212 -1.2845  0.4287
30269SOL     OW91384   1.940   7.346   6.815  0.0474  0.3957  0.4206
30269SOL    HW191385   2.003   7.274   6.820  0.1284  0.4794  0.6052
30269SOL    HW291386   1.879   7.319   6.746 -0.3358 -0.1848  0.9704
30270SOL     OW91387   8.592   8.429   6.848 -0.6977 -0.2395 -0.6323
30270SOL    HW191388   8.574   8.363   6.780  0.2538  1.1028 -2.2762
30270SOL    HW291389   8.518   8.490   6.842 -1.1929 -0.7303  0.3614
30271SOL     OW91390   4.073   5.764   9.434 -0.0954 -0.0303  0.2286
30271SOL    HW191391   4.061   5.827   9.505  0.1674  0.4144 -0.1189
30271SOL    HW291392   4.094   5.682   9.479 -1.0630 -0.0374  0.7130
30272SOL     OW91393   5.965   3.970   1.032 -0.0365  0.4110 -0.1929
30272SOL    HW191394   6.037   3.957   0.970 -1.3888  3.5576 -2.7415
30272SOL    HW291395   6.004   4.023   1.103  0.9627 -1.1617  0.4797
30273SOL     OW91396   6.421   4.464   0.965 -0.4690  0.1463  0.2890
30273SOL    HW191397   6.404   4.557   0.953  1.6716  0.4507 -0.8443
30273SOL    HW291398   6.515   4.454   0.947 -0.4795 -2.1025  1.1691
30274SOL     OW91399   6.340   0.791   1.100 -0.2326  0.1655  0.0053
30274SOL    HW191400   6.336   0.871   1.048  0.0343  1.3677  1.7818
30274SOL    HW291401   6.422   0.797   1.149  0.7345 -2.1002 -1.1783
30275SOL     OW91402   5.811   8.336   5.226  0.5411 -0.4702 -1.3382
30275SOL    HW191403   5.832   8.423   5.258  0.4341 -1.1231  0.6250
30275SOL    HW291404   5.740   8.350   5.163  0.7729  0.8753 -1.3296
30276SOL     OW91405   0.390   2.992   5.235  0.2906 -0.4070 -0.0303
30276SOL    HW191406   0.444   2.923   5.197  1.4233  0.5511 -0.2188
30276SOL    HW291407   0.403   2.984   5.329  0.1739 -0.6440 -0.0342
30277SOL     OW91408   7.972   5.950   4.548  0.3746 -0.1295  0.2770
30277SOL    HW191409   8.035   6.018   4.521  1.4788 -0.6456  1.4857
30277SOL    HW291410   7.947   5.974   4.637 -0.8020 -0.2013 -0.0171
30278SOL     OW91411   3.956   0.940   2.426  0.1476 -0.0863  0.6898
30278SOL    HW191412   3.997   0.966   2.509 -1.1130 -0.8517  1.5793
30278SOL    HW291413   3.935   1.023   2.383 -1.7784  0.4350  2.4650
30279SOL     OW91414   3.987   0.436   1.939 -0.2633 -0.4636  0.3180
30279SOL    HW191415   3.983   0.531   1.929  0.4129 -0.4665  0.0012
30279SOL    HW291416   4.072   0.419   1.979 -0.0630 -0.9934 -0.3121
30280SOL     OW91417   8.088   6.147   1.268 -0.1717 -0.1758  0.4041
30280SOL    HW191418   8.125   6.145   1.180  1.0543  2.2529  0.7671
30280SOL    HW291419   7.994   6.141   1.255 -0.0987  1.3912 -1.2175
30281SOL     OW91420   2.229   2.131   6.716  0.1968 -0.0505  0.1078
30281SOL    HW191421   2.265   2.049   6.684  3.0033  1.3409 -0.6044
30281SOL    HW291422   2.291   2.160   6.783 -2.6192 -0.1598  3.0213
30282SOL     OW91423   8.491   5.716   4.741 -0.3858 -0.3935 -0.1458
30282SOL    HW191424   8.447   5.633   4.757 -0.9301 -0.2129 -0.6658
30282SOL    HW291425   8.580   5.692   4.715 -0.4118 -0.7948  0.1335
30283SOL     OW91426   4.895   7.477   4.649 -0.3570  0.2434  0.1789
30283SOL    HW191427   4.844   7.557   4.644 -0.3782  0.2864  0.9857
30283SOL    HW291428   4.830   7.407   4.654 -0.3542  0.0871 -1.3979
30284SOL     OW91429   1.564   1.840   5.349  0.0460 -0.0605 -0.8752
30284SOL    HW191430   1.481   1.837   5.301 -0.0690 -0.0858 -0.6753
30284SOL    HW291431   1.556   1.916   5.406 -0.5166 -1.0023  0.3555
30285SOL     OW91432   0.940   5.562   9.466 -0.2057  0.2236 -0.4592
30285SOL    HW191433   0.927   5.618   9.542 -1.0957  0.7816 -0.9934
30285SOL    HW291434   1.007   5.500   9.492 -0.8122  0.1243  0.9216
30286SOL     OW91435   6.615   6.501   6.564  0.3772  0.2442 -0.2213
30286SOL    HW191436   6.552   6.561   6.606 -0.6920 -1.4414  0.6747
30286SOL    HW291437   6.609   6.521   6.471 -0.6712  0.8739 -0.0327
30287SOL     OW91438   9.449   9.081   1.608 -0.0692 -0.2494 -0.6670
30287SOL    HW191439   9.457   8.991   1.575  0.1681 -0.3400 -0.3669
30287SOL    HW291440   9.538   9.108   1.628 -0.3140 -0.8371  1.5574
30288SOL     OW91441   1.212   9.021   4.835 -0.2987 -0.4162  0.3173
30288SOL    HW191442   1.184   8.933   4.810  2.0214 -1.4288  1.0332
30288SOL    HW291443   1.189   9.029   4.927 -1.4431  0.1713  0.0041
30289SOL     OW91444   5.033   7.074   9.180 -0.3618  0.3486 -0.3904
30289SOL    HW191445   5.072   7.025   9.108 -0.5034  0.3434 -0.4625
30289SOL    HW291446   5.000   7.007   9.239  2.0231  0.2527  0.9750
30290SOL     OW91447   8.361   6.204   2.201 -0.0779  0.0151 -0.7639
30290SOL    HW191448   8.446   6.244   2.184  0.6015  0.0138  2.0950
30290SOL    HW291449   8.382   6.117   2.235 -1.0297  0.8056  2.0666
30291SOL     OW91450   8.023   6.162   2.890  0.5669 -0.3265  0.7796
30291SOL    HW191451   7.954   6.227   2.876  0.3568 -0.6198  0.4405
30291SOL    HW291452   8.097   6.213   2.924  1.0731  0.4284 -1.2964
30292SOL     OW91453   7.159   5.088   7.493  0.3498 -0.3265 -0.1865
30292SOL    HW191454   7.096   5.097   7.421  0.0191  0.4577  0.1864
30292SOL    HW291455   7.200   5.174   7.500 -0.8048  0.1404  1.6126
30293SOL     OW91456   8.410   5.623   6.287  0.2736 -0.1048 -0.0989
30293SOL    HW191457   8.452   5.704   6.315  0.4184 -0.5125  0.9184
30293SOL    HW291458   8.436   5.613   6.196  0.1345  1.0629 -0.2905
30294SOL     OW91459   3.770   1.653   3.812  0.1714 -0.2935 -0.1282
30294SOL    HW191460   3.861   1.630   3.829  0.8367  2.2462  0.2053
30294SOL    HW291461   3.739   1.693   3.893 -0.5528  0.7730 -0.8964
30295SOL     OW91462   9.603   3.308   2.994  0.0530  0.3758 -0.4216
30295SOL    HW191463   9.638   3.343   2.912  0.2459  1.8080  0.2539
30295SOL    HW291464   9.634   3.217   2.996  1.6935  0.8851 -1.0095
30296SOL     OW91465   6.432   4.149   2.887 -0.0850  0.4844  0.0385
30296SOL    HW191466   6.400   4.150   2.797  1.0398  0.6387 -0.3839
30296SOL    HW291467   6.403   4.065   2.923  0.9142 -0.3535 -1.0343
30297SOL     OW91468   2.291   0.867   5.782  0.3332 -0.0288 -0.1293
30297SOL    HW191469   2.294   0.950   5.735  0.8699 -1.2714 -2.4636
30297SOL    HW291470   2.289   0.891   5.875  0.5483  2.5515 -0.7326
30298SOL     OW91471   7.234   3.392   6.489  0.1622 -0.1691  0.4116
30298SOL    HW191472   7.214   3.325   6.554  1.2909  0.4236  1.4280
30298SOL    HW291473   7.321   3.368   6.457  1.5575  1.8645  2.3286
30299SOL     OW91474   4.467   3.381   0.820  0.2966 -0.0025 -0.1698
30299SOL    HW191475   4.533   3.408   0.756 -0.8261  1.4486 -0.7688
30299SOL    HW291476   4.503   3.301   0.859  2.7100  1.0863  0.0109
30300SOL     OW91477   1.131   2.491   0.501  0.3732 -0.1059 -0.0643
30300SOL    HW191478   1.047   2.457   0.469 -1.0201  2.3395  0.7949
30300SOL    HW291479   1.150   2.566   0.444  1.7763 -0.3462  0.0483
30301SOL     OW91480   2.941   1.881   2.052  0.1132 -0.2098 -0.0220
30301SOL    HW191481   2.851   1.862   2.025  0.1432  0.7185 -0.8394
30301SOL    HW291482   2.982   1.919   1.974  0.9915  0.0800  0.5666
30302SOL     OW91483   6.601   1.183   2.119  0.1722 -0.2310 -0.1551
30302SOL    HW191484   6.627   1.100   2.159  0.6140  0.1407  0.3471
30302SOL    HW291485   6.513   1.167   2.085 -0.1999 -0.5789  0.9275
30303SOL     OW91486   1.348   1.339   5.730 -0.2524  0.2489  0.3080
30303SOL    HW191487   1.337   1.378   5.644  1.7273  0.3352  0.0546
30303SOL    HW291488   1.326   1.409   5.792 -3.2770 -0.2658 -0.0163
30304SOL     OW91489   7.376   2.326   1.285  0.2397 -0.3344 -0.1016
30304SOL    HW191490   7.407   2.386   1.216  1.4155  0.3378  0.9657
30304SOL    HW291491   7.284   2.348   1.295  0.1874 -0.0405 -1.0658
30305SOL     OW91492   7.191   2.334   3.285  0.6487  0.0977 -0.1379
30305SOL    HW191493   7.131   2.405   3.262  1.9023  1.1579 -0.2623
30305SOL    HW291494   7.255   2.375   3.344  0.6269 -1.2665  0.8707
30306SOL     OW91495   0.533   1.469   0.008  0.3423 -0.0268  0.2923
30306SOL    HW191496   0.571   1.533   0.069 -1.5492  2.2288 -0.7000
30306SOL    HW291497   0.590   1.471  -0.068  1.5677 -1.3026  1.1459
30307SOL     OW91498   1.262   1.143   7.648  0.2517 -0.8171  0.4291
30307SOL    HW191499   1.287   1.076   7.584 -1.2636 -2.2340  1.2454
30307SOL    HW291500   1.172   1.165   7.624  0.7300  0.9791  0.1708
30308SOL     OW91501   3.143   4.615   3.375 -0.3504  0.1132  0.1028
30308SOL    HW191502   3.228   4.580   3.402 -0.5302  0.4261  1.1230
30308SOL    HW291503   3.093   4.538   3.348  1.0171  0.1247 -2.8989
30309SOL     OW91504   1.489   0.918   1.739 -0.0567  0.2171 -0.1163
30309SOL    HW191505   1.554   0.973   1.695  0.3867  1.3543  1.8014
30309SOL    HW291506   1.425   0.896   1.671 -0.5172  3.5352 -0.9199
30310SOL     OW91507   8.899   7.041   1.535  0.8289  0.7851  0.1339
30310SOL    HW191508   8.865   7.023   1.448  0.1500  1.2382  0.2964
30310SOL    HW291509   8.990   7.065   1.522  1.2369 -0.8378 -0.2822
30311SOL     OW91510   2.474   3.935   4.529  0.0989  0.0260 -0.3254
30311SOL    HW191511   2.561   3.917   4.493  0.2175 -0.1889  0.0764
30311SOL    HW291512   2.490   3.958   4.620 -0.3802 -1.1965  0.0829
30312SOL     OW91513   2.424   6.992   9.189 -0.4940 -0.5077  0.3996
30312SOL    HW191514   2.487   6.926   9.157 -1.7003 -1.3729 -0.3002
30312SOL    HW291515   2.387   6.953   9.268 -0.5520 -0.2561  0.4951
30313SOL     OW91516   2.855   6.919   6.810  0.5249  0.1726 -0.4768
30313SOL    HW191517   2.842   6.828   6.837 -1.4394  0.5447  0.0384
30313SOL    HW291518   2.895   6.961   6.886  1.0711 -0.1817 -0.5702
30314SOL     OW91519   6.356   5.212   5.209 -0.1391  0.0243  0.0956
30314SOL    HW191520   6.271   5.254   5.218 -0.0819  1.2518 -3.5506
30314SOL    HW291521   6.337   5.118   5.206 -1.1731  0.2082  0.7104
30315SOL     OW91522   5.609   3.640   8.097 -0.4020 -0.0990  0.0409
30315SOL    HW191523   5.525   3.610   8.063 -0.4449  0.2949 -0.2116
30315SOL    HW291524   5.610   3.734   8.078 -0.9429  0.3903  2.1610
30316SOL     OW91525   0.094   6.168   6.850  0.4358  0.2098  0.4260
30316SOL    HW191526   0.092   6.264   6.842  2.7646  0.3000  0.3029
30316SOL    HW291527   0.094   6.137   6.759 -2.7135 -0.1041  0.4073
30317SOL     OW91528   6.512   7.075   5.348  0.1638 -0.0686  0.5112
30317SOL    HW191529   6.421   7.047   5.355 -0.1672  1.0025  0.8471
30317SOL    HW291530   6.507   7.171   5.350  1.2008  0.0397 -0.7614
30318SOL     OW91531   7.002   9.600   7.074  0.3287 -0.3005 -0.8033
30318SOL    HW191532   6.910   9.616   7.093  1.0613  1.5454  1.9545
30318SOL    HW291533   7.009   9.505   7.066 -1.7052 -0.5393 -0.3305
30319SOL     OW91534   0.327   5.713   4.903  0.4167  0.4667 -0.6201
30319SOL    HW191535   0.274   5.648   4.857  1.9614 -0.1310 -1.6262
30319SOL    HW291536   0.295   5.797   4.870 -1.9399  0.3202  1.0613
30320SOL     OW91537   8.747   4.352   3.936  0.5554  0.1495 -0.8479
30320SOL    HW191538   8.824   4.407   3.922  0.9747 -0.7841 -2.5260
30320SOL    HW291539   8.718   4.328   3.848 -1.1244 -0.2620 -0.2251
30321SOL     OW91540   4.482   4.375   3.413 -0.0521 -0.1438  0.0529
30321SOL    HW191541   4.503   4.417   3.330 -0.1717  1.5162  0.8323
30321SOL    HW291542   4.495   4.443   3.479 -1.1614 -1.0558  1.2711
30322SOL     OW91543   6.978   1.477   3.602  0.0632  0.3368 -0.1624
30322SOL    HW191544   7.003   1.522   3.683  0.4546  0.1574 -0.1845
30322SOL    HW291545   6.999   1.540   3.532 -1.9397  1.2442 -0.0392
30323SOL     OW91546   0.900   5.023   5.508  0.2228 -0.3088  0.3361
30323SOL    HW191547   0.859   4.981   5.584 -0.9997  0.0643 -0.1048
30323SOL    HW291548   0.968   5.079   5.546 -1.6351  1.3962  1.3634
30324SOL     OW91549   4.062   4.810   5.177 -0.4415 -0.0314 -0.6483
30324SOL    HW191550   4.087   4.759   5.254  1.2409  1.1415 -0.3616
30324SOL    HW291551   3.967   4.815   5.181 -0.3766  0.1319  1.4570
30325SOL     OW91552   6.336   4.693   2.519 -0.3187 -0.4298 -0.0107
30325SOL    HW191553   6.374   4.781   2.518 -0.2247 -0.4729 -0.2221
30325SOL    HW291554   6.288   4.689   2.602 -0.4487 -0.1253 -0.0693
30326SOL     OW91555   8.404   1.740   5.753  0.1005 -0.2787 -0.2470
30326SOL    HW191556   8.460   1.672   5.792 -0.6587 -0.7925 -0.0340
30326SOL    HW291557   8.455   1.820   5.761 -0.8339  0.1414  3.8944
30327SOL     OW91558   2.910   9.932   9.806  0.3644 -0.1766  0.2518
30327SOL    HW191559   2.882   9.965   9.721  0.9188 -0.7360 -0.1514
30327SOL    HW291560   2.925  10.011   9.859  0.5498  0.1824 -0.3337
30328SOL     OW91561   3.600   6.471   7.049  0.2336 -0.2813 -0.2528
30328SOL    HW191562   3.564   6.530   6.982  2.5863  0.4552 -0.9553
30328SOL    HW291563   3.555   6.496   7.130 -0.3007  1.0678 -0.9346
30329SOL     OW91564   3.335   7.549   2.511  0.1188  0.1726  0.9145
30329SOL    HW191565   3.289   7.585   2.435 -0.2538 -1.0167  0.5552
30329SOL    HW291566   3.391   7.621   2.540  0.0757  0.7494 -0.3196
30330SOL     OW91567   9.922   8.389   3.235  0.4926  0.0920  0.2090
30330SOL    HW191568   9.942   8.326   3.304  0.1368  0.6274  0.8137
30330SOL    HW291569   9.954   8.348   3.155  0.9403 -0.5229  0.6943
30331SOL     OW91570   8.050   9.006   2.258  0.4249 -0.1218  0.8957
30331SOL    HW191571   8.049   8.960   2.342  1.9736 -0.2535  0.8730
30331SOL    HW291572   8.044   9.099   2.280  0.0176 -0.1939  1.0935
30332SOL     OW91573   7.388   7.373   2.060 -0.4112 -0.1445 -0.3018
30332SOL    HW191574   7.464   7.416   2.022 -0.0578 -0.7373 -0.2872
30332SOL    HW291575   7.322   7.441   2.067  0.8944  0.9982  1.9791
30333SOL     OW91576   6.708   0.129   3.155  0.2067  0.4445  0.3431
30333SOL    HW191577   6.678   0.143   3.065  0.5568 -0.3784  0.0903
30333SOL    HW291578   6.651   0.059   3.188  0.2227  0.5950  0.6881
30334SOL     OW91579   0.947   7.990   2.423  0.1997  0.1408 -0.4603
30334SOL    HW191580   1.000   8.026   2.494 -1.1133  0.6812  0.2914
30334SOL    HW291581   0.961   8.049   2.349  1.2859 -0.2126 -0.5594
30335SOL     OW91582   8.541   3.792   0.242  0.0910  0.5145 -0.2089
30335SOL    HW191583   8.456   3.805   0.200  0.2663  0.9263 -0.4527
30335SOL    HW291584   8.555   3.698   0.241 -0.7109  0.3740  0.5318
30336SOL     OW91585   5.398   7.099   8.493 -0.6769  0.2057 -0.1215
30336SOL    HW191586   5.436   7.167   8.437  1.3427 -2.4636 -2.2661
30336SOL    HW291587   5.314   7.079   8.452  0.2792 -0.9295 -1.6209
30337SOL     OW91588   3.388   8.873   9.161 -0.5022  0.2823  0.3505
30337SOL    HW191589   3.381   8.931   9.085  0.5657 -0.4439 -0.3439
30337SOL    HW291590   3.316   8.810   9.149 -0.6369  0.4615  0.2066
30338SOL     OW91591   5.896   6.284   9.868 -0.1101 -0.0970  0.3989
30338SOL    HW191592   5.916   6.367   9.824 -2.2133  0.0786 -0.3435
30338SOL    HW291593   5.801   6.287   9.883  0.2859 -0.8043  3.6740
30339SOL     OW91594   6.736   8.663   7.126 -0.0271 -0.7288  0.0917
30339SOL    HW191595   6.783   8.714   7.060  1.2082 -1.9572 -0.0362
30339SOL    HW291596   6.690   8.596   7.076 -0.2112 -0.8097  0.3697
30340SOL     OW91597   9.118   2.688   1.344  0.0111  0.3627 -0.5595
30340SOL    HW191598   9.163   2.768   1.314  1.2218  0.1093  0.5012
30340SOL    HW291599   9.185   2.620   1.337 -1.0098 -0.5671 -1.4329
30341SOL     OW91600   6.847   8.872   6.975 -0.1111  0.0002  0.4291
30341SOL    HW191601   6.886   8.839   6.893  0.5998  1.6219  0.0772
30341SOL    HW291602   6.770   8.921   6.947 -0.5249 -0.4088  0.8435
30342SOL     OW91603   8.893   7.593   5.319  0.0618  0.5391  0.2698
30342SOL    HW191604   8.861   7.540   5.393 -1.3473 -0.5564 -1.0564
30342SOL    HW291605   8.939   7.530   5.264 -0.2059  1.0358 -0.5248
30343SOL     OW91606   7.974   8.605   7.905  0.1371 -0.1603  0.3772
30343SOL    HW191607   8.033   8.651   7.964 -0.1571  4.3008 -2.3760
30343SOL    HW291608   7.891   8.601   7.953  0.5262  1.1602  1.2251
30344SOL     OW91609   2.956   8.846   6.073 -0.1754  0.2775 -0.3670
30344SOL    HW191610   2.957   8.774   6.137  2.3862  1.0117  0.5390
30344SOL    HW291611   2.888   8.905   6.105  1.1640  0.7124  1.8809
30345SOL     OW91612   8.110   3.425   8.524 -0.2774 -0.0110 -0.2889
30345SOL    HW191613   8.091   3.437   8.431  2.3035  1.7879 -0.6917
30345SOL    HW291614   8.025   3.439   8.568 -1.2779  0.4982 -2.2689
30346SOL     OW91615   3.272   4.502   4.688 -0.7493 -0.3758  0.5769
30346SOL    HW191616   3.351   4.545   4.657 -0.3685 -0.3820  1.5180
30346SOL    HW291617   3.272   4.516   4.783  0.0213 -3.3610  1.1473
30347SOL     OW91618   1.970   5.488   4.052  0.1593  0.6538 -0.0054
30347SOL    HW191619   2.029   5.420   4.087 -0.3866 -0.0262 -0.3953
30347SOL    HW291620   2.029   5.551   4.011  0.6913  0.5451  0.5664
30348SOL     OW91621   2.437   7.423   0.658 -0.0406  0.3039  0.4659
30348SOL    HW191622   2.471   7.511   0.643  1.8493 -0.3581  0.5528
30348SOL    HW291623   2.342   7.431   0.646  0.3255  1.7974 -2.1324
30349SOL     OW91624   6.777   3.528   9.392  0.0099 -0.1831  0.3470
30349SOL    HW191625   6.857   3.507   9.343 -0.3053  0.1794 -0.3295
30349SOL    HW291626   6.795   3.612   9.433  0.0897 -0.2538  0.4589
30350SOL     OW91627   3.373   5.941   3.554 -0.2986  0.0787 -0.1442
30350SOL    HW191628   3.420   5.863   3.583  0.0385  1.4511  3.5221
30350SOL    HW291629   3.307   5.909   3.493  1.6992 -2.6179 -1.0774
30351SOL     OW91630   9.797   6.082   4.574  0.1457  0.1213 -0.0951
30351SOL    HW191631   9.812   5.989   4.558 -1.1812 -0.1980  0.3803
30351SOL    HW291632   9.742   6.084   4.653  0.7217  1.3417  0.2947
30352SOL     OW91633   3.765   3.220   8.307 -0.0171  0.3458 -0.2870
30352SOL    HW191634   3.794   3.134   8.338 -2.4794 -0.4746 -0.0299
30352SOL    HW291635   3.776   3.216   8.212  0.3858 -0.0416 -0.2293
30353SOL     OW91636   6.406   4.657   3.631 -0.3543 -0.3442  0.1723
30353SOL    HW191637   6.327   4.615   3.597 -0.2512 -0.6307  0.2816
30353SOL    HW291638   6.379   4.747   3.650 -0.7185 -0.5054  0.4297
30354SOL     OW91639   1.077   7.618   0.013 -0.0996  0.1288  0.5111
30354SOL    HW191640   1.040   7.533  -0.010 -0.4645  0.2289  0.7149
30354SOL    HW291641   1.068   7.623   0.108 -0.9421  0.7757  0.4130
30355SOL     OW91642   7.434   2.014   7.302 -0.2729 -0.5705 -0.2374
30355SOL    HW191643   7.455   1.923   7.281  0.1676 -0.1443 -1.8214
30355SOL    HW291644   7.360   2.035   7.244 -0.0219  0.2271 -0.2803
30356SOL     OW91645   7.892   3.684   8.541  0.8365 -0.2597 -0.0123
30356SOL    HW191646   7.837   3.606   8.543  0.0349  0.2442 -1.1168
30356SOL    HW291647   7.845   3.747   8.596  0.7765 -0.1173 -0.2261
30357SOL     OW91648   4.879   2.269   7.594  0.2419 -0.0159 -0.3675
30357SOL    HW191649   4.945   2.211   7.556  0.6929  0.0255  0.3500
30357SOL    HW291650   4.880   2.346   7.536  2.1625  0.8069  0.6613
30358SOL     OW91651   9.451   1.286   2.736  0.1270  0.5717 -0.1088
30358SOL    HW191652   9.358   1.305   2.735  0.1561  0.7112 -0.3765
30358SOL    HW291653   9.460   1.205   2.685  0.3250  1.4167 -1.4722
30359SOL     OW91654   9.249   5.502   5.034  0.5212 -0.2616  0.5112
30359SOL    HW191655   9.167   5.457   5.014 -0.4300 -0.4949  4.1555
30359SOL    HW291656   9.309   5.475   4.964 -1.9422 -1.6346 -1.2234
30360SOL     OW91657   1.661   7.439   1.740  0.3044  0.4898  0.4785
30360SOL    HW191658   1.675   7.471   1.829  0.4344  0.7939  0.3480
30360SOL    HW291659   1.700   7.505   1.683 -0.7712  0.8521  0.1386
30361SOL     OW91660   8.886   7.046   0.270 -0.1823 -0.1426  0.1034
30361SOL    HW191661   8.913   7.118   0.327 -0.3619  0.2980 -0.3489
30361SOL    HW291662   8.958   6.983   0.274 -0.9278 -0.9324  2.1308
30362SOL     OW91663   2.209   5.299   6.080 -0.0875 -0.3985 -0.0960
30362SOL    HW191664   2.221   5.205   6.098  2.2615 -0.0273  0.6147
30362SOL    HW291665   2.288   5.340   6.115 -1.2153  1.9120 -0.1088
30363SOL     OW91666   3.786   2.810   9.927 -0.4898 -0.0536 -0.1414
30363SOL    HW191667   3.815   2.802  10.018 -0.8754  0.3103  0.0180
30363SOL    HW291668   3.862   2.843   9.880 -0.0457 -0.9876 -0.1039
30364SOL     OW91669   7.223   0.252   8.387 -0.4949  0.4472  0.0903
30364SOL    HW191670   7.319   0.254   8.384 -0.3909 -2.1397 -2.6875
30364SOL    HW291671   7.203   0.183   8.451 -0.4696  0.3272 -0.0307
30365SOL     OW91672   4.892   2.381   5.311  0.2473 -0.4254  0.1596
30365SOL    HW191673   4.843   2.378   5.229  0.3359  0.1293  0.0803
30365SOL    HW291674   4.872   2.468   5.347  0.3044 -0.6167  0.6649
30366SOL     OW91675   2.749   7.495   7.481 -0.0702  0.5656  0.1592
30366SOL    HW191676   2.800   7.564   7.438  0.8384  0.4619  1.0430
30366SOL    HW291677   2.803   7.416   7.470  0.0973  0.5090  1.3416
30367SOL     OW91678   4.598   2.728   9.722 -0.1141 -0.4263  0.6242
30367SOL    HW191679   4.562   2.815   9.734 -0.5390 -0.7198  1.5846
30367SOL    HW291680   4.530   2.669   9.754  0.5675 -1.0569  0.9382
30368SOL     OW91681   8.851   2.425   0.739  0.6449  0.7139 -0.8058
30368SOL    HW191682   8.822   2.462   0.656  0.0794 -1.1456 -1.5010
30368SOL    HW291683   8.942   2.399   0.724 -0.2760 -2.3437 -1.9598
30369SOL     OW91684   7.645   1.927   2.504  0.3484  0.2825 -0.0861
30369SOL    HW191685   7.587   1.947   2.577  1.5859 -1.4750  1.4847
30369SOL    HW291686   7.678   2.012   2.474 -1.0477  1.1060  0.6358
30370SOL     OW91687   1.163   9.983   6.240 -0.4974  0.0326 -0.0507
30370SOL    HW191688   1.220  10.044   6.195  0.1281  0.0127  0.7042
30370SOL    HW291689   1.203   9.897   6.224  0.1747  0.1022  1.1854
30371SOL     OW91690   6.064   6.154   6.035 -0.1216  0.3365 -0.0437
30371SOL    HW191691   6.145   6.128   6.078  0.7451  0.9704 -1.2555
30371SOL    HW291692   6.021   6.072   6.012  0.5413 -0.0042 -0.0833
30372SOL     OW91693   9.496   3.250   0.103  0.6754 -0.2741 -0.0359
30372SOL    HW191694   9.492   3.163   0.142 -0.1609 -0.1775  0.1121
30372SOL    HW291695   9.563   3.296   0.153  1.1121 -0.8186 -0.1042
30373SOL     OW91696   9.727   2.475   6.561 -0.7902 -0.0142 -0.0610
30373SOL    HW191697   9.792   2.425   6.513  0.5556 -1.8849  3.3941
30373SOL    HW291698   9.652   2.416   6.569 -0.9612  0.2364  0.2216
30374SOL     OW91699   8.457   4.328   3.512 -0.0720  0.0534 -0.3240
30374SOL    HW191700   8.438   4.410   3.559  0.3200 -0.4866  0.8210
30374SOL    HW291701   8.381   4.272   3.530  0.4797 -0.4705  0.4144
30375SOL     OW91702   8.167   5.327   4.014  0.1042  0.0284 -0.0416
30375SOL    HW191703   8.253   5.292   4.034 -0.1552 -0.7636 -0.2901
30375SOL    HW291704   8.122   5.258   3.966 -0.1284  1.0140 -1.3000
30376SOL     OW91705   8.946   4.009   8.506  0.2313 -0.0786 -0.0159
30376SOL    HW191706   8.990   3.929   8.534 -0.4562 -0.0824  1.0828
30376SOL    HW291707   9.004   4.044   8.438  1.2643 -0.7690  0.4698
30377SOL     OW91708   2.685   4.226   2.165  0.1981  0.1170 -0.7119
30377SOL    HW191709   2.780   4.227   2.151  0.2526 -0.0314 -0.3355
30377SOL    HW291710   2.661   4.319   2.168  0.3195  0.1553 -0.8699
30378SOL     OW91711   6.271   5.592   7.428  0.0426 -0.0854 -0.6360
30378SOL    HW191712   6.352   5.643   7.433  0.0838  0.0289 -2.1603
30378SOL    HW291713   6.289   5.524   7.363 -0.1979 -1.7606  0.9456
30379SOL     OW91714   3.753   7.195   3.216 -0.2016  0.6478 -0.0622
30379SOL    HW191715   3.829   7.218   3.269 -0.4490  2.3994 -0.4030
30379SOL    HW291716   3.785   7.196   3.126 -0.1476 -0.7777 -0.0841
30380SOL     OW91717   2.768   2.810   8.920  0.1083  0.1351 -0.6856
30380SOL    HW191718   2.855   2.771   8.923 -0.1701 -0.5341 -1.0097
30380SOL    HW291719   2.733   2.786   8.834 -0.5813 -0.0304 -0.3720
30381SOL     OW91720   0.683   5.968   7.467 -0.0656  0.0753  0.0773
30381SOL    HW191721   0.721   6.056   7.463 -0.3919  0.1852 -0.6309
30381SOL    HW291722   0.751   5.915   7.509  2.2125 -0.3761 -3.6816
30382SOL     OW91723   7.693   5.896   8.381  0.0432  0.0954  0.2813
30382SOL    HW191724   7.726   5.806   8.384  0.3995  0.1042 -1.8048
30382SOL    HW291725   7.693   5.918   8.288 -0.4919  2.1005  0.7157
30383SOL     OW91726   7.536   4.726   2.041 -0.4416 -0.0602  0.3908
30383SOL    HW191727   7.466   4.771   2.087  0.6563  0.6447  1.4350
30383SOL    HW291728   7.501   4.710   1.954 -1.1800  2.0919  0.2267
30384SOL     OW91729   0.121   5.171   4.271 -0.1458  0.0578  0.3585
30384SOL    HW191730   0.042   5.150   4.321  0.5404 -1.0106  1.0385
30384SOL    HW291731   0.133   5.096   4.213  0.9025 -0.2700  0.9685
30385SOL     OW91732   0.792   7.112   1.653  0.1211  0.1076  0.2096
30385SOL    HW191733   0.871   7.097   1.601 -1.6846 -0.7927 -2.4930
30385SOL    HW291734   0.768   7.024   1.683 -0.2146  0.2729  0.4201
30386SOL     OW91735   2.552   5.723   1.070 -0.0740 -0.5481  0.3834
30386SOL    HW191736   2.564   5.632   1.098 -2.1001 -1.3954 -1.2021
30386SOL    HW291737   2.483   5.757   1.128 -0.8246 -0.7414 -0.3762
30387SOL     OW91738   8.916   8.855   7.406 -0.0410 -0.0931  0.7904
30387SOL    HW191739   8.981   8.823   7.344  0.9529 -0.4431  1.9725
30387SOL    HW291740   8.833   8.820   7.374  0.1898  1.0007 -1.1974
30388SOL     OW91741   8.240   6.037   8.518  0.2087  0.0805 -0.2291
30388SOL    HW191742   8.191   6.119   8.530 -0.0317 -0.2252  0.9990
30388SOL    HW291743   8.196   5.994   8.445 -1.0080  0.1019  0.4577
30389SOL     OW91744   8.664   7.666   7.143 -0.5792 -0.0692 -0.0846
30389SOL    HW191745   8.734   7.729   7.163 -0.8849  0.1931  0.1640
30389SOL    HW291746   8.703   7.607   7.078 -0.5023  0.7888 -0.8431
30390SOL     OW91747   3.607   7.927   9.884 -0.1800  0.3305  0.2186
30390SOL    HW191748   3.533   7.867   9.873 -1.1895  1.5973 -0.0788
30390SOL    HW291749   3.684   7.870   9.876 -1.0923 -1.0501  0.7238
30391SOL     OW91750   2.966   7.816   4.311  0.3594  0.0500  0.0393
30391SOL    HW191751   2.982   7.828   4.217  0.4101 -2.9577 -0.4295
30391SOL    HW291752   3.051   7.836   4.351  0.4399  1.0171 -0.5744
30392SOL     OW91753   3.603   4.642   1.310 -0.0190 -0.1515  0.2183
30392SOL    HW191754   3.666   4.601   1.250  0.5028  0.3258  0.4311
30392SOL    HW291755   3.628   4.611   1.397  1.2288  1.6300  0.5417
30393SOL     OW91756   9.938   7.752   0.654 -0.3827 -0.7787 -0.0149
30393SOL    HW191757   9.995   7.748   0.577  0.4830  0.4622  0.5396
30393SOL    HW291758   9.987   7.706   0.722 -0.2840 -0.2015  0.3078
30394SOL     OW91759   7.533   2.447   4.081 -0.1098  0.3781  0.3123
30394SOL    HW191760   7.573   2.531   4.103  0.8418 -0.0024  0.0692
30394SOL    HW291761   7.546   2.439   3.986 -1.0326  0.3740  0.1730
30395SOL     OW91762   5.295   2.925   8.355 -0.1499 -0.0225  0.4544
30395SOL    HW191763   5.390   2.918   8.362 -0.2473 -1.2909  0.6901
30395SOL    HW291764   5.275   2.894   8.267 -0.1336  3.0267 -0.7433
30396SOL     OW91765   3.108   9.853   9.352  0.0229 -0.0528 -0.1919
30396SOL    HW191766   3.069   9.872   9.266 -0.2671 -1.4803 -0.3974
30396SOL    HW291767   3.202   9.857   9.337  0.0279 -2.1908 -1.0841
30397SOL     OW91768   1.110   3.619   7.681 -0.2511  0.1205 -0.8252
30397SOL    HW191769   1.099   3.701   7.729 -0.2818 -0.7165  0.6572
30397SOL    HW291770   1.039   3.618   7.617 -1.0439  0.6371  0.0332
30398SOL     OW91771   6.995   8.891   5.909  0.3991  0.1407 -0.1711
30398SOL    HW191772   6.926   8.955   5.919  0.6921  0.7007 -1.4760
30398SOL    HW291773   6.963   8.813   5.955 -0.1453  1.0562  1.0518
30399SOL     OW91774   8.964   5.782   9.379  0.5105  0.2755  0.0284
30399SOL    HW191775   9.046   5.734   9.371  0.4752  0.3074 -0.5820
30399SOL    HW291776   8.927   5.782   9.290 -0.6077 -0.5489  0.4754
30400SOL     OW91777   0.504   8.071   8.002 -0.3429  0.3368 -0.1056
30400SOL    HW191778   0.564   8.058   8.076 -0.9522  0.1142  0.3563
30400SOL    HW291779   0.526   8.002   7.940 -0.9162 -0.4860  0.5931
30401SOL     OW91780   0.211   5.242   8.557 -0.1316 -0.2170 -0.0036
30401SOL    HW191781   0.218   5.330   8.596  0.5228 -0.6839  0.9579
30401SOL    HW291782   0.136   5.203   8.601  0.9885 -0.9758  1.3073
30402SOL     OW91783   0.223   1.759   2.986  1.0907  0.3562 -0.0749
30402SOL    HW191784   0.204   1.852   2.983  0.4951  0.3684  2.1413
30402SOL    HW291785   0.138   1.716   2.985  1.3312 -0.1276 -0.2970
30403SOL     OW91786   0.878   0.281   1.939  0.4071  0.3860  0.1164
30403SOL    HW191787   0.829   0.224   1.998  0.7507 -1.4775 -1.3268
30403SOL    HW291788   0.810   0.329   1.891 -0.0734 -1.4236 -1.1315
30404SOL     OW91789   9.575   6.692   4.783  0.2751  0.8798 -0.5006
30404SOL    HW191790   9.520   6.620   4.751  1.8382 -0.3830 -0.5003
30404SOL    HW291791   9.565   6.761   4.717 -1.5084  0.8164 -0.3422
30405SOL     OW91792   4.726   7.790   4.303  0.5039 -0.0146 -0.2727
30405SOL    HW191793   4.794   7.829   4.357 -0.0192 -0.5887  0.8166
30405SOL    HW291794   4.760   7.798   4.213  0.5774  2.6031 -0.0957
30406SOL     OW91795   6.972   3.924   4.262 -0.3246  0.4713 -0.4168
30406SOL    HW191796   7.027   3.964   4.329  0.0680 -0.2701 -0.2793
30406SOL    HW291797   6.943   3.997   4.207 -0.4355  1.0560  0.4005
30407SOL     OW91798   6.429   5.329   6.910  0.2703  0.5775  0.1410
30407SOL    HW191799   6.515   5.321   6.951  0.9951  2.7450 -0.7751
30407SOL    HW291800   6.367   5.322   6.982  1.1223 -1.7847  0.7282
30408SOL     OW91801   6.085   6.887   0.058 -0.6928  0.1458 -0.6432
30408SOL    HW191802   6.068   6.949   0.128  0.9804 -0.8839  0.7684
30408SOL    HW291803   6.006   6.833   0.054 -0.6220 -0.1277  0.8887
30409SOL     OW91804   8.553   5.853   9.393  0.2874 -0.1495 -0.2587
30409SOL    HW191805   8.572   5.906   9.316  1.2221  0.3125  0.2819
30409SOL    HW291806   8.459   5.833   9.386 -0.0049  1.2765 -0.6497
30410SOL     OW91807   7.256   6.168   9.206 -0.3293  0.2195 -0.0215
30410SOL    HW191808   7.234   6.076   9.196  2.5150 -0.5737  0.1736
30410SOL    HW291809   7.289   6.175   9.295 -0.5412  1.4390 -0.0269
30411SOL     OW91810   6.455   2.760   2.097 -0.2397  0.0955  0.1452
30411SOL    HW191811   6.534   2.718   2.129  0.2582 -0.0455 -1.2157
30411SOL    HW291812   6.388   2.738   2.161  0.4790 -1.0450  0.5212
30412SOL     OW91813   2.152   0.483   9.283 -0.3738 -0.4194 -0.1850
30412SOL    HW191814   2.234   0.531   9.276  0.5441 -1.9555 -0.4911
30412SOL    HW291815   2.124   0.470   9.193 -0.5170 -0.5957 -0.1155
30413SOL     OW91816   3.803   9.529   0.384 -0.3676 -0.0577 -0.0352
30413SOL    HW191817   3.860   9.496   0.454  2.0591  0.5085 -1.6382
30413SOL    HW291818   3.837   9.617   0.365 -1.5634  0.1602 -1.3087
30414SOL     OW91819   1.778   2.694   4.008  0.0500  0.2998 -0.1143
30414SOL    HW191820   1.797   2.722   3.919 -1.6955  0.3963 -0.4784
30414SOL    HW291821   1.797   2.771   4.062 -1.1960  1.0316 -0.6912
30415SOL     OW91822   5.021   8.508   0.841 -0.3283  0.2719  0.0031
30415SOL    HW191823   4.976   8.435   0.884 -0.7701 -0.3341 -1.4242
30415SOL    HW291824   5.079   8.466   0.777  0.7569  1.1275  0.4088
30416SOL     OW91825   1.091   9.190   6.350  0.0704 -0.2866  0.7331
30416SOL    HW191826   1.095   9.098   6.375 -0.0246 -0.6422 -0.4937
30416SOL    HW291827   1.019   9.196   6.287  0.4770  0.5036  0.3195
30417SOL     OW91828   6.602   3.844   2.757 -0.2999  0.6296 -0.1948
30417SOL    HW191829   6.621   3.907   2.826  2.0575  0.4613 -0.5987
30417SOL    HW291830   6.587   3.897   2.679 -0.4156  0.7494 -0.0909
30418SOL     OW91831   0.293   1.374   0.148  0.1741 -0.4125  0.3064
30418SOL    HW191832   0.376   1.390   0.103  0.2889  1.0451  1.0051
30418SOL    HW291833   0.258   1.461   0.167 -2.5698 -0.8959 -1.7940
30419SOL     OW91834   1.912   6.265   2.432  0.2384 -0.1466 -0.0342
30419SOL    HW191835   1.990   6.248   2.484  0.5730 -1.6549 -0.9700
30419SOL    HW291836   1.872   6.341   2.473  1.5090 -0.1292  1.2434
30420SOL     OW91837   2.220   3.137   9.633  0.1428 -0.1840  0.5937
30420SOL    HW191838   2.284   3.198   9.596 -0.4315 -0.4436 -0.8924
30420SOL    HW291839   2.273   3.073   9.681  1.0424 -0.5503 -0.8391
30421SOL     OW91840   2.555   0.631   3.446 -0.5243  0.0098 -0.2362
30421SOL    HW191841   2.517   0.688   3.513  1.4386  0.1868  0.7960
30421SOL    HW291842   2.536   0.542   3.477 -1.3471  0.0716 -0.5197
30422SOL     OW91843   3.433   0.398   6.315  0.2241  0.6421  0.2454
30422SOL    HW191844   3.342   0.425   6.321 -0.3754 -0.1517 -3.1820
30422SOL    HW291845   3.442   0.329   6.381 -2.4674 -1.0769 -0.9872
30423SOL     OW91846   8.483   2.471   2.554 -0.3184  0.1089 -0.4024
30423SOL    HW191847   8.451   2.450   2.466  0.8446 -2.0192 -0.3768
30423SOL    HW291848   8.566   2.425   2.561 -0.0782  0.7450  1.6054
30424SOL     OW91849   3.255   7.754   0.203 -0.3887  0.3710 -0.0408
30424SOL    HW191850   3.186   7.792   0.257  1.1672  1.5195  1.2215
30424SOL    HW291851   3.279   7.673   0.249  0.7075  1.1821  0.8752
30425SOL     OW91852   2.026   5.211   7.297  0.5128  0.5565 -0.3461
30425SOL    HW191853   2.092   5.268   7.336  0.8826  0.0582 -0.2471
30425SOL    HW291854   2.045   5.124   7.331 -1.6003  0.7456  1.5961
30426SOL     OW91855   9.912   6.892   7.097 -0.2012 -0.5346  0.2722
30426SOL    HW191856   9.995   6.846   7.099 -0.3149 -0.7719 -0.2929
30426SOL    HW291857   9.887   6.893   7.005 -0.0474  0.9356  0.2146
30427SOL     OW91858   2.855   8.275   8.736  0.8649  0.2279 -0.3003
30427SOL    HW191859   2.837   8.354   8.786  0.2597  0.0352 -0.2072
30427SOL    HW291860   2.900   8.217   8.797  1.8739  0.7253 -0.5461
30428SOL     OW91861   5.833   8.888   0.882  0.0450  0.7321  0.4118
30428SOL    HW191862   5.893   8.915   0.951  1.0822  0.4745 -0.3519
30428SOL    HW291863   5.766   8.956   0.880  0.4623  1.1745  1.1102
30429SOL     OW91864   0.604   8.048   7.221 -0.7789  0.0220 -0.4540
30429SOL    HW191865   0.583   8.141   7.232 -0.4797 -0.0606  0.9927
30429SOL    HW291866   0.691   8.038   7.261  0.0214 -0.5429 -2.2249
30430SOL     OW91867   9.883   2.898   0.718  0.1086 -0.0540  0.2195
30430SOL    HW191868   9.886   2.810   0.683 -0.4234 -0.4995  1.2391
30430SOL    HW291869   9.906   2.888   0.811  1.0435  1.0111  0.1267
30431SOL     OW91870   9.676   7.044   4.069  0.3089  0.1646  0.1300
30431SOL    HW191871   9.653   6.991   4.145  1.1202 -1.3227 -0.6218
30431SOL    HW291872   9.715   7.124   4.105 -1.8659  0.7848  1.3141
30432SOL     OW91873   5.788   4.046   6.035  0.7771  0.2144 -0.6622
30432SOL    HW191874   5.740   4.054   5.952 -0.6469  0.1331  0.1307
30432SOL    HW291875   5.807   3.952   6.042 -1.5447 -0.2494  0.3822
30433SOL     OW91876   6.210   0.561   0.451 -0.1343  0.0329  0.5529
30433SOL    HW191877   6.203   0.607   0.535 -1.7590  2.4154 -0.7690
30433SOL    HW291878   6.263   0.619   0.397  1.4305 -1.7736  0.0531
30434SOL     OW91879   1.549   5.598   0.961  0.2398  0.4680  0.2792
30434SOL    HW191880   1.617   5.576   1.026  0.7175  2.2973  0.4531
30434SOL    HW291881   1.597   5.639   0.890 -0.6940  2.0710  0.5375
30435SOL     OW91882   9.453   6.087   8.272 -0.1862 -0.3132  0.6077
30435SOL    HW191883   9.477   6.178   8.292  0.1625  0.1245 -1.4767
30435SOL    HW291884   9.534   6.048   8.239 -0.5252 -1.1484  0.7418
30436SOL     OW91885   0.709   2.108   6.140  0.3198  0.1029  0.1469
30436SOL    HW191886   0.768   2.036   6.162 -1.2822 -0.9884  1.0742
30436SOL    HW291887   0.723   2.122   6.047  2.3601  0.2143  0.4143
30437SOL     OW91888   2.703   5.139   4.796 -0.5737  0.0541  0.0882
30437SOL    HW191889   2.762   5.072   4.830 -0.4521 -0.6310 -1.4049
30437SOL    HW291890   2.754   5.220   4.798  0.1577 -0.3796 -0.4333
30438SOL     OW91891   7.678   4.217   5.415 -0.0441  0.3977  0.5957
30438SOL    HW191892   7.642   4.245   5.499 -1.0851  0.9670 -0.0243
30438SOL    HW291893   7.643   4.128   5.403  1.2764 -0.2575  1.4195
30439SOL     OW91894   7.737   2.608   8.791 -0.4351 -0.3426  0.6962
30439SOL    HW191895   7.775   2.689   8.824  0.6147 -0.6706  0.3125
30439SOL    HW291896   7.647   2.632   8.767  0.0217  0.8255  0.0895
30440SOL     OW91897   4.046   3.141   6.477 -0.2216 -0.0939  0.1599
30440SOL    HW191898   4.048   3.187   6.560  2.0164 -0.0901  0.1417
30440SOL    HW291899   4.005   3.057   6.497  1.0492 -0.4322  1.4775
30441SOL     OW91900   1.741   9.898   2.904 -0.3337  0.0243 -0.0950
30441SOL    HW191901   1.749   9.993   2.906 -1.5113  0.2184 -2.3254
30441SOL    HW291902   1.674   9.878   2.970 -1.6420  0.9715 -1.0844
30442SOL     OW91903   9.241   9.736   2.401 -0.1869  0.3867 -0.2888
30442SOL    HW191904   9.268   9.691   2.481 -1.4927  0.9895  0.5405
30442SOL    HW291905   9.306   9.806   2.390 -0.9430  1.3920  1.2695
30443SOL     OW91906   7.218   0.464   2.173 -0.6197  0.8891  0.2357
30443SOL    HW191907   7.183   0.385   2.213 -0.5626  0.2033 -1.0098
30443SOL    HW291908   7.196   0.456   2.080  1.3117  1.2594 -0.3021
30444SOL     OW91909   4.090   8.596   2.615 -0.1452  0.1748 -0.0563
30444SOL    HW191910   4.107   8.594   2.521  2.7228  0.0013  0.3572
30444SOL    HW291911   4.028   8.668   2.628 -0.2847  0.4448 -2.0255
30445SOL     OW91912  -0.010   6.372   3.755  0.8851 -0.4273 -0.1538
30445SOL    HW191913   0.060   6.332   3.703  0.7602 -0.8265 -0.0234
30445SOL    HW291914   0.028   6.452   3.791  1.6500 -1.2115  0.8455
30446SOL     OW91915   0.789   3.944   0.346  0.1221  0.0839  0.2496
30446SOL    HW191916   0.857   4.001   0.383  1.8607 -1.4078 -0.4682
30446SOL    HW291917   0.773   3.879   0.413  2.7885 -2.2221 -1.1397
30447SOL     OW91918   2.092   5.696   8.411 -0.3539  0.2375 -0.0911
30447SOL    HW191919   2.039   5.671   8.336 -2.0585 -0.4689  1.2833
30447SOL    HW291920   2.102   5.791   8.403 -2.2474  0.4591 -0.1505
30448SOL     OW91921   5.806   3.451   4.497 -0.1378  0.4977 -0.1979
30448SOL    HW191922   5.810   3.517   4.427  0.8845 -1.9979 -2.6984
30448SOL    HW291923   5.778   3.371   4.453 -0.2299 -1.0415  2.4547
30449SOL     OW91924   5.800   7.120   3.143 -0.2267 -0.6771 -0.3952
30449SOL    HW191925   5.807   7.081   3.056  1.5924  0.1033 -0.6581
30449SOL    HW291926   5.879   7.090   3.190 -0.0121  0.6877  0.1915
30450SOL     OW91927   6.353   8.163   6.140  0.5876 -0.5693 -0.2245
30450SOL    HW191928   6.334   8.125   6.226  0.3497  1.2998  0.5995
30450SOL    HW291929   6.409   8.098   6.097  0.9781 -1.4125  1.4593
30451SOL     OW91930   2.575   6.790   7.961 -0.2345 -0.2726  0.3793
30451SOL    HW191931   2.588   6.759   7.871  1.2643  0.2717  0.3805
30451SOL    HW291932   2.523   6.870   7.951  0.0086 -0.1622 -0.0131
30452SOL     OW91933   6.605   2.279   5.819 -0.2112 -0.3355  0.0955
30452SOL    HW191934   6.592   2.196   5.772  0.6941  0.1599 -1.1001
30452SOL    HW291935   6.650   2.254   5.899  0.8340 -0.9432 -0.6512
30453SOL     OW91936   8.656   2.530   5.737 -0.3412 -0.0020 -0.0661
30453SOL    HW191937   8.736   2.575   5.764 -0.7307  0.3528  0.5436
30453SOL    HW291938   8.585   2.589   5.763 -0.8298 -0.6156  0.0382
30454SOL     OW91939   9.727   6.272   3.818 -0.2143  0.0105 -0.5131
30454SOL    HW191940   9.701   6.364   3.817  0.8522  0.3365 -0.2144
30454SOL    HW291941   9.817   6.273   3.785  0.3448 -0.7421  0.9319
30455SOL     OW91942   9.241   1.626   8.836  0.3433  1.0228  0.2064
30455SOL    HW191943   9.242   1.697   8.772  0.6297  0.4055 -0.4945
30455SOL    HW291944   9.318   1.643   8.891  0.8792  0.8227 -0.4610
30456SOL     OW91945   0.251   9.557   9.577 -0.1725  0.1481 -0.2519
30456SOL    HW191946   0.323   9.583   9.519 -1.1803  1.8835 -0.8145
30456SOL    HW291947   0.283   9.578   9.665  0.7574 -1.0094 -0.2866
30457SOL     OW91948   2.325   3.498   3.247 -0.4293 -0.0706  0.1633
30457SOL    HW191949   2.284   3.425   3.292 -1.2597  0.5699  0.4648
30457SOL    HW291950   2.397   3.524   3.304 -0.2671 -0.5047  0.1612
30458SOL     OW91951   8.137   6.303   8.589  0.2474 -0.2079  0.1194
30458SOL    HW191952   8.109   6.355   8.664 -0.1786  1.2762 -1.0422
30458SOL    HW291953   8.192   6.362   8.537 -3.7016  0.7508 -3.5386
30459SOL     OW91954   8.502   5.912   6.375 -0.2683  0.2590 -0.3009
30459SOL    HW191955   8.485   5.999   6.341  0.0340 -0.1294 -1.4994
30459SOL    HW291956   8.587   5.920   6.419  0.5692  0.2197 -1.8390
30460SOL     OW91957   3.460   4.936   4.489  0.4762 -0.2799 -0.7033
30460SOL    HW191958   3.460   5.031   4.474 -1.1252  0.2576  2.0768
30460SOL    HW291959   3.497   4.926   4.577 -2.2250 -1.8766  0.3618
30461SOL     OW91960   4.494   8.484   8.263 -0.0983 -0.0371 -0.3073
30461SOL    HW191961   4.511   8.390   8.261  0.7908  0.1156 -1.4704
30461SOL    HW291962   4.536   8.517   8.183 -2.3229  1.0296 -1.1153
30462SOL     OW91963   8.324   4.303   7.094  0.5825 -0.1249  0.1052
30462SOL    HW191964   8.352   4.249   7.019 -1.1758 -0.0308 -0.6601
30462SOL    HW291965   8.279   4.377   7.054 -2.4803 -1.2413  1.2076
30463SOL     OW91966   7.031   1.292   1.582  0.1152  0.1693 -0.1329
30463SOL    HW191967   7.105   1.308   1.524 -0.0778  0.3159 -0.3402
30463SOL    HW291968   7.010   1.378   1.619 -1.6383  0.6684 -2.1067
30464SOL     OW91969   5.099   1.896   9.362  0.1490 -0.6363  0.0727
30464SOL    HW191970   5.128   1.855   9.280 -0.5261  1.3920 -1.2784
30464SOL    HW291971   5.173   1.884   9.422  0.1653 -3.2714 -0.3748
30465SOL     OW91972   5.129   0.917   7.450  0.1995 -0.0170 -0.3607
30465SOL    HW191973   5.145   0.824   7.467  1.3313  0.4299  1.3992
30465SOL    HW291974   5.143   0.959   7.535 -1.0322  1.6880 -0.9458
30466SOL     OW91975   2.561   7.743   7.780  0.2908  0.4599  0.0259
30466SOL    HW191976   2.554   7.739   7.685  1.2078  0.5277 -0.0505
30466SOL    HW291977   2.628   7.678   7.802  2.5981  2.7518  0.3031
30467SOL     OW91978   3.517   2.912   8.815 -0.1874  0.4758  0.0722
30467SOL    HW191979   3.506   3.001   8.780  2.8426  0.5203 -1.0540
30467SOL    HW291980   3.593   2.918   8.873 -0.4649 -1.2344  0.6789
30468SOL     OW91981   1.334   7.703   3.597 -0.9190  0.0421  0.3369
30468SOL    HW191982   1.244   7.671   3.593 -0.6388 -0.7129 -0.3359
30468SOL    HW291983   1.367   7.670   3.680 -0.4796 -1.9503 -0.5594
30469SOL     OW91984   6.838   6.677   1.186 -0.4765  0.1942 -0.0665
30469SOL    HW191985   6.908   6.706   1.129  0.2310 -0.2130  0.5823
30469SOL    HW291986   6.870   6.596   1.225 -0.9134  0.4977  0.9573
30470SOL     OW91987   4.221   4.858   8.568  0.2869  0.3593  0.0024
30470SOL    HW191988   4.279   4.930   8.544 -0.7177  0.6705 -1.6678
30470SOL    HW291989   4.142   4.872   8.515 -0.1528 -1.6661  0.0318
30471SOL     OW91990   0.091   5.322   1.267 -0.3120  0.2890 -0.6283
30471SOL    HW191991   0.027   5.284   1.327 -0.7382  1.3694 -0.3739
30471SOL    HW291992   0.044   5.392   1.223  0.3957  0.4025 -1.2333
30472SOL     OW91993   4.598   0.851   1.143  0.6627  0.1840 -0.9531
30472SOL    HW191994   4.609   0.872   1.236 -2.0581 -0.2442 -0.4426
30472SOL    HW291995   4.567   0.760   1.142  0.0244  0.3904 -2.2170
30473SOL     OW91996   0.913   2.341   7.018 -0.6120  0.3722 -0.8233
30473SOL    HW191997   0.910   2.327   7.112  1.3243 -0.2937 -0.8200
30473SOL    HW291998   0.846   2.283   6.983  0.5674 -1.5610 -0.0374
30474SOL     OW91999   8.814   0.852   9.890  0.1173  0.1013 -0.1021
30474SOL    HW192000   8.898   0.888   9.917  0.4585  0.3712 -1.4763
30474SOL    HW292001   8.751   0.891   9.951  0.8931  0.3846  0.5388
30475SOL     OW92002   1.115   1.393   3.497 -0.7605 -0.0935  0.1545
30475SOL    HW192003   1.198   1.347   3.512  1.1972  3.0729  0.2189
30475SOL    HW292004   1.133   1.449   3.421 -1.5003  3.2696  2.2295
30476SOL     OW92005   8.831   0.331   9.101  0.3563 -0.3465  0.4283
30476SOL    HW192006   8.750   0.299   9.139 -0.1516  0.0435 -0.3187
30476SOL    HW292007   8.857   0.404   9.158 -0.7941  0.7201 -0.3670
30477SOL     OW92008   2.853   1.053   7.375  0.3134 -0.5375 -0.0350
30477SOL    HW192009   2.783   1.078   7.436  1.6291  0.5348  1.0833
30477SOL    HW292010   2.930   1.102   7.405  1.0765 -0.1739 -2.4197
30478SOL     OW92011   8.937   1.677   1.903 -0.4851 -0.2557 -0.3058
30478SOL    HW192012   8.901   1.605   1.955 -3.1385  1.3018  0.2090
30478SOL    HW292013   8.950   1.748   1.966  0.2556  0.3518 -1.1116
30479SOL     OW92014   0.266   2.558   1.748 -0.3113 -0.6541 -0.0531
30479SOL    HW192015   0.192   2.588   1.801 -0.6496 -0.3712 -0.6826
30479SOL    HW292016   0.339   2.613   1.777 -0.6480 -0.0480 -0.3382
30480SOL     OW92017   1.969   2.042   5.543  0.0638  0.3829  0.5667
30480SOL    HW192018   2.054   2.043   5.587  1.0103 -2.6554 -0.8623
30480SOL    HW292019   1.990   2.058   5.451 -0.9416  0.0607  0.2661
30481SOL     OW92020   6.672   9.387   6.294  0.3843  0.2568  0.4723
30481SOL    HW192021   6.642   9.424   6.211  0.6345  0.0873  0.3074
30481SOL    HW292022   6.686   9.294   6.276  1.7395  0.4668  0.3337
30482SOL     OW92023   8.494   4.424   2.647  0.2700 -0.7612 -0.1091
30482SOL    HW192024   8.488   4.512   2.609  0.4986 -0.8202 -0.2896
30482SOL    HW292025   8.561   4.380   2.594  0.9968 -0.6675  0.7227
30483SOL     OW92026   6.943   2.947   6.515  0.4773 -0.0970  0.2798
30483SOL    HW192027   6.866   2.890   6.515  0.6587 -0.3553 -0.3047
30483SOL    HW292028   7.004   2.906   6.576  0.1414  0.1262  0.7686
30484SOL     OW92029   9.315   2.223   8.028  0.8237 -0.1955  0.3627
30484SOL    HW192030   9.228   2.219   7.989 -0.5557  0.2111  3.1528
30484SOL    HW292031   9.344   2.132   8.033  0.5911 -0.3308 -0.6113
30485SOL     OW92032   2.885   9.382   2.123 -0.8012 -0.2154 -0.0704
30485SOL    HW192033   2.882   9.476   2.105  1.4999 -0.0270  0.2933
30485SOL    HW292034   2.949   9.348   2.061 -1.5173 -1.5583 -0.1119
30486SOL     OW92035   7.920   6.962   8.599  0.1879 -0.6431 -0.3738
30486SOL    HW192036   7.853   6.914   8.552 -0.4880 -1.6076  1.4827
30486SOL    HW292037   8.003   6.932   8.562 -0.3408 -0.0907 -2.0769
30487SOL     OW92038   5.061   3.330   3.054  0.5488  0.3971  0.2328
30487SOL    HW192039   5.136   3.272   3.067  0.8754  1.0718  1.4823
30487SOL    HW292040   4.986   3.280   3.085  0.4026 -0.4127 -1.3406
30488SOL     OW92041   2.072   6.260   8.880  0.2146 -0.3266 -0.0589
30488SOL    HW192042   2.158   6.287   8.914 -0.2053  1.3894 -0.3077
30488SOL    HW292043   2.086   6.245   8.787  0.3451 -0.5854 -0.0011
30489SOL     OW92044   1.997   2.858   6.416 -0.4083  0.0606 -0.5368
30489SOL    HW192045   1.959   2.839   6.502 -1.4346 -1.4595 -1.2773
30489SOL    HW292046   1.923   2.885   6.363  0.5253  3.1382 -0.4549
30490SOL     OW92047   6.228   1.198   3.741  0.0543 -0.3685 -0.4510
30490SOL    HW192048   6.183   1.256   3.803 -0.3836 -1.3084  0.1345
30490SOL    HW292049   6.316   1.187   3.778  0.3029  0.3108 -0.8276
30491SOL     OW92050   1.353   1.538   2.258  0.7357 -0.3136  0.1368
30491SOL    HW192051   1.304   1.579   2.329 -1.7075 -1.1715 -0.9499
30491SOL    HW292052   1.314   1.572   2.178  2.7940 -0.0946 -0.8398
30492SOL     OW92053   5.483   5.490   8.132 -0.2235 -0.4043 -0.0256
30492SOL    HW192054   5.486   5.447   8.046 -0.6827  2.6560 -1.7013
30492SOL    HW292055   5.404   5.545   8.129 -0.2078 -0.1236  2.3617
30493SOL     OW92056   5.066   2.093   1.849 -0.3254 -0.2141 -0.4032
30493SOL    HW192057   5.035   2.170   1.800 -1.3175 -0.5127 -0.2510
30493SOL    HW292058   5.026   2.019   1.805  0.3009 -0.6295 -0.2894
30494SOL     OW92059   4.774   9.301   0.253 -0.1212  0.3811 -0.4221
30494SOL    HW192060   4.865   9.284   0.230 -0.5692 -2.3445 -0.5069
30494SOL    HW292061   4.742   9.359   0.184  0.9049 -0.6140 -1.7777
30495SOL     OW92062   6.487   6.076   0.147 -0.3018 -0.3201  0.4652
30495SOL    HW192063   6.491   6.087   0.242 -0.3031  1.7289  0.2859
30495SOL    HW292064   6.414   6.017   0.133  0.2536 -1.3760  1.7602
30496SOL     OW92065   9.130   4.598   7.793 -0.4075  0.2990 -0.5628
30496SOL    HW192066   9.223   4.587   7.771 -0.4834  0.9925 -1.2534
30496SOL    HW292067   9.097   4.659   7.728 -1.2099  0.5287  0.0455
30497SOL     OW92068   0.199   1.534   6.540 -0.4532  0.1524  0.0505
30497SOL    HW192069   0.122   1.560   6.589  0.2431 -1.8212  2.4171
30497SOL    HW292070   0.168   1.522   6.450 -2.8844 -0.5197  0.9150
30498SOL     OW92071   5.137   7.070   6.732  0.1640  0.6944  0.1052
30498SOL    HW192072   5.098   7.156   6.745 -0.6943  0.1712  1.1179
30498SOL    HW292073   5.104   7.017   6.804  0.6499 -0.4984 -0.5164
30499SOL     OW92074   7.990   1.750   0.110  0.3122 -0.0836 -0.6447
30499SOL    HW192075   8.043   1.700   0.047 -0.4452 -0.9599 -0.6141
30499SOL    HW292076   7.899   1.727   0.089 -0.0784  1.3874 -0.6967
30500SOL     OW92077   7.792   9.800   3.498 -0.2863  0.2245  0.1261
30500SOL    HW192078   7.870   9.829   3.545  0.1414 -0.7738  0.0391
30500SOL    HW292079   7.825   9.752   3.423 -0.9758 -0.6285  0.3498
30501SOL     OW92080   2.570   3.870   5.464  0.6058 -0.3627  0.2325
30501SOL    HW192081   2.516   3.852   5.541 -0.2384 -1.2629 -0.5469
30501SOL    HW292082   2.520   3.834   5.391  1.1427  0.9317 -0.8155
30502SOL     OW92083   0.607   2.387   8.327  0.3265  0.1086 -0.2160
30502SOL    HW192084   0.519   2.425   8.329  0.8056  1.2978 -0.4673
30502SOL    HW292085   0.641   2.409   8.240  1.4178  1.0369  0.4059
30503SOL     OW92086   4.601   5.903   1.926  0.1548 -0.0403 -0.2311
30503SOL    HW192087   4.616   5.977   1.984 -0.3875 -0.8067  0.9275
30503SOL    HW292088   4.682   5.894   1.876  1.1697 -0.1680  1.3542
30504SOL     OW92089   1.406   1.275   4.262 -0.4363  0.3578  0.3558
30504SOL    HW192090   1.360   1.201   4.301 -1.0228  0.5566  0.0613
30504SOL    HW292091   1.345   1.310   4.197 -0.9401  2.1727  1.7000
30505SOL     OW92092   5.176   5.260   8.323  0.1367 -0.2973 -0.1576
30505SOL    HW192093   5.131   5.344   8.324 -0.1207 -0.4300 -0.3181
30505SOL    HW292094   5.266   5.280   8.347  0.0245 -0.0071  0.0238
30506SOL     OW92095   4.729   1.428   5.962 -0.2435 -0.2177  0.0977
30506SOL    HW192096   4.727   1.380   6.045  2.8552 -0.3836  0.2056
30506SOL    HW292097   4.756   1.362   5.897  2.0102  0.8201 -0.1265
30507SOL     OW92098   3.956   3.234   0.784  0.2992 -0.0161  0.2476
30507SOL    HW192099   4.022   3.293   0.819 -0.3008  1.4189 -0.9106
30507SOL    HW292100   4.005   3.159   0.750  1.5082  1.5926 -1.7492
30508SOL     OW92101   0.916   2.915   3.592  0.4513 -0.1327 -0.2619
30508SOL    HW192102   0.991   2.855   3.587  0.7101  0.0841  0.6828
30508SOL    HW292103   0.844   2.861   3.623  0.0491 -0.4719 -1.7451
30509SOL     OW92104   1.818   0.443   7.088  0.4103 -0.2975  0.4923
30509SOL    HW192105   1.877   0.480   7.154 -0.1450  0.4364  0.5910
30509SOL    HW292106   1.739   0.422   7.136  0.4062 -0.7993  0.2650
30510SOL     OW92107   6.065   8.598   0.335  0.2401 -0.2894 -0.5389
30510SOL    HW192108   6.081   8.521   0.390 -1.1274  1.1540  2.0468
30510SOL    HW292109   5.982   8.579   0.291  0.3373 -0.6215 -0.5835
30511SOL     OW92110   2.025   9.143   7.233 -0.0240  0.0089  0.5161
30511SOL    HW192111   2.022   9.056   7.194 -0.8814 -0.3366  1.3081
30511SOL    HW292112   2.117   9.158   7.253  0.2467 -0.3430 -0.4241
30512SOL     OW92113   4.519   1.203   7.216  0.5561  0.2373  0.7710
30512SOL    HW192114   4.508   1.238   7.304 -0.5062  1.1606  0.3048
30512SOL    HW292115   4.484   1.114   7.222  0.4292  0.3155  1.2720
30513SOL     OW92116   1.408   6.805   9.198  0.5661  0.1465  0.0472
30513SOL    HW192117   1.466   6.874   9.166  0.3991  0.2267 -0.0855
30513SOL    HW292118   1.389   6.752   9.120  0.6828 -0.0397  0.1458
30514SOL     OW92119   1.050   7.584   5.913 -0.6231 -0.7237  0.2172
30514SOL    HW192120   1.140   7.571   5.944 -0.1365  1.2074 -0.2628
30514SOL    HW292121   1.026   7.671   5.945 -1.2800 -0.0388 -1.9770
30515SOL     OW92122   5.718   1.215   5.582 -0.1532 -0.3279  0.3795
30515SOL    HW192123   5.663   1.210   5.504  1.3975  0.3296 -0.7985
30515SOL    HW292124   5.740   1.124   5.602 -0.8404 -0.5233  0.2785
30516SOL     OW92125   8.006   2.760   0.623  0.2957  0.3893 -0.6227
30516SOL    HW192126   8.009   2.848   0.586 -0.6555  0.3917 -0.6994
30516SOL    HW292127   7.921   2.754   0.666  0.2062 -0.5996 -0.8981
30517SOL     OW92128   1.713   7.550   5.786 -0.1823 -0.3122 -0.0355
30517SOL    HW192129   1.674   7.516   5.705  0.1730 -1.2344  0.1577
30517SOL    HW292130   1.653   7.618   5.815 -0.7279 -0.5089 -0.6600
30518SOL     OW92131   7.024   0.520   3.148  0.5712 -0.3322  0.1668
30518SOL    HW192132   6.991   0.431   3.141 -0.2109 -0.0291 -0.1357
30518SOL    HW292133   7.077   0.520   3.228  1.5844 -1.3662 -0.4884
30519SOL     OW92134   4.431   0.406   0.644 -0.3389  0.0646  0.2695
30519SOL    HW192135   4.419   0.379   0.735 -0.2419 -2.1942 -0.3166
30519SOL    HW292136   4.519   0.375   0.622 -1.1489 -1.3743 -1.1717
30520SOL     OW92137   8.069   6.617   9.920  0.5537  0.0660 -1.1498
30520SOL    HW192138   8.095   6.645   9.832 -0.8144  0.1275 -1.5672
30520SOL    HW292139   8.119   6.674   9.979  2.4880 -0.8517 -1.8145
30521SOL     OW92140   3.389   2.160   6.917  0.1648 -0.2263 -0.2625
30521SOL    HW192141   3.302   2.125   6.936  0.5523 -0.6570  0.7704
30521SOL    HW292142   3.445   2.123   6.985  1.7118 -2.1463 -2.4192
30522SOL     OW92143   3.533   9.562   0.021 -0.2896 -0.4142  0.3697
30522SOL    HW192144   3.441   9.577   0.045 -0.3429  0.0295 -0.0925
30522SOL    HW292145   3.577   9.643   0.046 -0.3066 -0.0186 -0.8102
30523SOL     OW92146   9.133   1.185   4.757 -0.0789  0.3192 -0.2142
30523SOL    HW192147   9.184   1.146   4.827  0.5854 -0.3282 -1.0393
30523SOL    HW292148   9.188   1.176   4.679 -1.5963 -0.7845 -1.2226
30524SOL     OW92149   7.361   9.077   3.932 -0.2767  0.1147  0.5255
30524SOL    HW192150   7.335   9.131   4.007  0.9125  1.4967 -0.0089
30524SOL    HW292151   7.407   9.003   3.971  2.0754  1.8051  1.1716
30525SOL     OW92152   6.236   1.732   7.320  0.1404 -0.0870  0.2983
30525SOL    HW192153   6.191   1.650   7.299 -0.4913  0.5447 -0.8822
30525SOL    HW292154   6.178   1.775   7.383 -0.4345  0.2566 -0.4460
30526SOL     OW92155   7.980   4.035   2.640  0.0105  0.5464  0.1315
30526SOL    HW192156   7.969   4.086   2.720 -1.8909 -0.2222  0.3989
30526SOL    HW292157   7.904   4.057   2.586  0.8354  0.4230 -1.1308
30527SOL     OW92158   7.512   5.621   8.319  0.0023 -0.3049  0.0299
30527SOL    HW192159   7.483   5.569   8.244  0.6271  1.1776 -1.3014
30527SOL    HW292160   7.590   5.668   8.287 -0.3086  1.1399  1.2805
30528SOL     OW92161   8.640   6.579   6.463  0.0679 -0.2502 -0.0485
30528SOL    HW192162   8.716   6.549   6.412  0.4266 -0.5017  0.6178
30528SOL    HW292163   8.592   6.499   6.482 -1.1631  0.0506 -1.6797
30529SOL     OW92164   8.831   5.600   2.987  0.1069  0.0065  0.1177
30529SOL    HW192165   8.740   5.624   2.970 -0.0750 -0.5150  0.3307
30529SOL    HW292166   8.869   5.588   2.900 -0.4186 -1.1941  0.0451
30530SOL     OW92167   9.414   3.234   4.296 -0.5336 -0.3482  0.0461
30530SOL    HW192168   9.369   3.251   4.213 -0.0981 -2.0496 -0.5837
30530SOL    HW292169   9.461   3.315   4.315 -1.4105  0.3983 -0.8584
30531SOL     OW92170   7.127   9.386   1.792  0.4165  0.0764  0.0441
30531SOL    HW192171   7.167   9.473   1.783 -1.1165  0.7335 -0.7472
30531SOL    HW292172   7.036   9.398   1.764  0.2969 -1.9018 -0.5818
30532SOL     OW92173   0.492   0.038   6.971 -0.2276  0.3358 -0.2252
30532SOL    HW192174   0.536  -0.036   6.930 -1.8906 -0.7638 -0.1507
30532SOL    HW292175   0.492   0.107   6.904 -0.0688 -0.2995 -0.8848
30533SOL     OW92176   1.974   4.940   4.297 -0.0558 -0.3023  0.0043
30533SOL    HW192177   2.066   4.916   4.300 -0.0060 -0.0394  0.8566
30533SOL    HW292178   1.930   4.864   4.259  0.8334  0.6373 -3.2447
30534SOL     OW92179   3.371   2.645   7.802 -0.3346 -0.2238 -0.0922
30534SOL    HW192180   3.414   2.726   7.830 -0.6917 -0.9420  2.7935
30534SOL    HW292181   3.349   2.599   7.883 -1.4580 -2.5615 -1.5936
30535SOL     OW92182   7.586   6.529   9.492 -0.2796  0.2687  0.5022
30535SOL    HW192183   7.592   6.439   9.524 -0.6038  0.5318  1.3279
30535SOL    HW292184   7.618   6.524   9.401 -3.5539 -1.3130 -0.7162
30536SOL     OW92185   4.809   1.223   4.161 -0.1191 -0.1171 -0.0287
30536SOL    HW192186   4.899   1.192   4.169 -0.1634 -0.8768 -1.8795
30536SOL    HW292187   4.763   1.151   4.118 -1.3831  0.6629 -0.0281
30537SOL     OW92188   3.913   9.837   4.039 -0.5327 -0.1463 -0.2941
30537SOL    HW192189   3.841   9.824   3.977 -0.4790 -0.4401 -0.2966
30537SOL    HW292190   3.935   9.930   4.031 -1.2086  0.0562  0.0210
30538SOL     OW92191   2.242   0.958   2.522 -0.2256  0.2559 -0.0005
30538SOL    HW192192   2.227   0.962   2.428  0.0348 -0.1365 -0.0630
30538SOL    HW292193   2.337   0.954   2.532 -0.1918  1.5573  0.3387
30539SOL     OW92194   9.775   6.803   4.940  0.5000 -0.1168  0.5815
30539SOL    HW192195   9.747   6.773   5.026 -0.7883  2.1150  0.9983
30539SOL    HW292196   9.721   6.753   4.878  0.1725 -0.4306  1.1200
30540SOL     OW92197   9.948   3.358   0.871 -0.0087  0.1004  0.2857
30540SOL    HW192198   9.949   3.281   0.814 -0.4636  1.1622 -1.2248
30540SOL    HW292199  10.017   3.415   0.836  0.9787 -0.0038  1.9734
30541SOL     OW92200   4.023   9.305   2.784 -0.2819 -0.3234  0.2695
30541SOL    HW192201   4.050   9.369   2.849 -2.2106 -1.0976  1.9439
30541SOL    HW292202   3.979   9.356   2.716 -1.6037  0.1762  1.4705
30542SOL     OW92203   9.637   9.234   8.514  0.3282  0.3418  0.1134
30542SOL    HW192204   9.551   9.230   8.472  0.5406 -2.0022 -0.2687
30542SOL    HW292205   9.640   9.319   8.557 -1.6193  1.0355 -1.0340
30543SOL     OW92206   3.261   6.793   9.282 -0.3808 -0.2891 -0.1329
30543SOL    HW192207   3.223   6.807   9.369  1.5636 -0.5404  0.8331
30543SOL    HW292208   3.255   6.879   9.240 -0.5639  0.0751  0.6031
30544SOL     OW92209   0.812   1.429   1.050 -0.2358  0.2213  0.3359
30544SOL    HW192210   0.726   1.470   1.042 -0.3418 -0.4125 -2.6862
30544SOL    HW292211   0.796   1.336   1.037  1.0144  0.2592 -2.0801
30545SOL     OW92212   2.526   4.808   1.493 -0.0645 -0.1514 -0.7831
30545SOL    HW192213   2.495   4.892   1.458  0.4307  0.7578  0.8621
30545SOL    HW292214   2.449   4.751   1.487 -0.2560  0.2332 -2.4299
30546SOL     OW92215   3.832   7.634   0.937  0.3366  0.1780 -0.0206
30546SOL    HW192216   3.880   7.710   0.972 -0.8304  0.5382  0.8776
30546SOL    HW292217   3.885   7.604   0.864  0.8774  1.8350 -0.3679
30547SOL     OW92218   9.165   1.920   8.181  0.4335  0.0352 -0.2986
30547SOL    HW192219   9.168   1.842   8.236  4.0933 -0.1474 -0.4951
30547SOL    HW292220   9.221   1.983   8.225 -0.0029  1.4618 -1.6744
30548SOL     OW92221   0.989   9.493   7.577 -0.8305  0.4924 -0.0480
30548SOL    HW192222   0.953   9.553   7.642 -1.3641 -0.5791  0.6880
30548SOL    HW292223   1.081   9.482   7.603 -0.4274  1.7842 -0.8242
30549SOL     OW92224   3.256   9.132   1.781  0.2871  0.3088 -0.2516
30549SOL    HW192225   3.341   9.087   1.783  1.0065  1.6130  0.1069
30549SOL    HW292226   3.275   9.216   1.740 -1.1656  0.0451 -1.5377
30550SOL     OW92227   0.714   0.359   4.747  0.0613 -0.2750 -0.3313
30550SOL    HW192228   0.651   0.429   4.758 -0.4827 -0.9796  1.3349
30550SOL    HW292229   0.778   0.394   4.685 -0.9190  1.1592 -0.5832
30551SOL     OW92230   0.741   1.444   4.567 -0.3126 -0.1982  0.0328
30551SOL    HW192231   0.761   1.449   4.660 -0.7839  0.5964  0.0954
30551SOL    HW292232   0.658   1.490   4.557  0.2277  0.6308 -0.9210
30552SOL     OW92233   1.956   4.421   8.816 -0.0380 -0.1923  0.5347
30552SOL    HW192234   1.878   4.378   8.851 -0.3543 -0.3153 -0.3102
30552SOL    HW292235   2.001   4.455   8.893 -1.4878  0.8262  0.9656
30553SOL     OW92236   6.314   6.532   1.881  0.8061  0.7287  0.6595
30553SOL    HW192237   6.261   6.471   1.830  2.5239  0.0388 -0.3959
30553SOL    HW292238   6.264   6.546   1.961 -0.2991 -0.9718  0.3212
30554SOL     OW92239   3.235   5.353   0.796 -0.3682 -0.1781 -0.0517
30554SOL    HW192240   3.216   5.266   0.831  0.4421 -0.9004 -1.3100
30554SOL    HW292241   3.327   5.348   0.770 -0.3024  1.0776 -0.0972
30555SOL     OW92242   6.542   9.686   5.167  0.2908 -0.4316  0.2388
30555SOL    HW192243   6.451   9.709   5.154  0.3188 -0.1723  0.4849
30555SOL    HW292244   6.548   9.662   5.260  0.7071  0.6757  0.5138
30556SOL     OW92245   2.137   1.609   2.647 -0.1345 -0.5631  0.6755
30556SOL    HW192246   2.077   1.544   2.611 -0.0010  0.2352 -1.0658
30556SOL    HW292247   2.080   1.673   2.690 -0.2882 -1.5691  2.0327
30557SOL     OW92248   5.798   9.924   1.182  0.3441  0.6288 -0.0852
30557SOL    HW192249   5.732   9.911   1.113 -0.2464  0.8568  0.4191
30557SOL    HW292250   5.793  10.018   1.201  1.4796  0.8184 -0.6847
30558SOL     OW92251   6.030   5.342   5.647  0.1377 -0.0195  0.4283
30558SOL    HW192252   6.121   5.335   5.674 -0.1677  1.0965  1.9541
30558SOL    HW292253   5.985   5.374   5.725 -1.3416  0.6634 -0.6481
30559SOL     OW92254   3.923   3.383   4.455  0.3523 -0.0778  0.9759
30559SOL    HW192255   3.919   3.447   4.526 -0.2875 -0.0626  0.9325
30559SOL    HW292256   3.894   3.301   4.495 -3.4464  0.6079 -0.0029
30560SOL     OW92257   6.565   7.664   2.222 -0.2644 -0.7634  0.3504
30560SOL    HW192258   6.477   7.649   2.188  0.4697 -1.2833 -1.4145
30560SOL    HW292259   6.601   7.734   2.168  1.2197 -2.1535 -0.5382
30561SOL     OW92260   0.126   5.184   9.890 -0.5533  0.0060  0.2230
30561SOL    HW192261   0.098   5.216   9.975  0.3797 -1.2967  1.0681
30561SOL    HW292262   0.049   5.192   9.835 -1.4478  0.0332  1.4381
30562SOL     OW92263   6.918   0.861   4.568  0.6026  0.2579  0.5333
30562SOL    HW192264   6.942   0.917   4.642  0.2754 -0.3713  1.1168
30562SOL    HW292265   6.972   0.894   4.496  1.3160  0.5412  1.1733
30563SOL     OW92266   4.062   6.517   0.231  0.5412 -0.3601  0.7087
30563SOL    HW192267   4.130   6.564   0.279  1.8155 -3.1470  1.8186
30563SOL    HW292268   4.103   6.494   0.148  1.2195 -2.4505  1.5643
30564SOL     OW92269   2.051   0.788   6.535  0.3050  0.4931 -0.6265
30564SOL    HW192270   2.093   0.761   6.454  0.9477 -0.8473  0.1295
30564SOL    HW292271   2.111   0.852   6.573  0.6285  0.1523 -0.5674
30565SOL     OW92272   7.159   7.615   4.799  0.2244 -0.4910 -1.3595
30565SOL    HW192273   7.230   7.551   4.807  0.7543  0.0872 -1.3350
30565SOL    HW292274   7.167   7.649   4.710  0.2457 -0.1216 -1.2198
30566SOL     OW92275   6.070   3.325   8.723 -0.5521 -0.3292 -0.1258
30566SOL    HW192276   6.150   3.277   8.704 -0.3446 -0.2587  0.5477
30566SOL    HW292277   6.060   3.385   8.649  0.6892  0.5312  0.3557
30567SOL     OW92278   7.566   8.439   4.272  0.1223 -0.5748 -0.3912
30567SOL    HW192279   7.646   8.480   4.305  0.4669 -1.4213 -0.1554
30567SOL    HW292280   7.517   8.413   4.350 -0.0741 -0.6468 -0.5353
30568SOL     OW92281   4.647   9.955   4.785  0.3732  0.3220 -0.9985
30568SOL    HW192282   4.580   9.945   4.853  1.2275 -3.0505 -0.4593
30568SOL    HW292283   4.720   9.999   4.829  0.0463  0.2703 -0.3958
30569SOL     OW92284   2.266   1.306   2.953 -0.3963  0.6028  0.2278
30569SOL    HW192285   2.177   1.337   2.966 -0.7386  1.6830 -3.5817
30569SOL    HW292286   2.321   1.378   2.985 -0.7641 -0.0277  2.4999
30570SOL     OW92287   4.883   5.984   7.409 -0.2790 -0.1243  0.1990
30570SOL    HW192288   4.791   5.985   7.382 -0.0994 -0.1899 -0.4289
30570SOL    HW292289   4.930   6.020   7.334  0.2773 -0.7438  0.2415
30571SOL     OW92290   6.779   2.738   2.621  0.1663  0.0203 -0.5682
30571SOL    HW192291   6.704   2.795   2.639  0.7839  0.7743 -0.3177
30571SOL    HW292292   6.855   2.789   2.649  0.7011 -1.1841  0.2374
30572SOL     OW92293   0.183   0.644   3.457 -0.5250  0.1767  0.5325
30572SOL    HW192294   0.251   0.612   3.397  0.6713  1.2259  1.2807
30572SOL    HW292295   0.146   0.564   3.495  0.8956 -0.4103  0.7532
30573SOL     OW92296   7.722   5.171   7.179  0.0659 -0.5284 -0.7787
30573SOL    HW192297   7.720   5.265   7.162  0.2887 -0.9351 -3.5006
30573SOL    HW292298   7.631   5.147   7.195  0.2677  0.4899  2.8901
30574SOL     OW92299   0.524   7.043   1.856  0.1596  0.3768 -0.7341
30574SOL    HW192300   0.593   7.032   1.922 -0.7419  0.6367  0.2829
30574SOL    HW292301   0.516   7.138   1.846 -0.9323  0.3983  0.1429
30575SOL     OW92302   6.513   8.146   0.004 -0.2000 -0.0863 -0.1699
30575SOL    HW192303   6.505   8.162   0.098  1.8010  0.7656 -0.0910
30575SOL    HW292304   6.515   8.233  -0.036  0.3565 -0.3940 -0.8507
30576SOL     OW92305   9.410   5.465   4.588 -0.0293 -0.1799 -0.1776
30576SOL    HW192306   9.374   5.550   4.565  0.3547 -0.0476 -0.2963
30576SOL    HW292307   9.352   5.402   4.546 -1.3877 -0.0445  1.3792
30577SOL     OW92308   2.279   5.204   1.721 -0.7483 -0.0724 -0.9381
30577SOL    HW192309   2.289   5.293   1.754 -0.5174  0.2974 -1.9579
30577SOL    HW292310   2.290   5.212   1.626  3.5605 -1.7667 -0.7956
30578SOL     OW92311   9.208   3.687   9.754 -0.0832 -0.6354 -0.2366
30578SOL    HW192312   9.268   3.756   9.726  1.5113 -1.7602  0.3141
30578SOL    HW292313   9.209   3.691   9.850 -1.0716 -0.5316 -0.2175
30579SOL     OW92314   4.495   6.032   3.997 -0.3312 -0.3025  0.5227
30579SOL    HW192315   4.528   5.966   3.936  1.0587  0.3876  0.4838
30579SOL    HW292316   4.499   6.114   3.948  0.3539  0.1873  1.3610
30580SOL     OW92317   0.769   5.542   3.071 -0.8260 -0.1272  0.4734
30580SOL    HW192318   0.726   5.468   3.112  0.4444 -0.0007  2.1253
30580SOL    HW292319   0.767   5.611   3.137 -1.7086  1.2690 -0.9119
30581SOL     OW92320   0.820   5.364   3.811  0.2462  0.9317 -0.4918
30581SOL    HW192321   0.838   5.341   3.720 -0.9848  3.0006 -1.3321
30581SOL    HW292322   0.726   5.382   3.813 -0.2120 -1.2332  1.7475
30582SOL     OW92323   0.726   0.080   1.744 -0.3230 -0.4391  0.1968
30582SOL    HW192324   0.648   0.026   1.758  0.1277 -0.7694  1.5630
30582SOL    HW292325   0.758   0.100   1.832  2.1942 -1.8826 -0.2758
30583SOL     OW92326   5.076   2.942   0.270  0.3385 -0.8925 -0.3057
30583SOL    HW192327   5.020   3.007   0.229  0.5296 -0.5541 -0.0381
30583SOL    HW292328   5.165   2.970   0.247  0.3858 -1.7598 -1.2303
30584SOL     OW92329   6.187   0.527   9.162  0.0109 -0.5915 -0.2442
30584SOL    HW192330   6.129   0.570   9.100  0.2724  0.2550  0.0921
30584SOL    HW292331   6.275   0.558   9.139  0.1610 -0.6446  0.2420
30585SOL     OW92332   2.460   1.990   2.845 -0.0313  0.1428 -0.5866
30585SOL    HW192333   2.511   1.913   2.820 -1.9317 -1.6606  0.7184
30585SOL    HW292334   2.520   2.041   2.899  0.0778 -2.8027  2.4369
30586SOL     OW92335   3.588   3.319   4.156  0.5660  0.8738 -0.1749
30586SOL    HW192336   3.577   3.319   4.251  0.6057  1.1683 -0.1691
30586SOL    HW292337   3.635   3.400   4.138  1.1801  0.4792 -0.3729
30587SOL     OW92338   0.341   8.341   4.023 -0.2765  0.5954  0.1201
30587SOL    HW192339   0.424   8.366   4.063 -0.1232 -0.9215  0.7945
30587SOL    HW292340   0.321   8.413   3.962  1.6482  0.8586 -0.2427
30588SOL     OW92341   6.544   0.306   9.225 -0.1320 -0.4383  0.0675
30588SOL    HW192342   6.494   0.297   9.144 -0.9874 -0.0208  0.5383
30588SOL    HW292343   6.602   0.230   9.225  2.5873  1.3861 -2.7401
30589SOL     OW92344   0.775   7.967   3.274 -0.2856 -0.2222  0.1755
30589SOL    HW192345   0.765   7.884   3.320  1.1409 -1.1707 -1.1507
30589SOL    HW292346   0.729   7.954   3.191  0.6428  0.0142 -0.3859
30590SOL     OW92347   9.074   7.158   9.687 -0.0761  0.3007  0.4119
30590SOL    HW192348   9.168   7.154   9.671 -0.3677  0.6480 -1.7535
30590SOL    HW292349   9.060   7.100   9.761  1.5290 -1.9463 -0.9192
30591SOL     OW92350   4.231   7.793   7.078 -0.4010 -0.0122 -0.5432
30591SOL    HW192351   4.246   7.776   6.985  0.3048 -0.0223 -0.4306
30591SOL    HW292352   4.294   7.861   7.101 -0.6829  0.1033 -0.1083
30592SOL     OW92353   1.228   0.151   4.671  0.0604  0.3821  0.3967
30592SOL    HW192354   1.174   0.209   4.617 -0.5557 -0.5392 -0.0051
30592SOL    HW292355   1.231   0.069   4.621  3.7117  1.0461 -0.7477
30593SOL     OW92356   3.270   4.625   8.658 -0.1882  0.7788 -0.2343
30593SOL    HW192357   3.246   4.718   8.649  1.1212  1.2042  0.3666
30593SOL    HW292358   3.235   4.599   8.743  0.6544  1.1393  0.2336
30594SOL     OW92359   3.797   8.707   8.449  0.2191 -0.2332 -0.2777
30594SOL    HW192360   3.804   8.731   8.356  1.1365 -0.8104 -0.3593
30594SOL    HW292361   3.726   8.763   8.482 -0.3005 -0.2085 -1.3806
30595SOL     OW92362   6.998   2.476   0.365  0.3813  0.3595  0.0950
30595SOL    HW192363   7.077   2.440   0.405 -0.1040 -1.3307 -0.3910
30595SOL    HW292364   6.938   2.401   0.359 -0.3248  1.0338 -1.8750
30596SOL     OW92365   2.034   6.001   8.346 -0.4052  0.5363 -0.3719
30596SOL    HW192366   2.075   6.063   8.286 -0.1011  0.9272  0.2362
30596SOL    HW292367   1.948   5.985   8.308  0.0266  0.2515 -1.2805
30597SOL     OW92368   2.759   9.777   7.100 -0.1703 -0.3245 -0.2324
30597SOL    HW192369   2.749   9.783   7.195  0.0597  0.3810 -0.2482
30597SOL    HW292370   2.853   9.772   7.085 -0.2402 -1.5120 -0.3770
30598SOL     OW92371   3.991   8.745   6.695 -0.3441  0.1717  0.1913
30598SOL    HW192372   3.983   8.775   6.785  1.4127 -0.8843  0.7464
30598SOL    HW292373   3.905   8.762   6.656 -0.7411  1.8125  1.6790
30599SOL     OW92374   7.587   0.184   8.165 -0.2259 -0.2818 -0.4228
30599SOL    HW192375   7.543   0.137   8.235 -0.9916  0.2806 -0.5153
30599SOL    HW292376   7.520   0.243   8.129  0.5290  0.4210 -0.7196
30600SOL     OW92377   2.988   0.520   2.407  0.3064 -0.3470  0.0549
30600SOL    HW192378   3.013   0.584   2.340  0.4061 -0.3107  0.1257
30600SOL    HW292379   2.959   0.574   2.481 -1.5110 -0.3781 -0.5729
30601SOL     OW92380   4.403   5.609   5.739  0.3289 -0.0782 -0.2333
30601SOL    HW192381   4.457   5.566   5.806  1.0680  0.7647 -0.2702
30601SOL    HW292382   4.347   5.539   5.705  1.4401 -1.0075 -0.2304
30602SOL     OW92383   1.743   1.335   1.015  0.1957 -0.0435 -0.1839
30602SOL    HW192384   1.743   1.248   0.976 -1.0433 -0.4440  0.6323
30602SOL    HW292385   1.689   1.326   1.094  1.2269  1.1302  0.6979
30603SOL     OW92386   4.687   9.442   2.439  0.5697 -0.6125 -0.1627
30603SOL    HW192387   4.596   9.470   2.444 -0.6446 -3.6970 -1.7857
30603SOL    HW292388   4.717   9.439   2.529 -1.6060 -1.3701  0.5907
30604SOL     OW92389   5.479   3.843   8.405  0.6617 -0.1417  0.2227
30604SOL    HW192390   5.443   3.883   8.484  0.4374  1.9268 -0.8440
30604SOL    HW292391   5.561   3.890   8.389  0.4875 -0.2082 -1.0029
30605SOL     OW92392   1.476   0.115   4.783 -0.4292  0.7261 -0.3238
30605SOL    HW192393   1.519   0.172   4.718  0.3367  0.8986  0.3106
30605SOL    HW292394   1.391   0.095   4.745  0.6823 -0.6684 -2.2238
30606SOL     OW92395   1.020   5.093   4.624  0.0512  0.2158 -0.1681
30606SOL    HW192396   1.057   5.181   4.613  0.1530  0.4807  1.9235
30606SOL    HW292397   1.053   5.043   4.550  1.1121  1.5794 -0.6526
30607SOL     OW92398   6.923   1.776   6.375 -0.5325  0.2051  0.3696
30607SOL    HW192399   6.911   1.867   6.401 -0.0830  0.2216  0.5230
30607SOL    HW292400   6.937   1.779   6.281  1.3058  0.4804  0.6127
30608SOL     OW92401   5.110   3.386   4.331 -0.0597  0.0196 -0.3377
30608SOL    HW192402   5.017   3.365   4.342 -0.3678  0.4166 -1.9084
30608SOL    HW292403   5.111   3.459   4.270  1.2856  0.1932 -0.1362
30609SOL     OW92404   6.286   3.409   0.072  0.3867  0.0261  0.5724
30609SOL    HW192405   6.337   3.354   0.131 -1.0611  0.8122  2.6508
30609SOL    HW292406   6.337   3.489   0.064  1.0973 -0.4728 -0.1641
30610SOL     OW92407   4.655   3.743   2.224  0.2885 -0.3913  0.2780
30610SOL    HW192408   4.608   3.660   2.214 -0.2951 -0.5709  3.5125
30610SOL    HW292409   4.747   3.719   2.217  0.1121 -1.2478  0.7223
30611SOL     OW92410   5.842   3.557   3.649  0.5330 -0.2438  0.1426
30611SOL    HW192411   5.850   3.581   3.742 -1.0173 -0.2118  0.2802
30611SOL    HW292412   5.813   3.637   3.606  1.0365 -0.3197 -0.3573
30612SOL     OW92413   9.475   7.992   6.052 -0.0202  0.2845 -0.4606
30612SOL    HW192414   9.540   8.059   6.073 -0.1712 -0.0427  1.2227
30612SOL    HW292415   9.523   7.910   6.058 -0.3120  0.1181 -0.3760
30613SOL     OW92416   4.640   2.496   1.387 -0.3996  0.2318 -0.3448
30613SOL    HW192417   4.610   2.447   1.310 -0.7992 -1.3993  0.8113
30613SOL    HW292418   4.577   2.568   1.395 -0.9855 -0.1988 -0.9337
30614SOL     OW92419   0.481   9.592   5.831 -0.4914 -0.3500 -0.2954
30614SOL    HW192420   0.464   9.578   5.738 -2.8273 -1.2510  0.1966
30614SOL    HW292421   0.413   9.653   5.859 -1.1740 -1.7042  1.2148
30615SOL     OW92422   0.751   3.795   0.990 -0.3054 -0.8407  0.0257
30615SOL    HW192423   0.712   3.714   0.957  2.8299 -2.6293  0.2289
30615SOL    HW292424   0.785   3.838   0.911  0.3368 -1.1179  0.1417
30616SOL     OW92425   3.880   9.088   2.208  0.4512  0.3729  0.3930
30616SOL    HW192426   3.874   8.995   2.228 -0.9085  0.4869  0.6075
30616SOL    HW292427   3.973   9.109   2.219  1.5359 -1.6905 -3.0583
30617SOL     OW92428   2.376   2.986   0.058 -0.1897  0.2578 -0.0346
30617SOL    HW192429   2.359   2.948   0.145  1.6050 -1.2829 -0.2771
30617SOL    HW292430   2.470   3.006   0.060  0.3352 -1.6232 -2.2388
30618SOL     OW92431   4.289   7.505   1.904  0.1156  0.2684 -0.1128
30618SOL    HW192432   4.374   7.533   1.869  1.1565  0.4387  2.3339
30618SOL    HW292433   4.229   7.577   1.883  0.4979  0.0815 -2.0094
30619SOL     OW92434   6.931   7.987   6.694  0.1806  0.1741 -0.6271
30619SOL    HW192435   6.931   7.893   6.710  1.5336  0.3420  0.5458
30619SOL    HW292436   7.022   8.008   6.671  0.1750  1.3724  0.3591
30620SOL     OW92437   6.277   8.862   4.891 -0.2539  0.1050  0.4471
30620SOL    HW192438   6.275   8.956   4.874 -0.5019 -0.1721 -1.1517
30620SOL    HW292439   6.368   8.843   4.913 -0.0011  0.5671 -0.1747
30621SOL     OW92440   2.469   5.821   3.664 -0.6499  0.4617 -0.3620
30621SOL    HW192441   2.501   5.889   3.723 -1.5637  0.5328  0.0765
30621SOL    HW292442   2.421   5.761   3.722 -1.8510  0.7125 -1.0593
30622SOL     OW92443   4.490   9.249   3.021  0.2985  0.1868  0.0696
30622SOL    HW192444   4.522   9.224   2.934 -1.2924 -1.1739 -0.1721
30622SOL    HW292445   4.534   9.188   3.080  0.6685  0.5028  0.1254
30623SOL     OW92446   7.458   6.292   1.132  0.6291  0.3889 -0.0866
30623SOL    HW192447   7.476   6.305   1.225  1.3579 -2.3218  0.2322
30623SOL    HW292448   7.373   6.333   1.117  1.5476  2.9494  1.1881
30624SOL     OW92449   3.582   8.404   3.524  0.1612  0.2546 -0.0871
30624SOL    HW192450   3.621   8.478   3.571  0.7053  0.1603 -0.3826
30624SOL    HW292451   3.641   8.389   3.450  0.6522 -1.1433  0.5517
30625SOL     OW92452   9.947   1.292   1.599  0.2846 -0.6027  0.4337
30625SOL    HW192453   9.910   1.239   1.529  0.1584 -0.6071  0.5046
30625SOL    HW292454   9.949   1.234   1.675 -0.6410 -0.2485  0.7383
30626SOL     OW92455   3.079   1.353   6.747 -0.1220  0.2855  0.2361
30626SOL    HW192456   3.128   1.270   6.753 -1.2044 -0.5579 -1.5710
30626SOL    HW292457   2.988   1.326   6.740 -0.7515  1.7704  2.0450
30627SOL     OW92458   9.408   0.335   5.308 -0.0388 -0.6551 -0.7785
30627SOL    HW192459   9.362   0.300   5.384  2.5314  0.7952  1.6227
30627SOL    HW292460   9.496   0.297   5.314  1.1939  1.9634 -1.1227
30628SOL     OW92461   6.629   8.546   3.639  0.0060  0.4216  0.1277
30628SOL    HW192462   6.720   8.545   3.670  0.0547  2.1348  0.1659
30628SOL    HW292463   6.608   8.639   3.632 -2.0821  0.0747  1.0652
30629SOL     OW92464   8.778   0.301   4.456 -0.1576 -0.2953 -0.1946
30629SOL    HW192465   8.698   0.290   4.507  0.0197 -0.5344  0.0323
30629SOL    HW292466   8.849   0.278   4.516  0.1125  0.3744 -0.2468
30630SOL     OW92467   5.547   4.155   9.281 -0.2026 -0.3589 -0.3841
30630SOL    HW192468   5.463   4.191   9.253 -0.7432 -0.4196  1.1067
30630SOL    HW292469   5.611   4.202   9.228 -1.1926 -0.8629 -2.1176
30631SOL     OW92470   7.651   1.306   5.090  0.2240 -0.3454  0.2691
30631SOL    HW192471   7.598   1.385   5.101  0.2763 -0.5137  1.9554
30631SOL    HW292472   7.624   1.249   5.162  0.5859 -1.6487 -0.5973
30632SOL     OW92473   0.575   9.442   1.912 -0.0112 -0.1017  0.0117
30632SOL    HW192474   0.499   9.487   1.874  0.3244  0.0597 -0.4821
30632SOL    HW292475   0.561   9.349   1.891  0.9429  0.1429 -1.9374
30633SOL     OW92476   2.208   3.440   8.528  0.1045 -0.4210  0.7218
30633SOL    HW192477   2.200   3.389   8.447 -0.5716 -1.0025  1.1536
30633SOL    HW292478   2.182   3.529   8.502 -0.9519 -0.7840  0.4778
30634SOL     OW92479   0.069   4.913   2.082  0.1698 -0.1335 -0.3716
30634SOL    HW192480   0.017   4.840   2.047  0.0893 -0.2466 -0.0197
30634SOL    HW292481   0.009   4.987   2.082  0.0725 -0.2124 -0.1671
30635SOL     OW92482   8.256   8.889   2.873  0.2604 -0.1060 -0.0276
30635SOL    HW192483   8.307   8.838   2.936 -0.2854 -1.2875 -0.5156
30635SOL    HW292484   8.266   8.842   2.790 -0.8031  0.2109 -0.3535
30636SOL     OW92485   2.704   9.546   1.255 -0.1913  0.1709 -0.3604
30636SOL    HW192486   2.652   9.528   1.176 -1.0003  0.2694  0.1300
30636SOL    HW292487   2.638   9.569   1.321  0.6517  3.7768 -0.5915
30637SOL     OW92488   6.519   3.094   3.708 -0.0143 -0.1570  0.6178
30637SOL    HW192489   6.449   3.045   3.753 -0.2002  0.3431  0.8814
30637SOL    HW292490   6.473   3.161   3.658  0.2653  0.0759  0.6683
30638SOL     OW92491   4.863   2.993   1.390  0.1276  0.1275 -0.2189
30638SOL    HW192492   4.923   3.067   1.392  1.6823 -1.0693 -0.2090
30638SOL    HW292493   4.865   2.958   1.479  2.1438 -1.9290 -0.9592
30639SOL     OW92494   8.420   6.878   3.166 -0.0792 -0.0645  0.1930
30639SOL    HW192495   8.394   6.788   3.147  0.5625 -0.3904  0.8301
30639SOL    HW292496   8.495   6.895   3.109  0.2593 -0.1880  0.5946
30640SOL     OW92497   7.892   3.642   0.026 -0.2421  0.7839  0.3724
30640SOL    HW192498   7.843   3.593   0.091 -0.3215  0.4230  0.0467
30640SOL    HW292499   7.825   3.685  -0.027 -0.2817 -0.7410 -0.8784
30641SOL     OW92500   2.351   1.489   8.200  0.0003 -0.2845  0.0810
30641SOL    HW192501   2.318   1.512   8.113  1.0298  1.1467  0.0293
30641SOL    HW292502   2.336   1.567   8.253  0.9706 -0.5096  0.7155
30642SOL     OW92503   9.000   6.203   6.635  0.0028 -0.3911  1.1087
30642SOL    HW192504   9.022   6.296   6.643 -1.2736  0.0880 -0.4270
30642SOL    HW292505   8.907   6.199   6.658 -0.3266 -1.0217 -0.2496
30643SOL     OW92506   0.727   7.717   1.170 -0.1421  0.0065 -0.5038
30643SOL    HW192507   0.644   7.708   1.122  0.2681  0.8489 -1.3920
30643SOL    HW292508   0.752   7.808   1.158  0.6973 -0.1286  0.1435
30644SOL     OW92509   6.182   2.462   3.147 -0.3638  0.3487 -0.4522
30644SOL    HW192510   6.136   2.457   3.063 -1.1927 -0.0260  0.0077
30644SOL    HW292511   6.180   2.372   3.180 -1.1466  0.7146  0.5357
30645SOL     OW92512   3.095   5.153   5.698 -0.4759  0.5440 -0.5391
30645SOL    HW192513   3.117   5.070   5.739 -1.8885  0.4693  0.1148
30645SOL    HW292514   3.052   5.204   5.767 -1.9359  0.8315 -1.6043
30646SOL     OW92515   7.148   2.631   9.666  0.5530  0.2091 -0.5805
30646SOL    HW192516   7.054   2.648   9.664  0.5511  0.3867  0.5999
30646SOL    HW292517   7.167   2.592   9.580 -0.3476  1.4225 -1.3653
30647SOL     OW92518   7.918   9.838   6.612  0.1915  0.1263  0.4636
30647SOL    HW192519   7.957   9.831   6.699  1.2163  1.1818  0.1311
30647SOL    HW292520   7.993   9.848   6.553 -0.4947 -0.3004 -0.5115
30648SOL     OW92521   1.275   8.876   2.994 -0.1062 -0.4133  0.4184
30648SOL    HW192522   1.288   8.816   2.920 -1.3069 -0.0946 -0.0593
30648SOL    HW292523   1.348   8.938   2.987 -0.4941 -0.0691 -0.8104
30649SOL     OW92524   4.683   4.284   6.030 -0.0109 -0.3179 -0.0918
30649SOL    HW192525   4.760   4.333   6.003 -0.4716  1.0044  0.9204
30649SOL    HW292526   4.718   4.199   6.058  1.1476  0.4488  0.8607
30650SOL     OW92527   1.774   3.677   6.592  0.3978  0.2486 -0.3888
30650SOL    HW192528   1.830   3.648   6.663  1.7054  0.2186 -1.3896
30650SOL    HW292529   1.812   3.637   6.513 -1.7983 -0.8523 -0.9847
30651SOL     OW92530   4.058   0.424   5.401 -0.2614  0.3825  0.6040
30651SOL    HW192531   3.985   0.363   5.404 -1.4105  1.6303 -0.7357
30651SOL    HW292532   4.094   0.414   5.312  0.3813  0.7060  0.8176
30652SOL     OW92533   3.880   5.527   8.134 -0.0113  0.0733  0.3748
30652SOL    HW192534   3.868   5.470   8.210  1.7339  0.9821  1.4135
30652SOL    HW292535   3.890   5.467   8.060 -0.3829 -0.8762  1.0726
30653SOL     OW92536   5.099   2.740   5.323 -0.8470 -0.2306  0.0212
30653SOL    HW192537   5.156   2.755   5.247 -0.1704 -1.1823  0.3230
30653SOL    HW292538   5.020   2.790   5.304 -1.0115 -1.0875 -1.6941
30654SOL     OW92539   0.764   3.958   8.919  0.2694  0.0129 -0.1050
30654SOL    HW192540   0.698   3.916   8.863 -0.7415  0.3716  0.7787
30654SOL    HW292541   0.814   3.885   8.955 -0.1031 -0.3063 -0.2250
30655SOL     OW92542   8.069   3.805   4.404 -0.6356 -0.3094  0.9140
30655SOL    HW192543   8.154   3.842   4.428 -0.4119 -0.3967  0.2861
30655SOL    HW292544   8.058   3.829   4.311 -1.0930 -0.6781  0.8691
30656SOL     OW92545   9.841   8.358   6.003 -0.5912 -0.4930 -0.1243
30656SOL    HW192546   9.807   8.422   6.065  0.0101 -0.3188  0.0330
30656SOL    HW292547   9.781   8.363   5.928 -1.8551 -1.3629  0.7990
30657SOL     OW92548   9.144   2.457   5.132  0.0624 -0.1689  0.1047
30657SOL    HW192549   9.067   2.454   5.189  0.1557 -0.2975  0.2258
30657SOL    HW292550   9.218   2.464   5.192  0.0728  1.4436 -0.0480
30658SOL     OW92551   0.755   4.368   1.924 -0.5376  0.1695 -0.1113
30658SOL    HW192552   0.669   4.342   1.958 -0.2964 -0.3906  0.0747
30658SOL    HW292553   0.761   4.461   1.945 -1.8670  0.6753 -1.7637
30659SOL     OW92554   2.945   8.789   0.465  0.7644 -0.3411 -0.1752
30659SOL    HW192555   2.880   8.720   0.477 -0.7626  1.0170 -0.4118
30659SOL    HW292556   2.925   8.854   0.532  2.0520 -0.0036 -0.0801
30660SOL     OW92557   1.537   9.222  10.018 -0.0207  0.0943 -0.4412
30660SOL    HW192558   1.509   9.277   9.945 -2.5008 -1.4268 -0.7778
30660SOL    HW292559   1.571   9.143   9.977  1.4644  0.4455  0.0572
30661SOL     OW92560   3.378   3.180   3.267 -0.3712 -0.1089  0.1675
30661SOL    HW192561   3.459   3.137   3.239 -0.9703 -0.9450 -0.3442
30661SOL    HW292562   3.320   3.174   3.191 -0.6041  1.3047  0.2144
30662SOL     OW92563   5.340   7.716   7.813 -0.5552 -0.0483 -0.6427
30662SOL    HW192564   5.370   7.739   7.901 -1.1011 -0.1438 -0.4283
30662SOL    HW292565   5.398   7.646   7.786 -0.6985 -0.3678 -0.1514
30663SOL     OW92566   2.493   2.260   8.171  0.2689 -0.8932 -0.4187
30663SOL    HW192567   2.487   2.319   8.246 -2.2235 -0.8563 -0.5755
30663SOL    HW292568   2.530   2.313   8.101 -0.3766  0.0007 -0.0951
30664SOL     OW92569   4.723   8.342   6.265  0.2881 -0.2554 -0.2033
30664SOL    HW192570   4.748   8.434   6.276  0.9941 -0.5005  0.3046
30664SOL    HW292571   4.631   8.345   6.239  0.3634  0.6011 -0.3943
30665SOL     OW92572   3.568   3.177   0.804  0.3198 -0.5265 -0.0698
30665SOL    HW192573   3.617   3.203   0.882  0.9646 -0.5088 -0.4733
30665SOL    HW292574   3.492   3.131   0.838 -0.4882  1.2490  0.6541
30666SOL     OW92575   1.295   7.383   5.968  0.2798 -0.2676  0.0116
30666SOL    HW192576   1.389   7.394   5.982  0.5049 -1.3110 -0.5836
30666SOL    HW292577   1.263   7.346   6.050  0.5068 -0.5178 -0.0113
30667SOL     OW92578   7.620   7.141   6.432  0.7788 -0.0024 -0.4647
30667SOL    HW192579   7.588   7.125   6.520  2.9244  0.2807  0.4296
30667SOL    HW292580   7.581   7.072   6.379 -0.7158 -0.0412  0.6497
30668SOL     OW92581   7.999   8.571   1.669 -0.1020  0.6075 -0.1419
30668SOL    HW192582   7.940   8.532   1.604  1.1722 -1.8506  0.0457
30668SOL    HW292583   7.946   8.579   1.748 -1.1446  1.8730 -0.9285
30669SOL     OW92584   9.126   1.336   7.142 -0.1097 -0.3384  0.4788
30669SOL    HW192585   9.213   1.373   7.128 -0.1290 -0.6260 -0.4793
30669SOL    HW292586   9.113   1.340   7.237  1.5293 -1.5913  0.7904
30670SOL     OW92587   9.083   1.868   7.543  0.3865 -0.4390  0.1946
30670SOL    HW192588   9.141   1.833   7.476 -0.4206  0.6055 -1.0848
30670SOL    HW292589   9.003   1.815   7.535 -0.4229  0.8927 -0.9997
30671SOL     OW92590   7.275   7.022   1.938 -0.0026  0.2933  0.0977
30671SOL    HW192591   7.287   7.049   2.029  0.8469 -1.1929  0.4686
30671SOL    HW292592   7.326   7.085   1.887  0.1519  0.6785  0.7209
30672SOL     OW92593   9.196   6.512   1.051 -0.2630 -0.1278 -0.0527
30672SOL    HW192594   9.206   6.440   0.988  1.3201  0.1301 -0.1253
30672SOL    HW292595   9.145   6.473   1.122  1.4772 -1.6936  0.4268
30673SOL     OW92596   3.784   7.135   8.866  0.6147 -0.3266  0.9931
30673SOL    HW192597   3.840   7.104   8.937 -1.0781 -1.3955  1.9211
30673SOL    HW292598   3.780   7.230   8.879  1.0938 -0.3974  1.7528
30674SOL     OW92599   7.389   8.549   3.028  0.4546 -0.5202  0.8114
30674SOL    HW192600   7.363   8.632   2.988  0.8757 -0.7253  0.0967
30674SOL    HW292601   7.470   8.525   2.984  1.0024 -0.6978  1.8883
30675SOL     OW92602   1.350   7.348   3.657  0.7153  0.8768 -0.0042
30675SOL    HW192603   1.380   7.303   3.736  1.2205  1.3902  0.1097
30675SOL    HW292604   1.340   7.279   3.592  1.2397  0.5720  0.2303
30676SOL     OW92605   2.185   6.190   2.900 -0.0907 -0.1341  0.1170
30676SOL    HW192606   2.225   6.277   2.896  0.0478 -0.2272 -0.7116
30676SOL    HW292607   2.260   6.130   2.905  0.0020 -0.3778 -2.4997
30677SOL     OW92608   5.343   6.839   7.475  0.3407 -0.1566  0.3145
30677SOL    HW192609   5.400   6.914   7.465 -0.2345  0.7233  2.8964
30677SOL    HW292610   5.395   6.774   7.522  0.4358 -0.9547 -0.8234
30678SOL     OW92611   3.830   7.156   5.084 -0.2525  0.0072 -0.1683
30678SOL    HW192612   3.761   7.101   5.122  0.2605 -0.4548  0.0986
30678SOL    HW292613   3.806   7.163   4.991 -0.3981 -0.5463 -0.1730
30679SOL     OW92614   4.409   7.424   9.237  0.0930 -0.4165  0.1411
30679SOL    HW192615   4.352   7.357   9.276 -1.2524  1.1180  0.9025
30679SOL    HW292616   4.357   7.459   9.164  0.8512 -0.2712 -0.3374
30680SOL     OW92617   7.745   1.710   5.293  0.0274  0.5458  0.7268
30680SOL    HW192618   7.755   1.616   5.308  0.0587  0.1845 -1.2431
30680SOL    HW292619   7.650   1.723   5.284  0.1171  0.3403 -0.8157
30681SOL     OW92620   2.367   9.368   4.547  0.4198  0.3548 -0.3675
30681SOL    HW192621   2.280   9.403   4.528  0.1160 -0.0666  0.2092
30681SOL    HW292622   2.352   9.275   4.565  1.1395  0.0365 -1.3291
30682SOL     OW92623   1.882   9.775   1.070  0.1869 -0.4149  0.1371
30682SOL    HW192624   1.961   9.721   1.079 -0.1747 -0.9243  0.2951
30682SOL    HW292625   1.825   9.724   1.012  0.8913  0.9957 -1.9311
30683SOL     OW92626   0.655   9.352   3.789  0.3896 -0.1609  0.4942
30683SOL    HW192627   0.735   9.366   3.840  0.6796  0.2065 -0.0481
30683SOL    HW292628   0.597   9.303   3.848  1.0812 -0.5926  0.8368
30684SOL     OW92629   2.180   1.098   0.537  0.0732  0.5074  0.1977
30684SOL    HW192630   2.160   1.099   0.444  0.9139 -0.1155  0.0043
30684SOL    HW292631   2.272   1.074   0.542 -0.0193  0.3098  1.2026
30685SOL     OW92632   3.337   2.183   3.670  0.1298 -0.2929  0.0049
30685SOL    HW192633   3.247   2.199   3.641 -0.8152  0.3254  3.0009
30685SOL    HW292634   3.351   2.246   3.740  3.0813 -0.1171 -0.6178
30686SOL     OW92635   3.213   6.740   7.119 -0.3515 -0.1599  0.2872
30686SOL    HW192636   3.204   6.827   7.159  0.2584 -0.8178  1.9273
30686SOL    HW292637   3.133   6.694   7.144  0.3751 -0.8298  1.4554
30687SOL     OW92638   9.842   0.981   5.963  0.5567 -0.6556  0.2860
30687SOL    HW192639   9.826   0.915   5.895 -1.2727 -0.9522  0.9489
30687SOL    HW292640   9.760   0.986   6.011  1.0652  1.2364  1.0380
30688SOL     OW92641   8.160   8.082   7.772 -0.3209  0.0647  0.0382
30688SOL    HW192642   8.148   8.102   7.679 -1.0836  0.4845  0.2251
30688SOL    HW292643   8.250   8.048   7.777 -1.3482 -3.2898 -1.4190
30689SOL     OW92644   4.746   8.886   8.046  0.2722  0.3005  0.4277
30689SOL    HW192645   4.667   8.921   8.085  0.2795  0.5774  0.1961
30689SOL    HW292646   4.744   8.916   7.955  0.0534 -0.6596  0.1020
30690SOL     OW92647   4.408   0.706   0.894  0.3054  1.0219 -0.0967
30690SOL    HW192648   4.325   0.658   0.899  0.4733  0.8104  0.8946
30690SOL    HW292649   4.383   0.798   0.907  0.1895  0.9896 -0.0904
30691SOL     OW92650   7.676   2.483   7.425  0.0229  0.1845 -0.0396
30691SOL    HW192651   7.755   2.466   7.374 -0.6176  0.5716 -1.2209
30691SOL    HW292652   7.705   2.483   7.516  1.4043  0.4367 -0.4526
30692SOL     OW92653   5.716   4.346   3.529  0.0993 -0.0054  0.5376
30692SOL    HW192654   5.679   4.259   3.544  2.6533 -1.3326 -0.3064
30692SOL    HW292655   5.776   4.359   3.601  0.2494  0.7605  0.2764
30693SOL     OW92656   8.789   9.755   0.655 -0.2137 -0.6143  0.3380
30693SOL    HW192657   8.782   9.690   0.725  2.2789 -1.4861 -0.1218
30693SOL    HW292658   8.854   9.719   0.595  1.2849  2.2724  0.0452
30694SOL     OW92659   8.329   3.033   2.428  0.4150 -0.2545  0.1788
30694SOL    HW192660   8.242   3.028   2.467  0.5377  2.2562  0.9330
30694SOL    HW292661   8.372   2.952   2.457 -1.4843 -1.3544  0.1128
30695SOL     OW92662   7.976   8.478   4.189  0.1353 -0.5268  0.6347
30695SOL    HW192663   7.943   8.476   4.099 -0.4621 -0.6965  0.8508
30695SOL    HW292664   8.066   8.510   4.181 -0.2580  0.5114  0.0706
30696SOL     OW92665   1.915   8.942   8.183  1.0266  0.7701 -0.2448
30696SOL    HW192666   1.869   8.869   8.141  1.0566 -0.3247  1.4822
30696SOL    HW292667   1.932   9.004   8.113 -1.2654  0.2748 -1.3373
30697SOL     OW92668   5.719   3.016   3.613 -0.0425  0.2869 -0.0262
30697SOL    HW192669   5.808   2.994   3.586  0.1091  0.6600  0.1658
30697SOL    HW292670   5.709   3.109   3.590  0.5764  1.0286  2.4162
30698SOL     OW92671   6.893   1.243   1.003  0.1605  0.2451 -0.1762
30698SOL    HW192672   6.969   1.193   1.034  0.6715 -0.0605 -1.8415
30698SOL    HW292673   6.923   1.334   1.004  0.7014  0.0854 -1.2223
30699SOL     OW92674   5.634   7.301   9.884  0.4295  0.0039 -0.2443
30699SOL    HW192675   5.628   7.396   9.895 -0.1209 -0.1249  0.7176
30699SOL    HW292676   5.718   7.287   9.842  0.5113  0.9224 -0.4070
30700SOL     OW92677   2.019   8.842   5.953 -0.1812 -0.2831  0.2738
30700SOL    HW192678   2.073   8.851   6.033 -0.5550 -2.7927  0.8915
30700SOL    HW292679   2.080   8.861   5.882  0.3288  1.3730  1.0781
30701SOL     OW92680   8.998   5.549   5.299 -0.1098  0.2969 -0.1192
30701SOL    HW192681   9.029   5.639   5.293 -1.0818  0.7649  1.2785
30701SOL    HW292682   8.916   5.548   5.249  1.5266 -0.7187 -3.0545
30702SOL     OW92683   5.095   4.013   0.741 -0.4029 -0.0303 -0.3064
30702SOL    HW192684   5.120   4.092   0.789 -1.0258  0.0944 -0.1770
30702SOL    HW292685   5.042   4.045   0.667 -1.8952 -0.3991  0.5554
30703SOL     OW92686   7.058   6.411   6.888  0.2025 -0.2039 -0.0900
30703SOL    HW192687   7.075   6.411   6.794 -0.0020 -1.7483 -0.1559
30703SOL    HW292688   6.974   6.455   6.898 -1.2531 -2.5620 -0.9869
30704SOL     OW92689   7.789   1.517   6.651 -0.4461  0.5156 -0.5252
30704SOL    HW192690   7.825   1.454   6.713 -0.8077 -1.1208 -1.9285
30704SOL    HW292691   7.713   1.555   6.697  0.4967  0.8695  0.7935
30705SOL     OW92692   6.786   8.053   9.806 -0.3882  0.0350  0.2677
30705SOL    HW192693   6.858   8.022   9.751  0.5485  0.5393  1.1690
30705SOL    HW292694   6.756   7.975   9.852 -0.7310 -0.2644 -0.4498
30706SOL     OW92695   2.140   5.643   0.837 -0.3243  0.0256 -0.3950
30706SOL    HW192696   2.179   5.724   0.805  0.3056  0.2273  0.8115
30706SOL    HW292697   2.196   5.574   0.801  1.6410  0.3338  1.8094
30707SOL     OW92698   9.252   3.659   3.408 -0.1708 -0.4488 -0.0572
30707SOL    HW192699   9.329   3.715   3.400 -0.9283  0.6927  0.3340
30707SOL    HW292700   9.247   3.639   3.502 -1.4574  1.1514  0.2500
30708SOL     OW92701   3.151   3.859   2.787  0.0898 -0.4675 -0.7029
30708SOL    HW192702   3.239   3.838   2.754  0.3716  1.1452 -1.1096
30708SOL    HW292703   3.153   3.833   2.879  1.7600  1.3704 -0.1206
30709SOL     OW92704   8.257   2.463   4.566  0.2614 -0.1207  0.0891
30709SOL    HW192705   8.188   2.400   4.585  1.0245 -1.3951 -1.1526
30709SOL    HW292706   8.217   2.549   4.584 -0.8135 -0.9271  1.7774
30710SOL     OW92707   3.121   7.384   5.755  0.6611 -0.7116  0.0839
30710SOL    HW192708   3.064   7.461   5.764 -0.8089 -1.6354 -0.8268
30710SOL    HW292709   3.169   7.381   5.838 -1.9127 -0.8382  1.7211
30711SOL     OW92710   1.627   1.086   7.604 -0.0703 -0.1485  0.2988
30711SOL    HW192711   1.634   1.004   7.653  0.0878  0.0143  0.5482
30711SOL    HW292712   1.544   1.079   7.558  0.2203 -0.7130 -0.1599
30712SOL     OW92713   6.475   6.358   9.941  0.7269  0.3591 -0.5697
30712SOL    HW192714   6.553   6.390   9.987  0.7665 -2.3365  1.5406
30712SOL    HW292715   6.442   6.287   9.997 -1.9988 -0.0477 -2.4929
30713SOL     OW92716   4.260   2.113   3.149  0.1586 -0.2204  0.3134
30713SOL    HW192717   4.328   2.049   3.173  0.0864 -0.3965  0.0527
30713SOL    HW292718   4.306   2.196   3.142 -0.0694  0.1721  2.6595
30714SOL     OW92719   2.036   3.870   6.421  0.0420  0.3506  0.1838
30714SOL    HW192720   1.982   3.791   6.426  0.1523  0.1243 -1.5026
30714SOL    HW292721   1.990   3.926   6.358  1.0962  0.6936 -0.2991
30715SOL     OW92722   3.239   2.473   2.069  0.0702 -0.0226  0.0343
30715SOL    HW192723   3.164   2.529   2.049  0.0902  0.1207  0.3548
30715SOL    HW292724   3.315   2.525   2.044  0.1111  0.2847  0.7493
30716SOL     OW92725   7.926   8.130   7.893  0.1166  0.3872 -0.4560
30716SOL    HW192726   7.875   8.100   7.818 -1.0648  3.4233 -1.0352
30716SOL    HW292727   8.017   8.116   7.868 -0.2923  0.5182 -2.1002
30717SOL     OW92728   9.197   7.514   9.269  0.0445 -0.7018 -0.7653
30717SOL    HW192729   9.277   7.509   9.321  0.8807 -0.3741 -2.0071
30717SOL    HW292730   9.213   7.458   9.194 -0.6260 -0.0775 -1.3862
30718SOL     OW92731   1.062   5.884   0.248  0.6366  0.2835 -0.5846
30718SOL    HW192732   1.022   5.967   0.221 -0.7289 -0.0813  0.2514
30718SOL    HW292733   1.040   5.823   0.177 -1.8725 -0.3569  0.6471
30719SOL     OW92734   3.536   3.154   8.733  0.3900  0.1334  0.4898
30719SOL    HW192735   3.580   3.182   8.653 -1.4256  0.3567 -0.4955
30719SOL    HW292736   3.495   3.234   8.766  0.1249 -0.1991  0.9674
30720SOL     OW92737   2.121   0.221   3.839 -0.3907 -0.1672  0.6130
30720SOL    HW192738   2.147   0.227   3.931 -0.4886 -0.9746  0.6935
30720SOL    HW292739   2.191   0.170   3.798 -0.3305  0.2166  0.2236
30721SOL     OW92740   5.440   0.548   9.293 -0.1286  0.1905 -1.2471
30721SOL    HW192741   5.481   0.577   9.375  1.6154  0.5606 -2.1954
30721SOL    HW292742   5.355   0.512   9.320 -0.7620  2.6632  0.4427
30722SOL     OW92743   5.830   5.419   0.792  0.4872 -0.0174  0.6217
30722SOL    HW192744   5.870   5.347   0.841  0.2748 -1.2969 -0.9886
30722SOL    HW292745   5.891   5.434   0.720  0.3090  1.1542  0.6992
30723SOL     OW92746   0.493   2.962   9.610  0.1953  0.3502 -0.6575
30723SOL    HW192747   0.402   2.992   9.614  0.4055  0.9745 -0.4188
30723SOL    HW292748   0.521   2.958   9.702  1.8260  4.6898 -0.7064
30724SOL     OW92749   7.475   4.152   0.271 -0.3094 -0.0764 -0.5857
30724SOL    HW192750   7.473   4.244   0.245 -1.1447  0.1554  0.2395
30724SOL    HW292751   7.388   4.118   0.248 -1.0123  0.0896  1.6055
30725SOL     OW92752   5.585   1.488   3.787  0.9671  0.0968  0.2622
30725SOL    HW192753   5.587   1.579   3.816  1.6377 -0.1346  0.9840
30725SOL    HW292754   5.495   1.473   3.759  1.0056  1.1633 -0.4738
30726SOL     OW92755   6.283   1.110   7.540  0.0985 -0.1008  0.4265
30726SOL    HW192756   6.325   1.031   7.506  1.5767  0.0461  1.7881
30726SOL    HW292757   6.304   1.111   7.633 -0.6525  1.4375  0.6243
30727SOL     OW92758   3.401   3.922   9.369  0.3476 -0.6045 -0.2370
30727SOL    HW192759   3.331   3.975   9.330  0.2129 -0.9772 -0.5136
30727SOL    HW292760   3.354   3.858   9.423  0.5124 -0.3802  0.1706
30728SOL     OW92761   2.892   2.390   4.362  0.3401  0.0198 -0.5158
30728SOL    HW192762   2.855   2.409   4.276  2.0384  1.4135 -1.0161
30728SOL    HW292763   2.862   2.462   4.418 -0.5435 -0.7391 -0.0011
30729SOL     OW92764   9.187   0.295   9.187 -0.6874  0.5127  0.1303
30729SOL    HW192765   9.206   0.389   9.197 -1.7383  0.8142 -0.6268
30729SOL    HW292766   9.093   0.287   9.204 -1.0229 -0.0853 -1.8070
30730SOL     OW92767   8.763   8.559   3.101 -0.0986 -0.3096  0.4752
30730SOL    HW192768   8.779   8.630   3.163 -2.6456  0.6984  0.1358
30730SOL    HW292769   8.806   8.588   3.020  1.4993 -0.6726  1.1590
30731SOL     OW92770   3.574   3.965   6.007 -0.1599 -0.0995  0.5468
30731SOL    HW192771   3.666   3.980   5.986 -0.3362  1.1076  0.5565
30731SOL    HW292772   3.532   3.948   5.923 -0.2038  0.9821  0.3394
30732SOL     OW92773   3.014   5.362   4.481 -0.4290 -0.1925 -0.3464
30732SOL    HW192774   3.062   5.325   4.406  1.6655  2.4141 -0.4532
30732SOL    HW292775   2.929   5.319   4.479  0.4599 -2.0758 -2.6698
30733SOL     OW92776   0.379   5.545   1.728  0.1932 -0.1618 -0.3947
30733SOL    HW192777   0.435   5.484   1.680  0.0145 -1.1198  0.5832
30733SOL    HW292778   0.404   5.534   1.820 -1.3103 -0.3214  0.0281
30734SOL     OW92779   2.573   2.257   4.537  0.2522  0.0802  0.2379
30734SOL    HW192780   2.518   2.182   4.559 -0.4077  0.6920  0.7375
30734SOL    HW292781   2.655   2.219   4.506 -0.1408 -0.8428  0.3079
30735SOL     OW92782   4.371   1.740   8.759 -0.3836 -0.6546  0.6092
30735SOL    HW192783   4.449   1.731   8.704 -1.3680  0.4533 -1.0403
30735SOL    HW292784   4.402   1.722   8.847  1.1804 -2.8839 -0.3205
30736SOL     OW92785   1.613   7.418   3.511  0.0105  0.4004  0.1972
30736SOL    HW192786   1.563   7.478   3.456 -1.1947 -2.2548 -1.8680
30736SOL    HW292787   1.552   7.390   3.579  0.1938  0.6566  0.4673
30737SOL     OW92788   3.338   6.264   3.294 -0.2559 -0.3812 -0.0170
30737SOL    HW192789   3.397   6.338   3.281  0.3667 -0.8791 -0.0570
30737SOL    HW292790   3.331   6.224   3.207 -1.8822  0.5647 -0.3715
30738SOL     OW92791   0.612   5.360   3.198  0.2267 -0.0421  0.1124
30738SOL    HW192792   0.659   5.335   3.277 -0.6614  0.7775  0.9239
30738SOL    HW292793   0.552   5.287   3.181 -1.9090  1.1035  2.1119
30739SOL     OW92794   8.861   9.117   9.786  0.0362 -0.2431  0.6525
30739SOL    HW192795   8.864   9.174   9.863 -1.4527 -2.6228  2.6147
30739SOL    HW292796   8.789   9.151   9.734  0.7251  1.0927  0.5438
30740SOL     OW92797   6.259   4.081   0.501 -0.6333  0.1487 -0.0576
30740SOL    HW192798   6.170   4.112   0.480 -0.6542  0.1135 -0.0229
30740SOL    HW292799   6.271   4.104   0.593 -0.3929  0.6570 -0.2116
30741SOL     OW92800   3.497   8.218   6.295  0.5465 -0.0083  0.7021
30741SOL    HW192801   3.514   8.190   6.385  2.1717 -1.1895  0.0649
30741SOL    HW292802   3.582   8.216   6.252 -0.2101  0.4201 -0.9001
30742SOL     OW92803   5.096   5.361   4.308  0.0446 -0.1025 -0.5017
30742SOL    HW192804   5.029   5.312   4.261  0.2652  0.1213 -1.0468
30742SOL    HW292805   5.077   5.344   4.401 -1.4400  0.8305 -0.5916
30743SOL     OW92806   2.581   2.801   2.379  0.1822  0.3163 -0.1891
30743SOL    HW192807   2.529   2.875   2.409  1.3774  0.7239  0.9901
30743SOL    HW292808   2.547   2.781   2.292 -1.6137  0.8412  0.3486
30744SOL     OW92809   3.021   7.611   6.909 -0.1066 -0.0171 -0.0240
30744SOL    HW192810   3.008   7.645   6.998 -1.3596 -2.2727  0.7328
30744SOL    HW292811   2.933   7.605   6.873  0.3575  0.4027 -1.2611
30745SOL     OW92812   9.548   4.861   5.698  0.3526  0.1884 -0.5471
30745SOL    HW192813   9.603   4.794   5.658  1.0486 -0.3082  1.1510
30745SOL    HW292814   9.468   4.861   5.645  1.0978 -0.6376 -1.7124
30746SOL     OW92815   3.786   6.066   6.394 -0.0018  0.5653 -0.3360
30746SOL    HW192816   3.862   6.042   6.341  0.7288  0.7275  0.5919
30746SOL    HW292817   3.758   5.983   6.434  2.2035  0.9805  2.4603
30747SOL     OW92818   3.966   3.372   3.834 -0.5709  0.0602 -0.1389
30747SOL    HW192819   3.910   3.331   3.901 -0.6772  0.7118  0.1840
30747SOL    HW292820   3.910   3.379   3.757 -1.4925  2.1210  0.6375
30748SOL     OW92821   7.804   5.303   6.950 -0.1036 -0.5116  0.3362
30748SOL    HW192822   7.880   5.253   6.978 -0.0925 -1.5810 -1.4837
30748SOL    HW292823   7.737   5.237   6.932 -0.0601  0.0637 -2.2209
30749SOL     OW92824   1.048   1.472   5.910  0.2923  0.3249 -0.2707
30749SOL    HW192825   1.013   1.526   5.839  0.5044  0.1002 -0.5474
30749SOL    HW292826   1.143   1.483   5.904  0.5139 -1.7479 -1.6972
30750SOL     OW92827   1.379   6.969   5.736 -0.7509 -0.1369  0.7365
30750SOL    HW192828   1.409   6.998   5.821 -0.6464 -1.0969  1.0405
30750SOL    HW292829   1.385   6.873   5.739 -1.6704 -0.2404  0.0058
30751SOL     OW92830   8.070   5.147   2.080 -0.3663  0.2534  0.2628
30751SOL    HW192831   8.092   5.084   2.012  1.7306  0.6257  0.5153
30751SOL    HW292832   8.151   5.155   2.131 -2.3395 -1.4998  4.0727
30752SOL     OW92833   9.127   4.880   5.698  0.6711 -0.3506 -0.0519
30752SOL    HW192834   9.196   4.937   5.734  0.6808 -0.0213 -0.5786
30752SOL    HW292835   9.084   4.934   5.631  0.4293 -0.8318 -0.2887
30753SOL     OW92836   2.277   1.187   5.671 -0.2609 -0.4745  0.6202
30753SOL    HW192837   2.217   1.230   5.731 -0.5006 -1.5693  1.1913
30753SOL    HW292838   2.363   1.222   5.694 -0.5047  0.0497  0.7487
30754SOL     OW92839   7.089   4.769   6.138 -0.0491 -0.3995 -0.3646
30754SOL    HW192840   7.182   4.779   6.118  0.5542 -1.9064  1.4591
30754SOL    HW292841   7.057   4.859   6.144  1.4280  0.1667 -0.4915
30755SOL     OW92842   0.702   4.926   1.967 -0.0835  0.1821  0.1313
30755SOL    HW192843   0.625   4.904   2.019 -1.1142 -0.3975 -1.5672
30755SOL    HW292844   0.695   5.020   1.953 -2.4538 -0.2774 -2.8349
30756SOL     OW92845   9.172   7.287   6.131 -0.3365  0.2870 -0.6307
30756SOL    HW192846   9.083   7.260   6.109 -0.8368  0.6211  0.8080
30756SOL    HW292847   9.167   7.309   6.225  1.2357  0.4088 -0.5519
30757SOL     OW92848   0.782   7.056   7.038  0.3205  0.5163 -0.1634
30757SOL    HW192849   0.702   7.006   7.054  1.2719 -0.6553  1.0848
30757SOL    HW292850   0.850   7.012   7.089  1.7116  1.6905 -0.9029
30758SOL     OW92851   4.494   9.191   2.551 -0.3174  0.3734 -0.4452
30758SOL    HW192852   4.431   9.248   2.593  0.3476  0.5486  0.3560
30758SOL    HW292853   4.579   9.217   2.588 -0.0021 -1.1606 -0.0008
30759SOL     OW92854   2.444   0.810   3.215  0.1753  0.0717  0.2479
30759SOL    HW192855   2.486   0.753   3.279  1.2418 -0.8703 -1.2267
30759SOL    HW292856   2.352   0.812   3.242  0.4719 -0.8009  1.4279
30760SOL     OW92857   7.568   8.713   0.633  0.3390  0.4668 -0.5031
30760SOL    HW192858   7.659   8.733   0.612  0.5774  1.5322  1.4025
30760SOL    HW292859   7.572   8.649   0.703 -0.3223  1.4339  0.4637
30761SOL     OW92860   8.077   3.352   1.914  0.4474 -0.0504 -0.0291
30761SOL    HW192861   8.055   3.364   2.006 -1.2578  0.7327 -0.4985
30761SOL    HW292862   7.995   3.326   1.873  1.0178  0.2712 -1.4388
30762SOL     OW92863   7.242   7.607   9.631 -0.3581  0.2660  0.0509
30762SOL    HW192864   7.310   7.592   9.565  0.1378  1.6799  0.2178
30762SOL    HW292865   7.205   7.520   9.647 -0.7121 -0.0910 -2.3193
30763SOL     OW92866   4.066   8.317   8.316 -0.0977  0.1251  0.7446
30763SOL    HW192867   4.122   8.283   8.386 -0.9886 -2.8530  0.1766
30763SOL    HW292868   3.978   8.287   8.339 -0.2944 -1.8808 -2.0476
30764SOL     OW92869   7.456   4.024   3.903  1.0595 -0.3123 -0.6682
30764SOL    HW192870   7.454   3.968   3.981  0.9226  1.0193  0.3150
30764SOL    HW292871   7.515   3.979   3.842  0.6850 -1.6834 -0.0541
30765SOL     OW92872   5.931   7.692   7.734 -0.1349  0.0752 -0.1796
30765SOL    HW192873   5.881   7.623   7.778 -0.7315  0.1198 -0.7686
30765SOL    HW292874   5.875   7.769   7.738  0.8541  0.7631  1.1582
30766SOL     OW92875   3.155   4.917   7.783  0.4041  0.0927 -0.5566
30766SOL    HW192876   3.227   4.909   7.721  0.7684  0.8788 -0.2412
30766SOL    HW292877   3.147   5.011   7.799 -0.4819 -0.0106 -0.3426
30767SOL     OW92878   4.835   8.698   9.903  0.1759 -0.3192  0.0650
30767SOL    HW192879   4.830   8.784   9.863  0.3353 -0.8636 -1.1888
30767SOL    HW292880   4.758   8.651   9.872  0.5919 -0.9402 -0.0680
30768SOL     OW92881   4.536   6.272   6.987  1.1100  0.0811  0.2789
30768SOL    HW192882   4.448   6.261   7.023  2.6732 -3.6630  3.7966
30768SOL    HW292883   4.543   6.205   6.919  2.0492 -2.2115  2.4208
30769SOL     OW92884   3.653   7.912   2.763 -0.5112 -0.7710 -0.0454
30769SOL    HW192885   3.614   7.985   2.811  0.4746  0.1057 -0.5265
30769SOL    HW292886   3.706   7.866   2.828  0.9814  0.5282 -0.3011
30770SOL     OW92887   9.825   7.598   8.830 -0.6899  0.0755  0.1779
30770SOL    HW192888   9.845   7.560   8.916 -1.1167 -0.6327 -0.0244
30770SOL    HW292889   9.743   7.644   8.843  0.1733  1.5636  0.5971
30771SOL     OW92890   3.864   6.403   1.601 -0.9594  0.4080 -0.0631
30771SOL    HW192891   3.773   6.422   1.624 -0.9486  0.2759  0.0893
30771SOL    HW292892   3.865   6.309   1.585 -0.8875  0.4387 -0.2412
30772SOL     OW92893   3.747   0.205   6.421  0.2270  0.2401 -0.5502
30772SOL    HW192894   3.704   0.131   6.378 -0.5621  0.4996 -0.2217
30772SOL    HW292895   3.677   0.248   6.470  1.0072  0.2241  0.6110
30773SOL     OW92896   7.060   8.279   0.291 -0.3289  0.0059 -0.0635
30773SOL    HW192897   7.113   8.336   0.235  2.5420 -1.6657  0.7270
30773SOL    HW292898   6.970   8.296   0.264 -0.0144  6.1123  1.2525
30774SOL     OW92899   7.051   5.997   5.456  0.5285  0.1534  0.2955
30774SOL    HW192900   7.020   5.924   5.402  1.4366  0.5819 -0.8565
30774SOL    HW292901   7.146   5.990   5.452  0.6629  1.8631 -0.5371
30775SOL     OW92902   4.235   9.317   5.494 -0.1121  0.2357 -0.4458
30775SOL    HW192903   4.213   9.228   5.466 -1.6755  0.5234 -0.2466
30775SOL    HW292904   4.160   9.344   5.547  0.0008  1.9231 -1.0791
30776SOL     OW92905   2.343   0.226   3.218 -0.1857 -0.1426 -0.0492
30776SOL    HW192906   2.359   0.320   3.227 -0.0237  0.0186 -1.7165
30776SOL    HW292907   2.408   0.197   3.154 -0.4066 -1.3499  0.2528
30777SOL     OW92908   4.176   5.199   2.022 -0.1566  0.3985  0.0307
30777SOL    HW192909   4.168   5.237   2.110 -0.8601  1.7156 -0.5711
30777SOL    HW292910   4.243   5.253   1.980  0.5867 -0.5857 -0.0747
30778SOL     OW92911   3.749   0.326   4.846 -0.1867 -0.3119  0.4937
30778SOL    HW192912   3.661   0.290   4.856 -0.3722 -0.3125 -0.9205
30778SOL    HW292913   3.743   0.415   4.881 -0.8419 -0.2063  0.1245
30779SOL     OW92914   9.211   9.118   7.845 -0.0287 -0.0594 -0.3290
30779SOL    HW192915   9.225   9.173   7.767  0.4622 -0.5333 -0.5784
30779SOL    HW292916   9.250   9.169   7.917 -0.6257  0.4507 -0.3622
30780SOL     OW92917   5.627   1.865   3.976 -0.3589  0.1701  0.4596
30780SOL    HW192918   5.704   1.854   4.032  1.1459  1.4324 -1.2336
30780SOL    HW292919   5.570   1.925   4.024 -0.4602 -0.9775  1.8510
30781SOL     OW92920   7.724   5.104   5.571  0.0622  0.0581  0.8937
30781SOL    HW192921   7.638   5.097   5.613  0.2944  0.3447  1.4263
30781SOL    HW292922   7.766   5.019   5.586 -0.4053 -0.3510 -0.0117
30782SOL     OW92923   9.285   8.308   9.254 -0.2517  0.3473  0.2062
30782SOL    HW192924   9.199   8.343   9.233 -0.0008  0.7476 -0.1821
30782SOL    HW292925   9.344   8.383   9.242  0.2910 -0.1908 -0.5837
30783SOL     OW92926   4.286   3.293   8.667 -0.3076  0.4008 -0.3607
30783SOL    HW192927   4.365   3.265   8.621 -0.4712  0.8031 -0.8937
30783SOL    HW292928   4.314   3.305   8.758 -0.1505 -1.1303 -0.1733
30784SOL     OW92929   7.866   2.448   0.955  0.3565  0.5251  0.3188
30784SOL    HW192930   7.895   2.539   0.965  1.1176  0.4470 -1.0458
30784SOL    HW292931   7.946   2.399   0.937 -0.2691 -0.1138 -0.8314
30785SOL     OW92932   3.874   5.609   3.588  0.5862 -0.0634  0.3768
30785SOL    HW192933   3.880   5.529   3.639  2.0846  0.5443  1.2032
30785SOL    HW292934   3.945   5.664   3.620  1.4547  0.4637 -2.1703
30786SOL     OW92935   0.454   8.908   3.819 -0.3165  0.0357 -0.0334
30786SOL    HW192936   0.506   8.977   3.778  0.1935 -0.4435 -0.1955
30786SOL    HW292937   0.364   8.942   3.818  0.0484  1.0620  0.6624
30787SOL     OW92938   2.100   7.957   1.399 -0.1792  0.2232 -0.8777
30787SOL    HW192939   2.123   8.039   1.443 -1.0985  0.6556 -1.1710
30787SOL    HW292940   2.093   7.893   1.469 -1.3121  0.8328 -0.3998
30788SOL     OW92941   5.776   5.190   2.986 -0.1714  0.4147 -0.1274
30788SOL    HW192942   5.807   5.254   3.050 -1.6662  0.7912  0.2723
30788SOL    HW292943   5.814   5.218   2.903  2.2886 -0.4308  0.6476
30789SOL     OW92944   2.991   6.993   3.848 -0.4002 -0.4132  0.4738
30789SOL    HW192945   3.064   7.014   3.906 -0.0103  4.2646 -1.2617
30789SOL    HW292946   3.030   6.986   3.761 -1.6275 -1.8017 -0.0113
30790SOL     OW92947   5.846   4.209   8.250 -0.5015  0.0173 -0.5201
30790SOL    HW192948   5.837   4.255   8.167  0.0169 -0.7622 -1.0155
30790SOL    HW292949   5.940   4.190   8.257 -0.4272  0.6797  0.5783
30791SOL     OW92950   1.925   4.341   4.413  0.1712  0.3341  0.4025
30791SOL    HW192951   2.010   4.365   4.376  1.3962 -3.0313  0.7398
30791SOL    HW292952   1.908   4.409   4.479  3.6521  0.0296  1.8461
30792SOL     OW92953   6.738   2.196   6.038  0.3109 -0.1055  0.4485
30792SOL    HW192954   6.778   2.116   6.003 -1.9049 -1.2923  0.4911
30792SOL    HW292955   6.715   2.173   6.128 -2.1429 -0.1390 -0.1400
30793SOL     OW92956   1.822   7.952   3.082  0.4225  0.2779  0.2366
30793SOL    HW192957   1.892   7.907   3.130  0.0802 -1.6096 -0.9068
30793SOL    HW292958   1.741   7.916   3.120  0.1183  0.6416 -0.0717
30794SOL     OW92959   1.705   8.137   6.254  0.4094  0.5130 -0.3248
30794SOL    HW192960   1.756   8.212   6.221 -1.6758  1.3472 -1.8653
30794SOL    HW292961   1.656   8.106   6.177  0.2322 -1.6466  0.5849
30795SOL     OW92962   9.938   8.303   5.045 -0.0151 -0.3119 -0.5369
30795SOL    HW192963   9.903   8.387   5.012 -0.7262 -0.4654 -0.2085
30795SOL    HW292964   9.987   8.327   5.123 -1.3612 -0.3325  0.3411
30796SOL     OW92965   7.954   1.427   7.148 -0.1191  0.7153  0.7069
30796SOL    HW192966   7.909   1.509   7.170  0.0111  1.0361 -0.1598
30796SOL    HW292967   7.894   1.382   7.089  0.5343  1.0000 -0.2042
30797SOL     OW92968   5.777   0.548   9.144 -0.5928  0.0777 -0.1398
30797SOL    HW192969   5.727   0.468   9.160 -1.8390  0.9013  0.1492
30797SOL    HW292970   5.788   0.587   9.230  0.2769  0.0814 -0.2440
30798SOL     OW92971   3.271   1.238   2.089 -0.2440 -0.0610  0.5762
30798SOL    HW192972   3.289   1.171   2.154 -1.3400 -0.2596  0.6881
30798SOL    HW292973   3.316   1.316   2.122 -0.1764 -0.3542  1.1882
30799SOL     OW92974   3.226   5.496   1.880 -0.3586 -0.1679 -0.1942
30799SOL    HW192975   3.314   5.506   1.844 -0.6996  1.7259 -0.6097
30799SOL    HW292976   3.239   5.487   1.975  0.2408  1.5871 -0.0830
30800SOL     OW92977   6.489   5.194   0.961  0.2062  0.1681  0.4715
30800SOL    HW192978   6.445   5.246   0.894  0.3574 -1.6363 -1.1030
30800SOL    HW292979   6.582   5.213   0.948  0.2587 -0.4310 -0.0793
30801SOL     OW92980   5.879   2.929   5.825 -0.0606  0.2137 -0.3233
30801SOL    HW192981   5.922   3.013   5.807 -1.3512  1.1062  0.5625
30801SOL    HW292982   5.949   2.873   5.859  1.4503 -0.0486 -3.5220
30802SOL     OW92983   3.318   5.520   4.866 -0.4517  0.2611 -0.0350
30802SOL    HW192984   3.305   5.437   4.913 -0.8736  0.0824 -0.4457
30802SOL    HW292985   3.406   5.547   4.888  0.7922 -1.7307 -2.0557
30803SOL     OW92986   6.832   5.962   8.323 -0.2493 -0.0427  0.0205
30803SOL    HW192987   6.811   5.982   8.232  0.8938 -0.0367 -0.2519
30803SOL    HW292988   6.821   5.867   8.330  0.4526 -0.1563 -0.3456
30804SOL     OW92989   5.813   8.233   0.033  0.0052  0.4901  0.7404
30804SOL    HW192990   5.731   8.245  -0.016  0.2622  1.3466  0.4968
30804SOL    HW292991   5.828   8.139   0.033  1.1612  0.5276 -2.8124
30805SOL     OW92992   8.626   3.341   2.104  0.1863 -0.2434  1.0629
30805SOL    HW192993   8.677   3.267   2.137 -1.4912 -1.7109  0.4762
30805SOL    HW292994   8.682   3.379   2.036  1.1595 -0.8574  1.4973
30806SOL     OW92995   2.443   9.663   8.061  0.1301 -0.1593  0.2463
30806SOL    HW192996   2.473   9.588   8.009  1.8799  0.0461  0.8762
30806SOL    HW292997   2.352   9.675   8.035  0.1997 -1.6520 -0.8690
30807SOL     OW92998   5.120   0.313   3.591 -0.1827 -0.6392  0.6647
30807SOL    HW192999   5.027   0.314   3.566  0.3222 -0.8608 -1.4777
30807SOL    HW293000   5.145   0.221   3.583  0.5549 -0.3730 -0.2869
30808SOL     OW93001   6.382   8.470   8.284  0.0646 -0.2465 -0.4227
30808SOL    HW193002   6.327   8.460   8.206  0.0228  0.7059 -0.5195
30808SOL    HW293003   6.325   8.513   8.348  0.2495 -0.5857 -0.0262
30809SOL     OW93004   4.937   1.492   5.389 -0.2939 -0.1791  0.0240
30809SOL    HW193005   5.016   1.500   5.442 -0.1321  1.0250 -0.3720
30809SOL    HW293006   4.947   1.557   5.320 -0.6420 -1.5184 -1.3371
30810SOL     OW93007   7.900   5.299   5.517  0.1790 -0.4657  0.7177
30810SOL    HW193008   7.840   5.225   5.528 -0.0877 -0.3915 -0.2124
30810SOL    HW293009   7.896   5.345   5.601 -2.7920  0.8121 -0.0035
30811SOL     OW93010   6.859   0.462   3.690  0.4707 -0.4459  0.2256
30811SOL    HW193011   6.845   0.416   3.608 -1.0901  1.1688 -0.4874
30811SOL    HW293012   6.922   0.530   3.669  0.2690 -0.1957  0.4230
30812SOL     OW93013   0.630   6.617   7.290 -0.3536 -0.3225 -0.3440
30812SOL    HW193014   0.546   6.571   7.298 -0.1718 -0.5767  0.1588
30812SOL    HW293015   0.614   6.704   7.326 -0.4261 -0.3421 -0.3295
30813SOL     OW93016   2.495   5.592   8.415 -0.0654  0.3110 -0.5464
30813SOL    HW193017   2.422   5.647   8.442 -0.5865  0.5232 -2.3015
30813SOL    HW293018   2.550   5.585   8.494 -1.7427  0.4732  0.6837
30814SOL     OW93019   3.636   8.091   9.640 -0.5728  0.0058 -1.0437
30814SOL    HW193020   3.729   8.096   9.622 -0.2986  0.6866  0.4201
30814SOL    HW293021   3.629   8.030   9.713 -1.2389  0.2612 -0.8879
30815SOL     OW93022  -0.003   0.055   7.052  0.1422  0.2134  0.0979
30815SOL    HW193023   0.068   0.064   6.988 -0.3061  3.2050 -0.1572
30815SOL    HW293024   0.033   0.093   7.132 -0.6503  0.3191  0.4096
30816SOL     OW93025   3.909   5.356   8.995 -0.3991  0.0870  0.7964
30816SOL    HW193026   3.829   5.388   8.954 -0.7156 -1.1850  0.3585
30816SOL    HW293027   3.910   5.262   8.974 -0.3191 -0.5312  3.2978
30817SOL     OW93028   2.696   6.251   6.549  0.1160  0.6545  0.6451
30817SOL    HW193029   2.649   6.286   6.473  1.3288  1.5885  0.2975
30817SOL    HW293030   2.709   6.327   6.606  0.4478  0.2355  1.1361
30818SOL     OW93031   4.043   2.168   8.082 -0.4004  1.1935  0.4315
30818SOL    HW193032   4.076   2.162   8.172  0.2502  2.0390  0.2588
30818SOL    HW293033   4.027   2.261   8.068  0.4330  1.1894 -0.6524
30819SOL     OW93034   3.100   6.726   5.375 -0.4256 -0.2779  0.0144
30819SOL    HW193035   3.021   6.733   5.429 -0.4721 -2.6870  0.3841
30819SOL    HW293036   3.076   6.662   5.308  1.2398 -1.1196  0.1898
30820SOL     OW93037   2.007   9.586   8.911 -0.4814  0.6534  0.5475
30820SOL    HW193038   1.962   9.503   8.922 -0.5851  0.6262 -0.0182
30820SOL    HW293039   2.076   9.586   8.977  1.5523 -1.2734 -1.4311
30821SOL     OW93040   2.064   3.572   1.618  0.2567 -0.2449  0.2737
30821SOL    HW193041   2.067   3.487   1.661  0.5700  0.8865  2.6439
30821SOL    HW293042   2.155   3.597   1.607  0.1647  0.3958  0.9134
30822SOL     OW93043   4.532   2.169   9.263 -0.0608 -0.2663 -0.0911
30822SOL    HW193044   4.531   2.259   9.295  2.0535 -0.6350  1.2663
30822SOL    HW293045   4.445   2.134   9.283  0.8105 -0.2619  4.9523
30823SOL     OW93046   1.293   3.750   0.884 -0.0900  0.0261  0.2222
30823SOL    HW193047   1.311   3.796   0.965 -0.3874 -0.8046  0.7746
30823SOL    HW293048   1.241   3.812   0.832 -1.4297 -0.0729  1.3928
30824SOL     OW93049   0.978   1.543   4.060  0.2943  0.0850  0.5921
30824SOL    HW193050   0.916   1.583   4.122 -0.2679  0.0997  0.0314
30824SOL    HW293051   0.972   1.598   3.982  1.1481  0.1849  0.5830
30825SOL     OW93052   4.417   9.221   3.887  0.1201 -0.6533 -0.1530
30825SOL    HW193053   4.418   9.263   3.801 -0.7843 -1.0343 -0.3574
30825SOL    HW293054   4.451   9.288   3.946  1.2741 -0.5707 -0.8801
30826SOL     OW93055   7.860   3.841   1.290  0.5376  0.1369  0.2289
30826SOL    HW193056   7.955   3.834   1.300  0.5136 -1.8157 -0.5779
30826SOL    HW293057   7.828   3.751   1.289 -1.3728  0.7482  0.6876
30827SOL     OW93058   2.346   1.703   8.366  0.0938 -0.1503 -0.6342
30827SOL    HW193059   2.352   1.709   8.461  0.8007  1.7714 -0.7527
30827SOL    HW293060   2.327   1.793   8.338 -3.1954 -1.1608 -2.1466
30828SOL     OW93061   5.322   6.648   8.285 -0.2370  0.4883 -0.0697
30828SOL    HW193062   5.251   6.693   8.238 -0.2007 -0.1243 -0.7187
30828SOL    HW293063   5.398   6.705   8.272 -0.5788  1.1102  0.5655
30829SOL     OW93064   9.487   8.904   4.260 -0.3516 -0.3516  0.5810
30829SOL    HW193065   9.514   8.818   4.293 -0.4751 -0.3907  0.5794
30829SOL    HW293066   9.566   8.940   4.219 -0.4984 -0.7757 -0.0737
30830SOL     OW93067   8.413   4.117   4.058 -0.3879  0.5097  0.0550
30830SOL    HW193068   8.463   4.198   4.042 -1.6441  0.9208 -2.2455
30830SOL    HW293069   8.358   4.138   4.133  0.1466  1.3790  0.2291
30831SOL     OW93070   2.121   9.887   3.150  0.3519  0.2510 -0.1530
30831SOL    HW193071   2.122   9.923   3.239  1.0147  1.3198 -0.5695
30831SOL    HW293072   2.107   9.963   3.094 -0.1326 -0.4269 -0.9643
30832SOL     OW93073   6.560   7.268   1.908  0.0815 -0.4226  0.1474
30832SOL    HW193074   6.517   7.259   1.994 -3.2726  1.4798 -1.1342
30832SOL    HW293075   6.499   7.228   1.846  1.2478  0.4038 -1.6173
30833SOL     OW93076   2.992   5.822   6.918 -0.3069  0.2753  0.1360
30833SOL    HW193077   2.936   5.899   6.908 -0.3727 -0.0625 -3.9269
30833SOL    HW293078   3.071   5.855   6.962 -0.6688  2.4875 -0.7510
30834SOL     OW93079   2.780   8.176   9.502 -0.1703 -0.3500 -0.2737
30834SOL    HW193080   2.723   8.253   9.497  2.5461  1.8474  0.2936
30834SOL    HW293081   2.779   8.152   9.595 -0.5781 -0.6876 -0.3598
30835SOL     OW93082   1.032   3.609   4.462  0.3184 -0.3780  0.6180
30835SOL    HW193083   1.029   3.586   4.555 -1.0194 -1.2367  0.3834
30835SOL    HW293084   1.074   3.695   4.461  0.7241 -0.5259  1.9763
30836SOL     OW93085   6.105   3.899   6.628 -0.2071 -0.0607  0.5146
30836SOL    HW193086   6.050   3.964   6.673 -2.1527 -1.6562  0.5718
30836SOL    HW293087   6.125   3.940   6.544 -0.8511  0.8863  0.7995
30837SOL     OW93088   8.078   1.086   6.810  0.0193 -0.5162  0.3704
30837SOL    HW193089   7.996   1.038   6.808 -0.4172  0.2209  0.0346
30837SOL    HW293090   8.145   1.019   6.823 -0.6845 -1.0480  1.3583
30838SOL     OW93091   7.324   6.523   8.522 -0.3418  0.1375  0.4769
30838SOL    HW193092   7.386   6.484   8.583 -0.8743  0.0142  0.9442
30838SOL    HW293093   7.275   6.449   8.487 -0.2376  0.2353  0.1132
30839SOL     OW93094   6.027   5.203   9.356 -0.3479 -0.0258  0.1561
30839SOL    HW193095   6.026   5.298   9.341 -3.0737  0.0436  0.2984
30839SOL    HW293096   5.943   5.173   9.320  0.9386 -2.5727 -0.8908
30840SOL     OW93097   1.198   2.315   2.960  0.3569  0.7697 -0.5826
30840SOL    HW193098   1.278   2.368   2.953 -0.1844  1.6833 -0.0608
30840SOL    HW293099   1.195   2.264   2.879  2.4588 -0.7170  0.1676
30841SOL     OW93100   0.283   5.716   0.821 -0.0043 -0.4483 -0.4652
30841SOL    HW193101   0.266   5.623   0.835 -3.2105  0.0452 -0.3742
30841SOL    HW293102   0.353   5.718   0.756  0.4119 -2.9052 -0.1747
30842SOL     OW93103   1.025   6.386   7.964 -0.2162 -0.0364 -0.5854
30842SOL    HW193104   1.018   6.390   7.869 -0.1345  1.6233 -0.5563
30842SOL    HW293105   1.119   6.390   7.982 -0.2816  0.8652 -0.4139
30843SOL     OW93106   9.970   3.446   3.128 -0.1011 -0.2621  0.4998
30843SOL    HW193107   9.907   3.375   3.116 -1.4415  0.9715 -0.0384
30843SOL    HW293108   9.945   3.512   3.063  2.0760  0.0712 -0.0949
30844SOL     OW93109   8.846   0.538   3.828  0.5426  0.3102  0.3661
30844SOL    HW193110   8.854   0.456   3.780  1.3321  0.3275  0.4603
30844SOL    HW293111   8.755   0.564   3.816 -0.3412 -1.6945  2.1442
30845SOL     OW93112   7.922   2.484   3.476  0.6202  0.1697 -0.0699
30845SOL    HW193113   7.923   2.551   3.545  0.4681 -1.8672  2.0524
30845SOL    HW293114   8.006   2.439   3.486  0.0327 -1.0226 -0.2806
30846SOL     OW93115   3.657   1.690   1.920  0.0038  0.6099 -0.4076
30846SOL    HW193116   3.587   1.744   1.883  0.8443  1.2483 -1.1143
30846SOL    HW293117   3.635   1.601   1.894 -1.7453  0.4635  1.2991
30847SOL     OW93118   7.743   5.995   2.706 -0.5964 -0.4131  0.9233
30847SOL    HW193119   7.799   6.066   2.675  1.0219 -1.9960  0.0554
30847SOL    HW293120   7.682   5.979   2.634 -0.1650 -0.6933  0.6135
30848SOL     OW93121   9.468   9.908   0.660  0.0289 -0.6368 -0.0513
30848SOL    HW193122   9.409   9.865   0.598 -2.4167  2.6241 -0.2317
30848SOL    HW293123   9.451   9.864   0.743 -1.1159 -1.1161 -0.5194
30849SOL     OW93124   5.692   0.716   6.666  0.2308 -0.2327  0.1272
30849SOL    HW193125   5.651   0.732   6.751  0.7344 -1.4909  0.6413
30849SOL    HW293126   5.683   0.798   6.619 -0.1000  0.4844  1.3875
30850SOL     OW93127   7.097   4.283   8.864 -0.0396  0.2148 -0.0418
30850SOL    HW193128   7.075   4.272   8.772 -2.1301  1.6501  0.1969
30850SOL    HW293129   7.128   4.373   8.871  0.5392 -0.0209  0.5978
30851SOL     OW93130   7.852   5.237   9.830 -0.1315 -0.2314  0.3619
30851SOL    HW193131   7.786   5.169   9.842 -1.9432  1.7761  2.9550
30851SOL    HW293132   7.804   5.319   9.844  2.6277  1.4050  0.8346
30852SOL     OW93133   8.662   6.939   2.799 -0.8530  0.1945 -0.1074
30852SOL    HW193134   8.595   6.974   2.742  0.4756 -1.7494 -3.0877
30852SOL    HW293135   8.637   6.848   2.814  0.3794 -0.1818 -0.1663
30853SOL     OW93136   8.403   4.132   1.918 -0.6247  0.2653 -0.3700
30853SOL    HW193137   8.397   4.159   2.009  0.7738 -2.2411  0.5697
30853SOL    HW293138   8.326   4.170   1.876 -2.7779 -0.6549  2.4413
30854SOL     OW93139   4.792   5.676   5.228  0.2050  0.2718 -0.8186
30854SOL    HW193140   4.697   5.673   5.229  0.1959 -0.5859  1.6570
30854SOL    HW293141   4.815   5.672   5.135 -2.1470  0.3497 -1.4572
30855SOL     OW93142   6.735   6.837   3.419 -0.3793  0.2545 -0.1422
30855SOL    HW193143   6.803   6.845   3.486 -1.3105 -0.4925  0.9402
30855SOL    HW293144   6.722   6.742   3.409 -0.7903  0.3766 -0.8279
30856SOL     OW93145   9.264   1.903   8.719 -0.2163  0.1159 -0.2868
30856SOL    HW193146   9.337   1.938   8.770 -0.8689 -1.7668  2.1399
30856SOL    HW293147   9.200   1.974   8.717  0.4878  0.7771  0.1277
30857SOL     OW93148   2.467   5.264   7.477  0.3590 -0.0055  0.4908
30857SOL    HW193149   2.453   5.212   7.398  0.4319 -0.0294  0.4935
30857SOL    HW293150   2.534   5.328   7.452 -1.1433  1.3953 -0.1077
30858SOL     OW93151   1.443   7.276   9.811  0.2455  0.2132  0.0715
30858SOL    HW193152   1.374   7.322   9.763  0.5310 -0.0497 -0.6013
30858SOL    HW293153   1.516   7.338   9.814 -0.0382  0.5305  0.8733
30859SOL     OW93154   5.986   9.112   5.956  0.4456  0.4887  0.3506
30859SOL    HW193155   6.036   9.081   5.881  0.6479 -0.9387  1.0554
30859SOL    HW293156   6.036   9.084   6.032 -1.5060 -1.2102  1.0954
30860SOL     OW93157   3.077   5.866   4.651  0.3766 -0.1094 -0.1869
30860SOL    HW193158   3.146   5.849   4.715  1.1486  0.9888 -0.6999
30860SOL    HW293159   3.035   5.781   4.639  1.3015 -0.6903  0.5229
30861SOL     OW93160   7.268   9.654   7.965  0.7428 -0.6577 -0.6875
30861SOL    HW193161   7.213   9.731   7.978 -0.1668 -1.2475 -0.8977
30861SOL    HW293162   7.348   9.687   7.925  0.7674  0.2922  0.0974
30862SOL     OW93163   9.852   9.044   3.915 -0.4997  0.0208 -0.1885
30862SOL    HW193164   9.919   9.113   3.915 -0.8561  0.3751 -0.6665
30862SOL    HW293165   9.886   8.980   3.852 -0.1788 -0.2299  0.2387
30863SOL     OW93166   9.602   9.065   6.092 -0.0652 -0.2495 -0.5072
30863SOL    HW193167   9.696   9.054   6.109 -0.1928 -2.5493 -0.9523
30863SOL    HW293168   9.598   9.113   6.009  0.6880  0.3228 -0.2298
30864SOL     OW93169   2.446   0.992   6.481 -0.0657 -0.4774  0.0173
30864SOL    HW193170   2.457   0.990   6.385 -1.7512 -0.6028 -0.1910
30864SOL    HW293171   2.475   1.080   6.506 -2.0236  0.5030 -0.9613
30865SOL     OW93172   6.263   4.533   4.588 -0.1673 -0.1631  0.3115
30865SOL    HW193173   6.259   4.601   4.521  3.1038  2.0658  2.1310
30865SOL    HW293174   6.232   4.576   4.668  0.6667 -1.2200  1.2362
30866SOL     OW93175   5.484   0.864   2.358  0.1442  0.2796  0.6717
30866SOL    HW193176   5.411   0.830   2.409  0.7331 -1.8771  0.2023
30866SOL    HW293177   5.528   0.786   2.325  2.5295  1.5036  0.7468
30867SOL     OW93178   5.820   7.291   0.318  0.0008 -0.0022 -0.1193
30867SOL    HW193179   5.844   7.341   0.240  0.5478 -0.5733 -0.3348
30867SOL    HW293180   5.818   7.200   0.287  2.5625 -0.5572  1.0051
30868SOL     OW93181   1.987   7.611   8.382 -0.3113 -0.0714  0.2724
30868SOL    HW193182   2.063   7.663   8.408 -0.0430 -0.2368 -0.1717
30868SOL    HW293183   1.940   7.667   8.319 -0.1228 -0.2893 -0.0639
30869SOL     OW93184   7.718   7.961   5.492  0.3182  0.2923  0.3612
30869SOL    HW193185   7.767   7.894   5.540  0.0045 -0.4843 -0.3925
30869SOL    HW293186   7.735   7.943   5.400 -1.8042 -0.3652  0.0331
30870SOL     OW93187   8.164   6.135   8.998  0.3779 -0.5817  0.1259
30870SOL    HW193188   8.202   6.114   9.083  1.2289 -2.6606 -0.7015
30870SOL    HW293189   8.172   6.230   8.991  0.9227 -0.4516  2.0635
30871SOL     OW93190   2.302   3.945   3.155  0.0103 -0.4595 -0.2500
30871SOL    HW193191   2.374   4.002   3.183  0.4622 -1.7331  1.3543
30871SOL    HW293192   2.346   3.875   3.106 -0.4799  0.2031 -1.7045
30872SOL     OW93193   0.202   2.304   4.439  0.1651 -0.9140 -0.5482
30872SOL    HW193194   0.158   2.383   4.406  1.7135 -0.0813 -0.6920
30872SOL    HW293195   0.141   2.233   4.419 -1.1740  0.2112 -0.6038
30873SOL     OW93196   5.015   9.235   0.131  0.6051  0.0693  0.5085
30873SOL    HW193197   5.020   9.171   0.202 -0.5660 -0.5405  0.0718
30873SOL    HW293198   5.059   9.192   0.057  1.0382  0.3374  0.6097
30874SOL     OW93199   1.849   8.287   5.256  0.0496 -0.2039  0.0636
30874SOL    HW193200   1.791   8.353   5.217  0.1537  0.2847  0.7134
30874SOL    HW293201   1.928   8.336   5.280 -0.3139 -0.3081  1.5952
30875SOL     OW93202   5.960   9.782   9.892  0.3453 -0.1960 -0.0264
30875SOL    HW193203   6.036   9.823   9.934  0.4095  1.8827 -2.0163
30875SOL    HW293204   5.997   9.728   9.822  0.0554 -0.6112  0.1343
30876SOL     OW93205   4.528   0.329   3.785  0.3982  0.0008 -0.5581
30876SOL    HW193206   4.565   0.244   3.808  0.8568  0.7837  1.8867
30876SOL    HW293207   4.433   0.315   3.784  0.3140 -0.0908  2.2233
30877SOL     OW93208   0.030   7.736   4.146  0.2554 -0.5195  0.1166
30877SOL    HW193209  -0.037   7.799   4.174 -0.1755 -1.1335  0.5060
30877SOL    HW293210   0.109   7.788   4.134 -0.4144  0.3081 -0.8346
30878SOL     OW93211   3.687   6.608   5.245  0.2610 -0.2381 -0.3855
30878SOL    HW193212   3.656   6.575   5.161 -0.3336 -0.6921  0.0081
30878SOL    HW293213   3.651   6.548   5.310  2.2528 -0.9957  0.0808
30879SOL     OW93214   8.081   6.588   8.422  1.0818  0.2758  0.6639
30879SOL    HW193215   8.057   6.505   8.382 -0.2341  0.0806  1.7680
30879SOL    HW293216   8.126   6.636   8.353 -1.5976  0.2152 -1.2788
30880SOL     OW93217   7.630   9.437   6.379  0.2301 -0.4134  0.2155
30880SOL    HW193218   7.655   9.501   6.446 -2.5284  0.8498  0.1923
30880SOL    HW293219   7.548   9.400   6.411 -0.5807 -0.5913 -1.8939
30881SOL     OW93220   0.570   0.550   8.529 -0.5221  0.3075  0.2429
30881SOL    HW193221   0.634   0.619   8.545  0.7668 -0.7648 -0.0911
30881SOL    HW293222   0.598   0.510   8.446 -0.6374 -1.2335  0.9043
30882SOL     OW93223   6.056   0.635   2.043 -0.1321 -0.3770 -0.0017
30882SOL    HW193224   6.132   0.692   2.030  0.3338 -1.3921 -2.3800
30882SOL    HW293225   6.091   0.559   2.090  0.6383 -1.2830 -1.9204
30883SOL     OW93226   4.386   4.170   9.718 -0.1907  0.0916  0.3022
30883SOL    HW193227   4.310   4.216   9.684 -1.0107 -1.3622  0.1033
30883SOL    HW293228   4.421   4.123   9.643  1.1053  0.9750  0.3222
30884SOL     OW93229   0.843   9.606   2.363 -0.0080 -0.1254  0.1630
30884SOL    HW193230   0.851   9.701   2.355 -0.7011 -0.1874 -2.1953
30884SOL    HW293231   0.857   9.588   2.455 -0.5951  2.3421  0.8087
30885SOL     OW93232   4.933   6.511   5.880  0.8915  0.2867 -0.2052
30885SOL    HW193233   4.880   6.530   5.957 -1.0696  2.3988 -1.9496
30885SOL    HW293234   4.972   6.595   5.857  1.0880 -0.2166 -1.7696
30886SOL     OW93235   8.173   5.280   7.948  0.8085 -0.1297  0.0118
30886SOL    HW193236   8.175   5.374   7.929 -0.6975 -0.0543  0.0840
30886SOL    HW293237   8.261   5.249   7.927  0.6467  0.8497 -2.3875
30887SOL     OW93238   2.890   4.463   0.268 -0.0906  0.7030  0.0805
30887SOL    HW193239   2.890   4.470   0.173  0.8550  0.6583  0.0677
30887SOL    HW293240   2.982   4.454   0.292 -0.2710  1.2190  1.0416
30888SOL     OW93241   1.748   9.144   5.107  0.6879 -0.3103  0.1183
30888SOL    HW193242   1.719   9.060   5.142 -0.1002 -0.6002 -1.1639
30888SOL    HW293243   1.778   9.193   5.184 -2.0440 -0.4667  1.3962
30889SOL     OW93244   3.417   3.506   2.079  0.4024  0.4469  0.6104
30889SOL    HW193245   3.354   3.498   2.007 -0.1496  2.0677  0.8668
30889SOL    HW293246   3.450   3.418   2.092 -0.5931 -0.1437 -0.6434
30890SOL     OW93247   3.967   0.947   8.621  0.2123 -0.4910 -0.5234
30890SOL    HW193248   3.949   0.999   8.700 -0.7364 -0.6763 -0.6056
30890SOL    HW293249   3.991   0.860   8.655 -0.7199 -0.7299 -0.4276
30891SOL     OW93250   8.615   4.002   3.254  0.1500 -0.4105  0.3006
30891SOL    HW193251   8.575   3.995   3.167 -1.8508 -0.1336  1.1552
30891SOL    HW293252   8.542   4.007   3.314  1.4494  2.3694  1.8199
30892SOL     OW93253   4.146   4.250   9.656  0.1921 -0.1239  0.7100
30892SOL    HW193254   4.087   4.229   9.584 -0.6110  0.1699  1.2722
30892SOL    HW293255   4.121   4.338   9.682  2.8516  1.2856 -0.9808
30893SOL     OW93256   1.957   3.232   7.961 -0.0713 -0.0643 -0.5951
30893SOL    HW193257   2.032   3.272   7.918 -0.5827  0.6179 -0.8789
30893SOL    HW293258   1.990   3.150   7.997  1.0744  0.7373  0.2306
30894SOL     OW93259   0.835   8.846   7.911 -0.0884  1.0187 -0.5169
30894SOL    HW193260   0.910   8.794   7.940 -1.0426 -0.8727 -1.2807
30894SOL    HW293261   0.855   8.869   7.820  0.2231  1.8244 -0.2547
30895SOL     OW93262   4.456   5.731   1.767 -0.3347  0.3937 -0.0684
30895SOL    HW193263   4.370   5.720   1.808 -0.4718 -0.1182 -0.4810
30895SOL    HW293264   4.505   5.786   1.829 -0.1884 -1.2013  1.3124
30896SOL     OW93265   6.446   3.242   0.819  0.1865 -0.0652 -0.1650
30896SOL    HW193266   6.443   3.157   0.774  0.5616  0.6585 -1.6120
30896SOL    HW293267   6.535   3.274   0.804  0.4398  0.0616  1.4214
30897SOL     OW93268   2.963   3.056   9.120 -0.2252 -0.1527  0.1628
30897SOL    HW193269   2.939   3.007   9.198 -1.8759  1.1212  0.5292
30897SOL    HW293270   3.057   3.070   9.127  0.2350 -2.8420  0.2397
30898SOL     OW93271   8.012   9.472   7.647  0.6199  0.1199 -0.0542
30898SOL    HW193272   7.918   9.471   7.663  0.4803  0.7231 -0.7776
30898SOL    HW293273   8.044   9.389   7.684 -0.2953 -0.3992 -0.4145
30899SOL     OW93274   7.213   3.771   1.363 -0.6358  0.5018  0.1511
30899SOL    HW193275   7.282   3.720   1.323 -0.4953  0.5817  0.2898
30899SOL    HW293276   7.199   3.845   1.304  0.6457  1.4695  1.0060
30900SOL     OW93277   4.966   0.668   2.098  0.4116  0.4717  0.2827
30900SOL    HW193278   4.918   0.615   2.035 -1.2117  0.7753  1.1985
30900SOL    HW293279   5.041   0.702   2.049  0.2351 -0.8043 -0.9352
30901SOL     OW93280   5.924   8.071   9.763 -0.2544  0.0853 -0.5769
30901SOL    HW193281   5.973   8.120   9.828 -1.1935  0.6145 -0.2448
30901SOL    HW293282   5.980   7.996   9.741  0.0290 -0.1780  0.9287
30902SOL     OW93283   9.740   8.402   0.588  0.5166  0.1478  0.0786
30902SOL    HW193284   9.732   8.367   0.676  1.8583 -1.7882 -0.4955
30902SOL    HW293285   9.834   8.404   0.571  0.2582 -1.5738 -2.0173
30903SOL     OW93286   2.430   4.461   7.466  0.3639  0.1712 -0.3865
30903SOL    HW193287   2.465   4.406   7.396 -0.5488 -0.5714 -0.2730
30903SOL    HW293288   2.485   4.441   7.542 -0.9725 -1.8929  0.1166
30904SOL     OW93289   7.735   1.663   7.495  0.0817  0.2206 -0.4650
30904SOL    HW193290   7.757   1.756   7.506  1.6477 -0.1137 -0.4605
30904SOL    HW293291   7.749   1.625   7.581  0.2586 -0.1574 -0.6568
30905SOL     OW93292   8.112   5.680   3.303 -0.0991  0.4524 -0.5661
30905SOL    HW193293   8.166   5.713   3.375 -0.7253 -0.5917  0.4118
30905SOL    HW293294   8.056   5.614   3.343 -0.8923  0.2741 -1.9040
30906SOL     OW93295   9.425   8.130   0.647 -0.0387 -0.0850 -0.0270
30906SOL    HW193296   9.398   8.063   0.710  0.7504 -0.8955 -0.5394
30906SOL    HW293297   9.466   8.081   0.575 -2.0998  0.6735 -1.8397
30907SOL     OW93298   4.896   4.319   3.374  0.2804 -0.1839  0.5727
30907SOL    HW193299   4.850   4.326   3.291  1.0040 -2.8827 -0.1274
30907SOL    HW293300   4.988   4.324   3.351  0.7219 -4.6192  0.5386
30908SOL     OW93301   1.738   1.771   8.556 -0.7736  0.9889 -0.1043
30908SOL    HW193302   1.806   1.752   8.492  1.4588 -0.1538  2.3945
30908SOL    HW293303   1.785   1.775   8.640 -3.6917  1.0574  1.6571
30909SOL     OW93304   6.920   5.889   1.688 -0.1596 -0.0257  0.8629
30909SOL    HW193305   6.908   5.879   1.593 -1.2398  0.3240  0.9557
30909SOL    HW293306   6.959   5.976   1.698  0.9801 -0.4902  0.6825
30910SOL     OW93307   2.176   6.883   3.292  0.0446 -0.4330  0.0682
30910SOL    HW193308   2.259   6.926   3.271 -1.4729  2.0772 -1.3041
30910SOL    HW293309   2.120   6.954   3.323 -2.3044 -1.6072 -1.2432
30911SOL     OW93310   9.744   9.767   7.175 -0.1155  0.0630 -0.4752
30911SOL    HW193311   9.828   9.761   7.129  0.9847  0.7242  1.3320
30911SOL    HW293312   9.744   9.691   7.233 -0.5345  0.3494 -0.0942
30912SOL     OW93313   5.886   9.868   0.281  0.3083  0.2022  0.1208
30912SOL    HW193314   5.866   9.926   0.355  2.2769 -0.0195  0.8965
30912SOL    HW293315   5.937   9.922   0.221 -3.7534  1.3376 -2.7452
30913SOL     OW93316   4.716   1.580   8.262  0.5939 -0.5521  0.3674
30913SOL    HW193317   4.773   1.657   8.263 -0.2553  0.2058  3.7484
30913SOL    HW293318   4.771   1.509   8.294  0.5641 -0.6583  0.1851
30914SOL     OW93319   4.205   8.778   0.350  0.4271  0.4544  0.0370
30914SOL    HW193320   4.119   8.737   0.362  1.2959 -1.3060  0.6606
30914SOL    HW293321   4.185   8.870   0.333 -1.6329 -0.1157 -1.0866
30915SOL     OW93322   4.642   5.659   2.825 -0.7250 -0.4741  0.7542
30915SOL    HW193323   4.561   5.656   2.875 -2.2083  2.7001 -1.1619
30915SOL    HW293324   4.686   5.738   2.856 -0.5972  0.3089 -1.2738
30916SOL     OW93325   6.765   5.474   9.411  0.9030 -0.3708  0.1308
30916SOL    HW193326   6.770   5.504   9.321  0.9862  3.2648  1.1761
30916SOL    HW293327   6.677   5.498   9.440  0.9561 -1.2608  1.0869
30917SOL     OW93328   2.004   0.897   9.388 -0.4121  0.1153  0.4347
30917SOL    HW193329   2.098   0.883   9.373 -0.3422  0.5700  0.4491
30917SOL    HW293330   1.990   0.870   9.479 -0.8516 -2.7186 -0.3803
30918SOL     OW93331   5.334   3.705   9.431 -0.1738  0.4748 -0.2677
30918SOL    HW193332   5.365   3.715   9.521  3.5166 -0.0179 -1.2955
30918SOL    HW293333   5.261   3.644   9.437 -1.1880  1.7897  2.4944
30919SOL     OW93334   4.425   6.636   2.300  0.1899 -0.1900  0.0281
30919SOL    HW193335   4.383   6.578   2.363  2.4130 -1.4814  0.4293
30919SOL    HW293336   4.396   6.604   2.214  0.1048 -0.8548  0.2994
30920SOL     OW93337   3.266   3.128   6.491 -0.3780 -0.2189 -0.1129
30920SOL    HW193338   3.334   3.114   6.558 -0.0432 -0.3326 -0.4754
30920SOL    HW293339   3.234   3.216   6.508 -1.5055 -0.8503  1.2925
30921SOL     OW93340   1.049   0.456   0.553 -0.0431  0.4122  0.3086
30921SOL    HW193341   1.069   0.534   0.605  0.4164 -1.6971  3.6164
30921SOL    HW293342   0.982   0.410   0.604  0.8336 -2.1152 -0.6767
30922SOL     OW93343   0.305   9.252   1.611 -0.1033  0.0761 -0.2333
30922SOL    HW193344   0.361   9.242   1.688  0.2807 -0.6462 -0.5939
30922SOL    HW293345   0.293   9.346   1.602 -0.5432  0.1533  0.9786
30923SOL     OW93346   9.971   6.786   2.573 -0.2416 -0.0020  0.3832
30923SOL    HW193347  10.004   6.854   2.514  0.4922  0.3079  1.1475
30923SOL    HW293348   9.876   6.785   2.557 -0.1897  0.8207 -0.0257
30924SOL     OW93349   1.619   0.784   8.674  0.3323  0.2414 -0.7127
30924SOL    HW193350   1.558   0.787   8.600  1.2674 -0.7961 -1.5598
30924SOL    HW293351   1.594   0.704   8.722  1.4915 -0.6189 -1.5039
30925SOL     OW93352   0.893   4.648   3.328  0.1924  0.3860  0.5004
30925SOL    HW193353   0.933   4.673   3.412  0.2456  2.0362  0.0220
30925SOL    HW293354   0.960   4.669   3.263 -0.6248  1.1020 -0.1257
30926SOL     OW93355   5.201   7.900   7.650 -0.1772 -0.8572 -0.1550
30926SOL    HW193356   5.181   7.961   7.721 -0.8345 -0.6053 -0.5547
30926SOL    HW293357   5.245   7.827   7.694  0.0531 -0.3913  0.4141
30927SOL     OW93358   9.240   9.884   9.782  0.7157 -0.2547 -0.4209
30927SOL    HW193359   9.188   9.937   9.721 -0.6700  1.3363  1.9594
30927SOL    HW293360   9.248   9.939   9.860  3.3069 -1.7675  0.4896
30928SOL     OW93361   0.437   4.679   0.864 -0.0401  0.3147 -0.0307
30928SOL    HW193362   0.449   4.762   0.910 -0.3771  0.0778  0.4900
30928SOL    HW293363   0.381   4.627   0.922 -1.9869  0.6684 -1.4983
30929SOL     OW93364   8.938   3.533   8.131  0.3434  0.4030  0.7011
30929SOL    HW193365   8.982   3.449   8.115  1.9260  1.0568  1.4259
30929SOL    HW293366   8.887   3.518   8.211 -1.3024 -0.5237 -0.4416
30930SOL     OW93367   1.559   3.863   8.918  0.0455 -0.3078 -0.2957
30930SOL    HW193368   1.518   3.932   8.970  0.2545 -0.7936  0.5465
30930SOL    HW293369   1.618   3.909   8.858 -1.7084  0.4001 -1.5477
30931SOL     OW93370   0.853   7.128   4.727  0.2688  0.2522 -1.0834
30931SOL    HW193371   0.848   7.134   4.823  1.5164  0.0156 -0.9907
30931SOL    HW293372   0.855   7.034   4.709 -0.3978  0.2891 -1.3779
30932SOL     OW93373   6.250   5.088   0.320  0.5160  0.5489  0.4629
30932SOL    HW193374   6.294   5.048   0.395  2.7703 -0.6012 -1.3644
30932SOL    HW293375   6.253   5.182   0.339  0.7071  0.2665  1.9688
30933SOL     OW93376   7.178   1.422   9.125  0.1874  0.2764  0.4180
30933SOL    HW193377   7.122   1.499   9.122 -0.6479 -0.3377 -0.0616
30933SOL    HW293378   7.202   1.407   9.033 -1.5567 -1.3803  0.1824
30934SOL     OW93379   0.694   6.063   3.546 -0.1798 -0.3295 -0.0277
30934SOL    HW193380   0.756   5.991   3.532  0.8138 -0.1705  2.8523
30934SOL    HW293381   0.740   6.122   3.606 -1.6750  1.7980 -0.8749
30935SOL     OW93382   4.883   3.595   3.267 -0.3361  0.2353  0.3133
30935SOL    HW193383   4.808   3.620   3.320 -0.5557  1.2598 -0.4466
30935SOL    HW293384   4.845   3.566   3.184  0.1410  2.7323 -0.8618
30936SOL     OW93385   8.565   7.569   4.966 -0.3765 -0.6405  0.5609
30936SOL    HW193386   8.538   7.495   4.912  1.2904  0.9751 -2.7890
30936SOL    HW293387   8.661   7.566   4.966 -0.1541  2.1842 -0.9637
30937SOL     OW93388   9.220   8.248   6.611  0.3003  0.1293  0.6517
30937SOL    HW193389   9.306   8.242   6.568  0.5162  0.1454  1.0771
30937SOL    HW293390   9.157   8.248   6.539  0.6469 -0.1098  0.3483
30938SOL     OW93391   1.617   6.025   3.139 -0.4343  0.3220  0.0786
30938SOL    HW193392   1.547   6.054   3.080 -0.9746 -1.5816 -0.2825
30938SOL    HW293393   1.698   6.036   3.087 -0.5082  1.9095  0.2638
30939SOL     OW93394   8.298   1.864   0.360  0.2595  0.2423  0.0945
30939SOL    HW193395   8.217   1.814   0.358 -0.7296  1.7055  1.4580
30939SOL    HW293396   8.324   1.864   0.452  0.7173  1.4447 -0.0197
30940SOL     OW93397   5.344   1.263   0.729  0.0987 -0.9466  0.4277
30940SOL    HW193398   5.307   1.272   0.641 -0.3674 -0.5530  0.6582
30940SOL    HW293399   5.415   1.328   0.732 -0.1068 -0.7207  0.4529
30941SOL     OW93400   1.164   5.879   2.991 -0.0983  0.3006 -0.6695
30941SOL    HW193401   1.248   5.894   2.947  0.0965  0.3426 -0.2819
30941SOL    HW293402   1.185   5.878   3.084 -0.5465  0.4106 -0.5661
30942SOL     OW93403   1.615   7.657   0.646  0.4454 -0.0364  0.1446
30942SOL    HW193404   1.671   7.660   0.724 -0.3842 -0.7002  0.7918
30942SOL    HW293405   1.532   7.621   0.678  0.0734 -0.2746 -1.0432
30943SOL     OW93406   5.272   6.472   6.515 -0.3944  0.3400 -0.5695
30943SOL    HW193407   5.343   6.531   6.538 -1.7694  1.2763  1.6597
30943SOL    HW293408   5.281   6.457   6.421  3.1329 -0.2043 -0.2496
30944SOL     OW93409   0.193   9.212   2.863  0.9738 -0.9401  0.1450
30944SOL    HW193410   0.210   9.303   2.838 -3.9866  0.7642  1.8418
30944SOL    HW293411   0.152   9.173   2.786 -2.5259  0.3450  1.1964
30945SOL     OW93412   6.248   2.501   8.811 -0.0793  0.8321 -0.3204
30945SOL    HW193413   6.235   2.543   8.726 -0.8417  1.5920  0.1495
30945SOL    HW293414   6.343   2.501   8.823  0.1033 -0.0483 -1.5256
30946SOL     OW93415   3.846   9.189   3.224 -0.4242  0.1200  0.0198
30946SOL    HW193416   3.885   9.125   3.283 -0.9595 -0.5017 -0.2860
30946SOL    HW293417   3.770   9.222   3.271 -1.7046 -1.4425 -0.8611
30947SOL     OW93418   3.814   7.746   2.996  0.0875  0.0939 -0.4060
30947SOL    HW193419   3.746   7.683   3.020 -0.0834  0.8248  1.0748
30947SOL    HW293420   3.860   7.703   2.923 -1.2416 -0.8838 -0.7141
30948SOL     OW93421   2.031   9.862   6.848  0.1289  0.1075  0.0611
30948SOL    HW193422   2.029   9.941   6.903 -0.6534  0.2475 -0.1504
30948SOL    HW293423   2.096   9.881   6.781  0.7671  0.1163  0.6648
30949SOL     OW93424   3.626   8.674   7.552 -0.1448 -0.8921 -0.3451
30949SOL    HW193425   3.597   8.623   7.477 -1.3898 -0.5692 -0.1113
30949SOL    HW293426   3.668   8.751   7.514  0.6366 -1.4705 -0.6928
30950SOL     OW93427   1.962   4.499   9.085 -0.3479 -0.0877  0.3132
30950SOL    HW193428   1.955   4.495   9.180 -1.8049 -0.6504  0.2143
30950SOL    HW293429   1.876   4.472   9.054 -0.0191  0.4696 -1.1660
30951SOL     OW93430   3.155   9.806   3.201 -0.2725  0.3181  0.4096
30951SOL    HW193431   3.082   9.746   3.214  0.1357 -0.5134 -0.9351
30951SOL    HW293432   3.219   9.781   3.268 -0.2050 -0.5994  0.0125
30952SOL     OW93433   6.498   4.553   9.089 -0.1690  0.0489 -0.4837
30952SOL    HW193434   6.588   4.529   9.066 -0.1747 -0.3198 -0.1295
30952SOL    HW293435   6.491   4.646   9.065  0.3598  0.1253 -0.3628
30953SOL     OW93436   7.169   9.814   7.734 -0.1127  0.1835  0.6517
30953SOL    HW193437   7.127   9.802   7.649 -0.8486 -0.1590  1.0610
30953SOL    HW293438   7.100   9.848   7.791  0.2725  0.0301  1.2179
30954SOL     OW93439   9.646   1.108   4.067  0.2105  0.3146  0.1643
30954SOL    HW193440   9.704   1.032   4.067  0.4471  0.4577 -1.7309
30954SOL    HW293441   9.569   1.079   4.118  1.2327 -0.3929  1.3741
30955SOL     OW93442   1.007   5.117   9.896  0.0909  0.2361 -0.2460
30955SOL    HW193443   0.971   5.187   9.950  0.6140  0.5837 -0.3348
30955SOL    HW293444   1.048   5.057   9.958 -1.1116 -0.4571 -0.0990
30956SOL     OW93445   1.159   6.739   2.949  0.0716 -0.2046  0.3032
30956SOL    HW193446   1.101   6.663   2.955  0.0612 -0.3598 -1.2762
30956SOL    HW293447   1.194   6.735   2.860  4.0110 -1.1774  1.7089
30957SOL     OW93448   7.936   6.112   0.835 -0.0789  0.1713  0.3865
30957SOL    HW193449   7.899   6.034   0.876  1.2883 -1.6578 -1.6366
30957SOL    HW293450   7.881   6.128   0.759  1.0666 -0.3302 -0.5695
30958SOL     OW93451   3.377   7.482   7.632  0.5498  0.0528 -0.2915
30958SOL    HW193452   3.383   7.455   7.723  1.5877 -0.0390 -0.3791
30958SOL    HW293453   3.349   7.573   7.635  2.8639  0.8053  0.2284
30959SOL     OW93454   8.906   9.692   8.331 -0.0622  0.5986  0.2684
30959SOL    HW193455   8.940   9.677   8.419  1.2276  2.7822  0.1931
30959SOL    HW293456   8.824   9.738   8.344 -0.5690 -0.2859  0.3213
30960SOL     OW93457   7.603   4.268   0.544  0.2629  0.0628 -0.5661
30960SOL    HW193458   7.516   4.308   0.546  0.2791  0.1089  0.9818
30960SOL    HW293459   7.591   4.182   0.585  1.0158  0.2434  0.0630
30961SOL     OW93460   3.362   9.530   7.249 -0.3839  0.4391  0.0434
30961SOL    HW193461   3.393   9.440   7.250 -1.3916  0.0739  0.7632
30961SOL    HW293462   3.346   9.549   7.156 -1.3076 -0.5606 -0.0255
30962SOL     OW93463   2.085   3.317   0.700 -0.1730 -0.3484 -0.3857
30962SOL    HW193464   2.054   3.234   0.736 -1.9061  1.4689  2.7646
30962SOL    HW293465   2.007   3.372   0.695  1.1098  1.5200 -1.1228
30963SOL     OW93466   4.602   6.861   2.314  0.2843  0.2642 -1.0190
30963SOL    HW193467   4.541   6.794   2.284 -0.5238  0.8751 -0.7491
30963SOL    HW293468   4.629   6.907   2.233 -1.2481  1.3617 -0.9417
30964SOL     OW93469   0.360   3.487   8.822  0.3197  0.1461  0.2297
30964SOL    HW193470   0.452   3.475   8.849  0.5598 -0.2687 -0.7493
30964SOL    HW293471   0.347   3.422   8.753 -1.4403 -1.5220  2.0188
30965SOL     OW93472   8.289   8.435   2.019 -0.0376  0.2649 -0.4724
30965SOL    HW193473   8.277   8.354   1.969 -1.6754  1.4589 -2.1429
30965SOL    HW293474   8.221   8.494   1.986 -0.4926  1.5238  2.4309
30966SOL     OW93475   9.548   7.276   6.937  0.8501 -0.0267 -0.3130
30966SOL    HW193476   9.620   7.302   6.995  1.1771 -0.9232 -0.3102
30966SOL    HW293477   9.522   7.358   6.894  0.8723  0.5842  0.7794
30967SOL     OW93478   0.150   7.397   6.093  0.3767 -0.1771 -0.0151
30967SOL    HW193479   0.137   7.488   6.120 -0.2137 -0.3200  0.1843
30967SOL    HW293480   0.169   7.402   6.000  0.4050  0.1569  0.0074
30968SOL     OW93481   7.624   6.233   3.123  0.2116  0.3709  0.1198
30968SOL    HW193482   7.566   6.178   3.177  2.0764 -2.6106 -0.6919
30968SOL    HW293483   7.610   6.202   3.034  2.8563 -0.3674 -0.1153
30969SOL     OW93484   4.810   1.519   4.516  0.1524 -0.7559 -0.1454
30969SOL    HW193485   4.762   1.599   4.536 -0.5148 -1.2034  0.0772
30969SOL    HW293486   4.808   1.468   4.597  0.2235 -1.1702 -0.4011
30970SOL     OW93487   9.807   4.005   5.341  0.2606  0.1362 -0.3736
30970SOL    HW193488   9.768   4.088   5.369 -0.8345  0.3866 -2.4426
30970SOL    HW293489   9.835   4.021   5.251  1.1178 -1.4129 -0.4075
30971SOL     OW93490   8.152   2.354   3.500  0.2489 -0.1369 -0.1569
30971SOL    HW193491   8.198   2.312   3.426  2.1796 -0.4541  1.1310
30971SOL    HW293492   8.168   2.295   3.574 -2.3822 -0.2832  0.3933
30972SOL     OW93493   3.100   6.339   6.865 -0.5689 -0.1210 -0.0473
30972SOL    HW193494   3.015   6.353   6.907  0.0559  1.6539  0.6910
30972SOL    HW293495   3.115   6.417   6.813  0.7410 -0.2626  0.0743
30973SOL     OW93496   8.990   5.255   6.181 -0.5495 -0.0600  0.4169
30973SOL    HW193497   8.901   5.226   6.162 -0.6785  0.1616  0.6801
30973SOL    HW293498   9.046   5.188   6.142 -0.7738  0.9632 -1.8106
30974SOL     OW93499   8.050   7.165   1.782 -0.2910 -0.5782 -0.4930
30974SOL    HW193500   8.137   7.201   1.764 -0.0119 -0.3948  1.0983
30974SOL    HW293501   8.054   7.076   1.747  0.6064 -0.6444 -0.2637
30975SOL     OW93502   3.934   5.791   7.626  0.2987  0.5666  0.0639
30975SOL    HW193503   3.972   5.722   7.679  0.1783  0.3431 -0.1385
30975SOL    HW293504   3.965   5.772   7.537 -0.0008  0.5827 -0.0448
30976SOL     OW93505   9.665   9.520   3.906  0.0649  0.1650 -0.3763
30976SOL    HW193506   9.753   9.490   3.882  1.0427  0.4124  2.5562
30976SOL    HW293507   9.607   9.451   3.873  1.4203 -0.4254 -1.6323
30977SOL     OW93508   0.513   9.792   7.524 -0.0382  0.2228 -0.1840
30977SOL    HW193509   0.550   9.705   7.512  2.9039  1.1657  1.2157
30977SOL    HW293510   0.488   9.819   7.435  1.8753 -0.8744 -1.1211
30978SOL     OW93511   4.575   8.828   4.503 -0.1959  0.3696  0.2945
30978SOL    HW193512   4.486   8.848   4.472  0.1967  0.7346 -0.6463
30978SOL    HW293513   4.631   8.848   4.428  0.5264 -1.5108  0.2953
30979SOL     OW93514   0.585   8.101   4.941 -0.4375 -0.5281 -0.9350
30979SOL    HW193515   0.518   8.036   4.962  0.4112 -0.8498  0.9077
30979SOL    HW293516   0.668   8.056   4.956  0.1749  1.0702  0.8538
30980SOL     OW93517   5.089   7.089   1.892  0.4288  0.2348 -0.1925
30980SOL    HW193518   5.083   6.996   1.912  0.0746  0.2822 -0.0722
30980SOL    HW293519   5.155   7.095   1.823  0.7969 -0.0542  0.1301
30981SOL     OW93520   2.972   0.950   4.082  1.0428  0.1367  0.2796
30981SOL    HW193521   2.941   0.964   3.993  2.0021  0.5910  0.0006
30981SOL    HW293522   2.893   0.952   4.136  0.3567 -0.9609 -0.6426
30982SOL     OW93523   3.356   2.673   6.569  0.0107  0.1834 -0.0701
30982SOL    HW193524   3.281   2.653   6.514  0.5885  1.1290 -1.2406
30982SOL    HW293525   3.325   2.659   6.659 -1.2078 -0.5240 -0.5903
30983SOL     OW93526   6.889   2.704   8.385 -0.1595 -0.0188  0.1889
30983SOL    HW193527   6.909   2.777   8.327 -0.6186  0.3818  0.5265
30983SOL    HW293528   6.815   2.734   8.438  0.9758  0.0725  1.7878
30984SOL     OW93529   2.763   3.349   3.100  0.2336 -0.2458 -0.5659
30984SOL    HW193530   2.723   3.369   3.184  1.3389 -0.8375  0.1192
30984SOL    HW293531   2.703   3.387   3.035  0.1683  1.6080  0.5205
30985SOL     OW93532   4.819   4.049   8.935 -0.5216  0.0407 -0.0562
30985SOL    HW193533   4.801   4.108   9.007  2.5052  1.3545 -0.2114
30985SOL    HW293534   4.822   4.105   8.858 -0.3493 -0.7584 -0.6506
30986SOL     OW93535   8.105   1.395   8.725  0.2727 -0.3467  0.1421
30986SOL    HW193536   8.183   1.371   8.676 -0.1358 -3.8759  0.9810
30986SOL    HW293537   8.138   1.435   8.805  1.0505  0.9431 -0.7725
30987SOL     OW93538   8.085   3.973   5.261  0.2939  0.5584  0.1286
30987SOL    HW193539   8.042   3.972   5.346 -0.6708  0.2458 -0.3522
30987SOL    HW293540   8.103   4.066   5.245  0.4981  0.6157  0.6760
30988SOL     OW93541   7.203   6.554   7.115  0.7798 -0.3734 -0.4136
30988SOL    HW193542   7.264   6.620   7.084 -1.4957  2.3943  0.5781
30988SOL    HW293543   7.130   6.556   7.052 -0.5282  0.0628  1.0407
30989SOL     OW93544   7.653   2.995   6.905 -0.5733 -0.3718  0.5213
30989SOL    HW193545   7.725   2.980   6.845 -0.3998  1.3301  0.2784
30989SOL    HW293546   7.672   2.938   6.980  0.5001 -0.6566  0.0435
30990SOL     OW93547   5.654   3.369   1.793  0.4142  0.0448 -0.2104
30990SOL    HW193548   5.698   3.287   1.771 -0.1935 -0.6794  1.1296
30990SOL    HW293549   5.649   3.417   1.711  0.2598 -1.5189 -1.1548
30991SOL     OW93550   4.616   9.977   8.856  0.0137  0.5178 -0.0263
30991SOL    HW193551   4.614   9.899   8.801 -1.7714  0.2872  0.3202
30991SOL    HW293552   4.602   9.945   8.945  1.7468  1.0066  0.4606
30992SOL     OW93553   8.608   1.646   9.618  0.1308 -0.3908  0.6515
30992SOL    HW193554   8.657   1.569   9.591 -1.2938 -1.6738  1.5482
30992SOL    HW293555   8.630   1.657   9.711 -0.5568 -0.4232  0.8223
30993SOL     OW93556   0.075   5.641   9.286  0.8056  0.1238  0.3991
30993SOL    HW193557   0.149   5.606   9.336  1.1443  2.2157  1.4714
30993SOL    HW293558   0.054   5.572   9.223  0.4537 -2.6153  3.2743
30994SOL     OW93559   5.325   8.791   1.484  0.3012  0.0129 -0.1401
30994SOL    HW193560   5.417   8.775   1.465  0.6924  1.2921  0.5948
30994SOL    HW293561   5.289   8.704   1.503  1.9096 -0.2699  1.9060
30995SOL     OW93562   4.919   3.932   1.193  0.2126 -0.3692 -0.4448
30995SOL    HW193563   4.846   3.939   1.254 -0.3372 -0.9870 -1.0112
30995SOL    HW293564   4.982   3.998   1.222 -0.5062  0.0694  0.1373
30996SOL     OW93565   0.217   7.947   6.231  0.1060  0.1573 -0.2048
30996SOL    HW193566   0.294   7.893   6.211  0.6500 -0.0958  2.2719
30996SOL    HW293567   0.223   8.020   6.170  0.7258 -1.2824 -1.9535
30997SOL     OW93568   1.543   9.207   8.862 -0.2135 -0.9196  0.1486
30997SOL    HW193569   1.505   9.259   8.932  1.0847 -0.4214  0.5219
30997SOL    HW293570   1.471   9.190   8.802 -1.0087 -0.0307  0.8261
30998SOL     OW93571   5.787   3.734   1.817 -0.5356 -0.2020  0.0711
30998SOL    HW193572   5.721   3.674   1.851 -0.3550 -0.3090  0.2365
30998SOL    HW293573   5.776   3.813   1.870 -0.2243 -0.3849  0.4117
30999SOL     OW93574   5.535   7.269   7.646 -0.1456  0.1088  0.5439
30999SOL    HW193575   5.588   7.322   7.706  0.8793 -1.2695  0.9123
30999SOL    HW293576   5.536   7.182   7.685 -2.7506  0.0298  0.5637
31000SOL     OW93577   4.964   5.612   1.559 -0.1221  0.1957 -0.3014
31000SOL    HW193578   4.958   5.548   1.488 -1.8047 -0.1282  0.0781
31000SOL    HW293579   4.962   5.697   1.515  0.7237  0.0031 -0.7300
31001SOL     OW93580   6.946   0.744   8.777 -1.0114 -0.1866  0.8274
31001SOL    HW193581   7.017   0.782   8.829 -1.0808 -0.5331  1.1712
31001SOL    HW293582   6.988   0.675   8.725 -1.1112 -0.4415  1.0854
31002SOL     OW93583   7.923   2.426   5.834 -0.0923  0.0384  0.1335
31002SOL    HW193584   7.919   2.342   5.878  2.0536 -0.4338 -0.4703
31002SOL    HW293585   7.831   2.451   5.822 -0.7600 -1.8150  1.0162
31003SOL     OW93586   0.862   7.822   8.066  0.5045 -0.7375 -0.2388
31003SOL    HW193587   0.777   7.830   8.023 -0.1944 -0.9462  1.0460
31003SOL    HW293588   0.919   7.880   8.017 -0.0860 -1.4276 -1.8231
31004SOL     OW93589   2.003   7.729   0.994 -0.7197 -0.6374 -0.3721
31004SOL    HW193590   2.017   7.824   0.997  0.4898 -0.7938 -0.2527
31004SOL    HW293591   1.917   7.718   0.955 -1.6027  0.5661  1.1254
31005SOL     OW93592   4.467   9.174   0.234 -0.0826 -0.0516  0.1379
31005SOL    HW193593   4.489   9.126   0.314 -1.5448  2.0704  1.9437
31005SOL    HW293594   4.498   9.118   0.163  0.4390 -2.4899  2.1384
31006SOL     OW93595   0.726   2.162   6.906  0.3021  0.1784 -0.4792
31006SOL    HW193596   0.634   2.164   6.877  0.0833  1.7987  0.2343
31006SOL    HW293597   0.724   2.108   6.985  0.1968 -0.8458 -1.1658
31007SOL     OW93598   0.682   3.277   5.358  0.1179  0.0054 -0.1051
31007SOL    HW193599   0.601   3.315   5.391  0.1379 -1.6226  2.0015
31007SOL    HW293600   0.654   3.215   5.290 -0.4607 -0.8730  0.9160
31008SOL     OW93601   8.008   3.202   9.180 -0.8629  0.8350  0.7251
31008SOL    HW193602   8.049   3.288   9.184 -0.4206  0.8244 -1.7183
31008SOL    HW293603   8.077   3.141   9.206 -0.9410  1.1508  1.6987
31009SOL     OW93604   1.298   4.163   6.266  0.4676 -0.1277  0.3460
31009SOL    HW193605   1.324   4.169   6.358  1.8588  4.2499 -0.1046
31009SOL    HW293606   1.379   4.176   6.217 -0.6768  0.8687 -1.4044
31010SOL     OW93607   1.710   9.382   7.643  0.1505  0.0324  0.0010
31010SOL    HW193608   1.729   9.474   7.662 -0.8603  0.5032 -1.2005
31010SOL    HW293609   1.776   9.357   7.578 -0.8085  0.5279 -1.2051
31011SOL     OW93610   7.771   6.994   4.552 -0.6580 -0.2434 -0.3590
31011SOL    HW193611   7.781   6.935   4.478 -1.9816  0.4844 -1.1592
31011SOL    HW293612   7.796   7.080   4.518  1.8188 -0.3419  0.9474
31012SOL     OW93613   3.986   6.487   6.230 -0.1669 -0.5369  0.1958
31012SOL    HW193614   3.982   6.583   6.222 -0.9125 -0.3375  2.3179
31012SOL    HW293615   4.035   6.472   6.310 -0.6868 -1.9257  0.2746
31013SOL     OW93616   7.599   3.730   4.500  0.7270 -0.2493 -0.4374
31013SOL    HW193617   7.538   3.659   4.522 -1.2086  1.1280 -1.1199
31013SOL    HW293618   7.585   3.796   4.567 -1.0134  1.4727 -2.3175
31014SOL     OW93619   8.863   9.707   4.915 -0.1338  0.4804 -0.2777
31014SOL    HW193620   8.795   9.721   4.850 -1.3789 -2.0176  0.3460
31014SOL    HW293621   8.821   9.721   4.999  0.2248 -0.5398  0.1003
31015SOL     OW93622   3.283   4.058   6.353 -0.4117 -0.1209 -0.1350
31015SOL    HW193623   3.319   4.110   6.426 -0.6868 -1.2169  0.8049
31015SOL    HW293624   3.315   4.103   6.275  1.6833 -0.1129  0.6537
31016SOL     OW93625   2.573   4.437   9.275 -0.0825  0.2315 -0.4213
31016SOL    HW193626   2.548   4.512   9.329  0.6010  0.3656 -0.2883
31016SOL    HW293627   2.603   4.371   9.337 -3.2717 -1.2639 -0.2535
31017SOL     OW93628   4.916   2.396   2.774 -0.0208  0.2802 -0.1825
31017SOL    HW193629   4.934   2.439   2.858  0.2110  0.3449 -0.2643
31017SOL    HW293630   4.990   2.337   2.761  0.2630  0.7208 -0.6354
31018SOL     OW93631   7.067   3.449   0.965  0.0473  0.0430  0.0348
31018SOL    HW193632   6.986   3.399   0.960  0.2583 -0.3292  0.3014
31018SOL    HW293633   7.048   3.519   1.028  0.0234 -0.2173  0.3199
31019SOL     OW93634   9.226   4.879   5.308 -0.3512  0.1786  0.2303
31019SOL    HW193635   9.316   4.856   5.333  0.2630  1.2266 -0.9276
31019SOL    HW293636   9.235   4.959   5.256 -2.1322  1.5260  1.8194
31020SOL     OW93637   8.541   6.396   5.415  0.7813  0.0308 -0.0964
31020SOL    HW193638   8.471   6.352   5.367 -1.9053  1.4977  2.2315
31020SOL    HW293639   8.600   6.325   5.441  1.1252 -1.0718 -3.4171
31021SOL     OW93640   0.262   7.630   7.536  0.3057  0.3080 -0.4467
31021SOL    HW193641   0.218   7.675   7.608 -0.8724 -4.0161  1.9025
31021SOL    HW293642   0.342   7.595   7.576  0.1504 -1.3110 -1.4714
31022SOL     OW93643   7.249   6.767   1.974 -0.3283 -0.4723  0.3766
31022SOL    HW193644   7.163   6.729   1.960 -0.2360 -0.5071 -0.1276
31022SOL    HW293645   7.244   6.854   1.933  0.0752 -0.7367 -0.2558
31023SOL     OW93646   2.068   0.099   0.870  0.7725  0.0560  0.0450
31023SOL    HW193647   2.035   0.050   0.945 -0.3139  1.8068  0.7550
31023SOL    HW293648   2.159   0.119   0.893  0.4537  0.5659  0.9111
31024SOL     OW93649   8.981   0.080   7.077  0.1137  0.4933  0.2163
31024SOL    HW193650   9.054   0.105   7.134  1.5458  0.0507 -1.3495
31024SOL    HW293651   8.984   0.144   7.006  0.5225 -0.9592 -1.1144
31025SOL     OW93652   0.073   8.577   1.017  0.0758  0.0794  0.0407
31025SOL    HW193653   0.106   8.624   0.940  2.6433 -1.3963  0.1069
31025SOL    HW293654   0.085   8.484   0.994 -2.0716 -0.5044  1.0389
31026SOL     OW93655   7.569   8.885   9.912  0.5389 -0.1466 -0.1746
31026SOL    HW193656   7.569   8.866   9.819  0.7373  2.3371 -0.7651
31026SOL    HW293657   7.657   8.861   9.942 -0.0979 -2.7362 -0.1156
31027SOL     OW93658   2.444   0.515   8.060  0.5428 -0.0728 -0.6239
31027SOL    HW193659   2.513   0.535   8.124  0.3059  1.8437 -0.9358
31027SOL    HW293660   2.392   0.447   8.103  2.2435 -1.1502 -0.1351
31028SOL     OW93661   3.104   0.286   0.271 -0.1364  0.3986  0.5190
31028SOL    HW193662   3.181   0.338   0.295  0.0807  0.4604 -0.2826
31028SOL    HW293663   3.069   0.256   0.354  1.5742 -0.8161  0.8704
31029SOL     OW93664   0.830   9.607   0.579  0.1810  0.3134  0.2645
31029SOL    HW193665   0.771   9.655   0.522  0.0536 -1.2508 -0.9962
31029SOL    HW293666   0.774   9.574   0.649 -0.1011  0.3327  0.0496
31030SOL     OW93667   9.300   6.212   0.004  0.1374  0.3975  0.5267
31030SOL    HW193668   9.391   6.210   0.031  1.0346  0.2849 -2.2272
31030SOL    HW293669   9.281   6.124  -0.027 -1.2503  0.1489  1.9446
31031SOL     OW93670   0.798   5.612   0.886 -0.6199 -0.5501  0.7379
31031SOL    HW193671   0.892   5.602   0.898 -0.2124  1.5861 -0.1757
31031SOL    HW293672   0.768   5.658   0.964 -0.6497 -0.0496  0.4378
31032SOL     OW93673   4.053   4.357   0.877 -0.2566 -0.1353 -0.1105
31032SOL    HW193674   4.081   4.266   0.877  0.2682  0.0131  0.6588
31032SOL    HW293675   4.135   4.407   0.883 -0.5819  0.3527  0.3966
31033SOL     OW93676   7.598   1.776   9.008  0.2459  0.5120  0.2125
31033SOL    HW193677   7.550   1.855   9.033 -0.3998  0.3448 -0.4407
31033SOL    HW293678   7.685   1.807   8.983 -0.2970  1.1585 -0.9672
31034SOL     OW93679   8.709   9.321   8.009  0.9037 -0.1033 -0.2655
31034SOL    HW193680   8.642   9.360   7.954 -1.0291 -1.1243  1.2056
31034SOL    HW293681   8.781   9.302   7.950 -0.5845 -0.0606 -2.2097
31035SOL     OW93682   6.337   7.615   2.103  0.0561 -0.0129  0.2475
31035SOL    HW193683   6.343   7.526   2.070  3.2830 -0.1876  0.9530
31035SOL    HW293684   6.246   7.625   2.131 -0.8131 -2.4538 -1.4383
31036SOL     OW93685   7.641   6.208   9.157 -0.5644 -0.0577  0.8513
31036SOL    HW193686   7.706   6.175   9.218 -1.0551 -0.0293  1.3946
31036SOL    HW293687   7.575   6.139   9.152 -1.0169  0.3478  1.1087
31037SOL     OW93688   2.501   8.019   5.870 -0.5057 -0.4034 -0.4613
31037SOL    HW193689   2.428   8.029   5.932 -1.2166 -1.4622 -1.0758
31037SOL    HW293690   2.536   8.107   5.859 -0.9808 -0.0493  0.7071
31038SOL     OW93691   0.653   5.392   7.115 -0.1116  0.1674 -0.2970
31038SOL    HW193692   0.643   5.301   7.142 -0.0820  0.1351 -0.3941
31038SOL    HW293693   0.654   5.442   7.197 -1.1749  0.1803 -0.2864
31039SOL     OW93694   6.639   9.947   6.666  0.0771  0.5899 -0.3057
31039SOL    HW193695   6.680   9.903   6.741  0.1961 -1.6818 -1.6232
31039SOL    HW293696   6.549   9.913   6.665 -0.1558  1.2090 -0.7231
31040SOL     OW93697   7.320   6.240   5.976 -0.0789 -0.0869 -0.0317
31040SOL    HW193698   7.379   6.233   6.052 -0.6989  1.4912  0.6310
31040SOL    HW293699   7.239   6.275   6.013 -1.1220 -1.2680 -1.1029
31041SOL     OW93700   7.528   6.200   0.748  0.0852 -0.4487 -0.1441
31041SOL    HW193701   7.436   6.177   0.738 -0.0974  0.5865 -1.1580
31041SOL    HW293702   7.565   6.132   0.803 -0.9922 -1.6204 -0.8274
31042SOL     OW93703   6.116   9.789   3.833  0.3752  0.0815  0.3530
31042SOL    HW193704   6.143   9.879   3.815  1.0538 -0.3445 -0.8838
31042SOL    HW293705   6.023   9.787   3.811 -0.2853  1.0665  2.7520
31043SOL     OW93706   9.251   3.034   5.983  0.8095  0.4149 -0.1623
31043SOL    HW193707   9.285   2.950   5.953  3.5762  1.0817  0.8049
31043SOL    HW293708   9.239   3.085   5.903 -0.3602 -0.6647 -0.7108
31044SOL     OW93709   7.868   5.216   7.938  0.5973 -0.4800 -0.4274
31044SOL    HW193710   7.859   5.251   7.849  1.0022  0.8423  0.0341
31044SOL    HW293711   7.960   5.229   7.960 -0.1414  2.4204  1.4360
31045SOL     OW93712   5.944   8.808   6.508  0.2121 -0.1454  0.0889
31045SOL    HW193713   5.982   8.788   6.593  1.3469  1.1556 -0.0762
31045SOL    HW293714   5.898   8.891   6.521  0.7626  0.2948 -0.6414
31046SOL     OW93715   8.534   7.850   1.097  0.1176 -0.3975 -0.7888
31046SOL    HW193716   8.500   7.840   1.008  0.6407  0.6668 -1.1222
31046SOL    HW293717   8.460   7.828   1.153 -0.7271  0.5206 -1.4976
31047SOL     OW93718   3.560   4.774   4.293 -0.2631 -0.5932  0.2805
31047SOL    HW193719   3.633   4.719   4.321  0.7119  1.2802  1.6257
31047SOL    HW293720   3.511   4.792   4.374  0.2515  1.5897  0.1734
31048SOL     OW93721   0.548   9.966   9.345 -0.0028 -0.0743  0.4020
31048SOL    HW193722   0.502  10.033   9.295  0.0055  1.1988  2.0099
31048SOL    HW293723   0.483   9.897   9.359 -1.3539  1.4421  2.1453
31049SOL     OW93724   0.438   0.593   9.225  0.0932  0.0751  0.0382
31049SOL    HW193725   0.533   0.585   9.231  0.1150 -1.1032 -1.3358
31049SOL    HW293726   0.423   0.670   9.170  0.3370 -1.0685 -1.6858
31050SOL     OW93727   9.036   4.281   1.469 -0.0473 -0.3081  0.5301
31050SOL    HW193728   9.001   4.213   1.411  1.1733 -1.2018  0.7849
31050SOL    HW293729   9.119   4.307   1.428 -1.0703  1.9793 -0.2344
31051SOL     OW93730   7.100   2.869   6.709  0.8358 -0.1867  0.0587
31051SOL    HW193731   7.193   2.889   6.701  1.0488 -1.6993 -1.9317
31051SOL    HW293732   7.080   2.886   6.801  2.9119  0.7888  0.3825
31052SOL     OW93733   3.444   9.688   4.204 -0.0619 -0.0165 -0.5570
31052SOL    HW193734   3.465   9.654   4.117 -0.0091 -1.8644  0.1423
31052SOL    HW293735   3.530   9.704   4.245 -0.0852  0.5066 -0.7043
31053SOL     OW93736   2.544   4.637   1.781  0.2136  0.2911 -0.6195
31053SOL    HW193737   2.588   4.671   1.859  0.5329 -0.5054 -0.4439
31053SOL    HW293738   2.579   4.689   1.709 -1.4159  2.2909 -0.0566
31054SOL     OW93739   7.357   3.282   7.712  0.2480  0.3815 -0.1548
31054SOL    HW193740   7.397   3.369   7.711 -2.1900  1.6214  0.7112
31054SOL    HW293741   7.338   3.266   7.804  0.7342 -1.1551 -0.2928
31055SOL     OW93742   8.125   3.016   0.967 -0.0868 -0.0220  0.1847
31055SOL    HW193743   8.218   3.036   0.970 -0.2226  0.8480 -0.8343
31055SOL    HW293744   8.088   3.055   1.046  0.3391 -0.0077  0.3763
31056SOL     OW93745   6.115   6.010   6.671 -0.1405  0.3586  0.1184
31056SOL    HW193746   6.093   5.967   6.588  2.6338  0.3168 -0.6960
31056SOL    HW293747   6.135   5.937   6.730 -0.1302  0.4354  0.2078
31057SOL     OW93748   7.373   9.208   3.072  0.2211  0.1597 -0.1319
31057SOL    HW193749   7.464   9.181   3.088  0.2510 -0.0119 -0.5876
31057SOL    HW293750   7.325   9.125   3.063  0.3889  0.2267 -1.9990
31058SOL     OW93751   7.587   9.163   5.548 -0.5814  0.3339 -0.6163
31058SOL    HW193752   7.631   9.247   5.559 -1.0484  0.5101 -0.0271
31058SOL    HW293753   7.528   9.156   5.623 -0.7111 -0.4229 -0.7720
31059SOL     OW93754   3.436   0.272   6.910  0.1145  0.5338  0.7465
31059SOL    HW193755   3.349   0.234   6.928  0.1306  0.5361  0.8290
31059SOL    HW293756   3.491   0.197   6.888 -0.0107  0.5725  0.2830
31060SOL     OW93757   9.731   7.141   7.733 -0.0042  0.0923 -0.7845
31060SOL    HW193758   9.756   7.111   7.820  3.7933  0.4018 -1.5914
31060SOL    HW293759   9.691   7.227   7.747  0.9632  0.3396  0.6384
31061SOL     OW93760   7.937   4.587   2.183 -0.3145  0.3642 -0.2296
31061SOL    HW193761   7.994   4.617   2.253 -0.3930 -0.5555  0.2382
31061SOL    HW293762   7.848   4.599   2.217 -0.3468 -0.3552 -0.0490
31062SOL     OW93763   8.482   7.872   8.562  0.0201  0.9004 -0.0678
31062SOL    HW193764   8.446   7.886   8.650 -0.8018 -2.3570  0.2595
31062SOL    HW293765   8.465   7.780   8.544  2.8562  0.6763 -2.4446
31063SOL     OW93766   8.436   8.813   9.035  0.5308  0.0196 -0.3780
31063SOL    HW193767   8.453   8.771   8.950  0.2726 -3.4111  1.0728
31063SOL    HW293768   8.353   8.776   9.064  0.0270  2.0125  0.9182
31064SOL     OW93769   1.347   2.854   7.647 -0.7149 -0.3073  0.3580
31064SOL    HW193770   1.263   2.899   7.639 -1.1678 -0.9218  1.4019
31064SOL    HW293771   1.342   2.782   7.583 -0.7493 -0.0112  0.0247
31065SOL     OW93772   1.814   4.843   0.587  0.0744  0.7447  0.3207
31065SOL    HW193773   1.889   4.787   0.570 -0.5966 -0.2983  0.7055
31065SOL    HW293774   1.833   4.884   0.672  0.3855  0.7948  0.2260
31066SOL     OW93775   2.453   7.402   9.725 -0.2128 -0.0618 -0.0152
31066SOL    HW193776   2.506   7.336   9.680 -1.3318 -0.1653 -1.2265
31066SOL    HW293777   2.505   7.426   9.801  0.9861 -1.1011 -0.4721
31067SOL     OW93778   1.455   8.601   6.817  0.3474  0.5355  0.2973
31067SOL    HW193779   1.434   8.517   6.776  2.3431 -0.0555  0.3951
31067SOL    HW293780   1.491   8.654   6.746  0.1906  0.9037  0.4878
31068SOL     OW93781   1.722   2.187   6.093  0.1121  0.0292  0.3387
31068SOL    HW193782   1.697   2.234   6.013 -1.8527 -0.3430  0.6881
31068SOL    HW293783   1.705   2.095   6.072  2.6956 -0.4687  0.1016
31069SOL     OW93784   5.744   6.793   1.784 -0.2256  0.1018  0.6164
31069SOL    HW193785   5.663   6.747   1.763  0.1214 -0.6540  0.8738
31069SOL    HW293786   5.718   6.862   1.844 -0.7071 -0.0298  0.5596
31070SOL     OW93787   5.536   0.343   8.645  0.4391 -0.0532  0.0434
31070SOL    HW193788   5.518   0.255   8.615  0.1746  0.2898 -0.8267
31070SOL    HW293789   5.525   0.398   8.567  1.6666  0.6115  0.3171
31071SOL     OW93790   1.204   8.078   2.842  0.2017  0.3045 -0.2714
31071SOL    HW193791   1.222   8.172   2.837  3.3069 -0.0887  1.0725
31071SOL    HW293792   1.124   8.071   2.894 -0.6085  2.1947 -1.1880
31072SOL     OW93793   5.968   0.907   6.715 -0.5237  0.5436 -0.1853
31072SOL    HW193794   6.019   0.987   6.702 -0.9931  0.8694 -0.0299
31072SOL    HW293795   5.961   0.870   6.627  0.4678  0.1884 -0.1295
31073SOL     OW93796   2.630   7.039   9.399  0.4317  0.1392  0.9667
31073SOL    HW193797   2.578   7.046   9.319 -0.1378 -0.2830  1.2818
31073SOL    HW293798   2.715   7.006   9.370 -0.2841 -1.5906  0.6880
31074SOL     OW93799   8.980   2.129   8.486 -0.4601 -0.6164 -0.1731
31074SOL    HW193800   9.000   2.205   8.540  0.4238 -0.5179 -0.6294
31074SOL    HW293801   9.049   2.127   8.420 -1.2753 -0.9701 -1.0546
31075SOL     OW93802   8.323   0.775   3.147  0.1967 -0.3538  0.5666
31075SOL    HW193803   8.239   0.802   3.185  0.4916 -1.0989  1.8197
31075SOL    HW293804   8.337   0.835   3.074 -0.0323  1.7063  2.1336
31076SOL     OW93805   2.010   2.734   0.783 -0.0023  0.3781  0.0211
31076SOL    HW193806   2.089   2.682   0.791 -0.7822 -0.8641 -0.0103
31076SOL    HW293807   1.956   2.685   0.720 -0.9983  0.9108  0.4327
31077SOL     OW93808   4.350   8.589   0.144  0.1459  0.2904  0.4351
31077SOL    HW193809   4.297   8.623   0.071 -0.7170 -0.2985  0.7744
31077SOL    HW293810   4.319   8.637   0.221 -1.5317 -1.6148  1.0349
31078SOL     OW93811   3.975   6.486   6.974  0.3386 -0.0112  0.0837
31078SOL    HW193812   3.934   6.424   6.913  3.5979 -2.4607  0.0991
31078SOL    HW293813   3.994   6.434   7.052  0.7219  1.7902  1.2496
31079SOL     OW93814   0.710   8.115   2.133 -0.4621 -0.1009  0.0739
31079SOL    HW193815   0.796   8.072   2.134  0.2011  1.0520  2.9015
31079SOL    HW293816   0.731   8.208   2.145 -2.1039  0.1239  1.5313
31080SOL     OW93817   1.759   6.962   3.848  0.4333 -0.3486  0.5889
31080SOL    HW193818   1.847   6.998   3.845  0.5218 -0.5589  0.6399
31080SOL    HW293819   1.768   6.873   3.813  0.3103 -0.5038  0.9466
31081SOL     OW93820   1.906   5.127   5.805  0.0061 -0.0974  0.7895
31081SOL    HW193821   1.838   5.061   5.799 -0.6896  0.6265  0.5222
31081SOL    HW293822   1.870   5.203   5.759  1.0667  0.2398  0.4916
31082SOL     OW93823   7.378   4.157   5.452  0.0928 -0.0914  0.3714
31082SOL    HW193824   7.358   4.100   5.378 -0.7117  0.0552  0.4598
31082SOL    HW293825   7.324   4.235   5.436 -0.0904 -0.0619  1.1094
31083SOL     OW93826   9.242   4.478   9.906 -0.3523  0.1980 -0.0845
31083SOL    HW193827   9.179   4.407   9.914  0.7576 -0.7555  0.5219
31083SOL    HW293828   9.291   4.477   9.989  1.1591  0.2130 -0.9290
31084SOL     OW93829   5.635   6.479   0.626  0.1218 -0.0651  0.4157
31084SOL    HW193830   5.664   6.555   0.676 -2.4220  2.6071 -1.8226
31084SOL    HW293831   5.540   6.485   0.625 -0.0871 -2.1689 -1.5440
31085SOL     OW93832   6.858   3.939   4.865 -0.2201  0.2881  0.1570
31085SOL    HW193833   6.795   3.929   4.794 -0.0915 -0.8597  0.1763
31085SOL    HW293834   6.895   3.851   4.876  2.7537  1.2707 -1.0944
31086SOL     OW93835   9.682   5.930   8.841  0.0440  0.0512  0.8511
31086SOL    HW193836   9.750   5.941   8.775 -1.0030 -2.2074 -0.7521
31086SOL    HW293837   9.624   6.005   8.829  0.6050  0.3806  0.1488
31087SOL     OW93838   5.252   6.720   2.507  0.2527  0.2735 -0.3384
31087SOL    HW193839   5.343   6.691   2.518 -0.5031 -2.1382  0.1040
31087SOL    HW293840   5.219   6.728   2.597  0.3106  2.2607 -0.4590
31088SOL     OW93841   4.945   8.302   3.570  0.5041  0.1065  0.4170
31088SOL    HW193842   4.908   8.388   3.588  0.9179  0.2797  0.4434
31088SOL    HW293843   4.899   8.243   3.630 -1.4391 -0.0913 -1.1434
31089SOL     OW93844   8.209   7.582   9.148  0.2412  0.5806  0.1575
31089SOL    HW193845   8.226   7.676   9.151  1.4254  0.3911 -0.3166
31089SOL    HW293846   8.222   7.558   9.056 -1.7644  0.2438 -0.0857
31090SOL     OW93847   1.087   4.463   9.947 -0.3454  0.6456  0.2785
31090SOL    HW193848   1.133   4.379   9.939 -0.7679  0.4792 -0.5075
31090SOL    HW293849   1.088   4.482  10.041  0.6670  0.2802  0.3596
31091SOL     OW93850   9.704   0.731   6.549  0.5614  0.0283  0.0256
31091SOL    HW193851   9.799   0.717   6.542  0.7227  0.2421  1.4640
31091SOL    HW293852   9.681   0.698   6.636 -0.1975  2.3785  0.7953
31092SOL     OW93853   8.614   0.842   6.094 -0.7566 -0.4951 -0.4908
31092SOL    HW193854   8.547   0.799   6.148 -0.9768  0.7280  0.2355
31092SOL    HW293855   8.568   0.913   6.050  0.2777  1.1443  0.9648
31093SOL     OW93856   0.377   9.569   1.768  0.0818 -0.7858  0.0470
31093SOL    HW193857   0.308   9.629   1.793 -0.6804 -1.8739  0.6320
31093SOL    HW293858   0.368   9.560   1.673 -1.4184 -1.8869  0.2648
31094SOL     OW93859   0.172   5.981   3.215  0.3371  0.1979 -0.3361
31094SOL    HW193860   0.189   6.021   3.130 -1.3585  1.0669 -0.3001
31094SOL    HW293861   0.170   5.887   3.198 -1.3467  0.4139 -1.5521
31095SOL     OW93862   3.507   7.994   3.888 -0.1684 -0.2599  0.1343
31095SOL    HW193863   3.596   7.964   3.909 -1.1453 -2.0932  2.1301
31095SOL    HW293864   3.477   8.036   3.969 -1.9556 -1.9607  0.4245
31096SOL     OW93865   9.821   5.292   4.843  0.3288  0.2887 -0.4110
31096SOL    HW193866   9.844   5.299   4.936 -1.1304 -0.8319  0.0735
31096SOL    HW293867   9.814   5.198   4.827 -1.7155  0.4998 -1.0219
31097SOL     OW93868   3.791   0.605   4.575 -0.2967 -0.0922  0.2609
31097SOL    HW193869   3.720   0.649   4.622 -1.5688 -0.9888 -0.7119
31097SOL    HW293870   3.870   0.625   4.624 -0.9522  2.4046  0.4253
31098SOL     OW93871   3.158   8.408   0.068 -0.9067  0.0685 -0.1015
31098SOL    HW193872   3.251   8.412   0.045 -0.9699 -2.1959 -0.9727
31098SOL    HW293873   3.147   8.478   0.132  1.3232  0.6014 -0.2023
31099SOL     OW93874   4.729   4.187   3.752  0.2457 -0.2734 -0.4716
31099SOL    HW193875   4.720   4.094   3.734 -0.6392 -0.1805 -0.5814
31099SOL    HW293876   4.682   4.230   3.680 -0.2963  0.2132  0.1540
31100SOL     OW93877   0.139   2.552   2.251 -0.1990 -0.3279 -0.1114
31100SOL    HW193878   0.117   2.512   2.335  1.3029  0.2035  0.5755
31100SOL    HW293879   0.070   2.617   2.237  0.6564  1.1100  1.8339
31101SOL     OW93880   4.982   0.419   2.295  0.1384  1.1043 -0.5178
31101SOL    HW193881   5.004   0.463   2.213  0.0624  0.6879 -0.7645
31101SOL    HW293882   4.984   0.325   2.274  1.3634  0.9309  0.2635
31102SOL     OW93883   1.367   5.239   0.662 -0.0204 -0.8014  0.2329
31102SOL    HW193884   1.402   5.327   0.648  2.3604 -1.7441 -0.1917
31102SOL    HW293885   1.284   5.253   0.707  0.1982  1.6566  0.0030
31103SOL     OW93886   4.674   9.215   7.241 -0.1230 -0.4132 -0.2411
31103SOL    HW193887   4.642   9.244   7.327  0.6252 -2.1235  0.6805
31103SOL    HW293888   4.595   9.187   7.194 -0.4746 -0.1373  0.1756
31104SOL     OW93889   0.778   8.476   6.473 -0.1692 -0.1012  0.1162
31104SOL    HW193890   0.866   8.478   6.436 -0.2478  2.9686 -0.1802
31104SOL    HW293891   0.790   8.499   6.565 -0.6030 -0.1776  0.1966
31105SOL     OW93892   4.385   8.009   4.547  0.2932  0.3765 -0.1008
31105SOL    HW193893   4.365   7.987   4.638 -1.0261  2.3771  0.1804
31105SOL    HW293894   4.480   8.023   4.546  0.5130 -0.9464  0.6467
31106SOL     OW93895   3.165   5.189   7.786  0.2649  0.1879  0.7099
31106SOL    HW193896   3.203   5.225   7.705  0.1328 -1.3546 -0.0692
31106SOL    HW293897   3.083   5.237   7.797  0.2014  0.2982 -0.1693
31107SOL     OW93898   7.070   8.228   2.217 -0.2403 -0.2744 -0.1892
31107SOL    HW193899   7.129   8.156   2.192 -0.0115 -0.0028 -0.4377
31107SOL    HW293900   6.993   8.184   2.254 -0.5651 -0.6975 -1.3232
31108SOL     OW93901   0.787   0.066   7.012  0.2209 -1.0111 -0.0698
31108SOL    HW193902   0.794   0.113   6.929  0.9078  3.3368  2.1135
31108SOL    HW293903   0.693   0.055   7.026  0.0468 -0.5833 -0.8668
31109SOL     OW93904   2.412   1.112   9.477  0.6470 -0.6173 -0.0929
31109SOL    HW193905   2.411   1.198   9.518 -0.1115 -0.0083 -1.3482
31109SOL    HW293906   2.485   1.115   9.416 -0.9773  0.1709 -2.1475
31110SOL     OW93907   9.316   9.372   1.417  0.4828  0.3531  0.1064
31110SOL    HW193908   9.288   9.399   1.504  0.6197  0.7909  0.0206
31110SOL    HW293909   9.411   9.384   1.417  0.4623  0.5378 -0.1611
31111SOL     OW93910   3.442   5.113   2.995  0.9038 -0.2388  0.7349
31111SOL    HW193911   3.481   5.034   2.959  1.1311 -0.8135  2.1904
31111SOL    HW293912   3.347   5.096   2.992  0.9347 -0.4144  0.7292
31112SOL     OW93913   0.916   6.003   1.881 -0.4645  0.2573  0.4972
31112SOL    HW193914   0.866   6.051   1.815  0.4524 -0.0400 -0.4411
31112SOL    HW293915   0.970   6.070   1.923 -0.0496  0.2371  0.0009
31113SOL     OW93916   4.565   5.642   9.388  0.0781 -0.2740 -0.1346
31113SOL    HW193917   4.578   5.635   9.482  0.1457 -3.5495 -0.2666
31113SOL    HW293918   4.498   5.710   9.377 -0.2936 -0.1770  2.2720
31114SOL     OW93919   9.097   4.565   9.264 -0.0708 -0.0976 -0.8065
31114SOL    HW193920   9.124   4.592   9.352 -0.5073 -2.1007  0.0257
31114SOL    HW293921   9.178   4.535   9.222 -0.2502 -2.1208  0.1397
31115SOL     OW93922   6.667   8.291   2.618 -0.4582 -0.3194  0.8080
31115SOL    HW193923   6.719   8.342   2.680 -2.0186  0.1061  1.8376
31115SOL    HW293924   6.623   8.357   2.564  0.1877 -0.6740 -0.1687
31116SOL     OW93925   8.406   0.783   0.458 -0.0225  0.2047 -0.1381
31116SOL    HW193926   8.345   0.856   0.456 -0.2933  0.1067  1.8374
31116SOL    HW293927   8.415   0.762   0.551  0.5968 -1.8235 -0.5968
31117SOL     OW93928   1.499   5.559   2.273 -0.1620  0.6643  0.0981
31117SOL    HW193929   1.515   5.474   2.313 -1.8774 -0.2200 -0.9467
31117SOL    HW293930   1.586   5.597   2.262  0.7406 -1.3297 -0.1728
31118SOL     OW93931   9.254   0.797   2.438  0.0680 -0.7691  0.2108
31118SOL    HW193932   9.288   0.710   2.417 -0.5635 -1.1352  0.6673
31118SOL    HW293933   9.245   0.796   2.534  0.7596  0.0611  0.2929
31119SOL     OW93934   1.296   0.238   0.187 -0.1502  0.4869  0.1410
31119SOL    HW193935   1.278   0.330   0.166  0.6262  1.0931  1.9024
31119SOL    HW293936   1.271   0.229   0.279 -0.8978 -1.2802 -0.1912
31120SOL     OW93937   7.324   0.855   0.565 -0.5618 -0.1557  0.5950
31120SOL    HW193938   7.414   0.853   0.531 -0.5857  0.5273  0.4817
31120SOL    HW293939   7.307   0.765   0.593  0.3315 -0.1856  1.0761
31121SOL     OW93940   6.498   4.042   4.051 -0.2063 -0.1167 -0.2106
31121SOL    HW193941   6.444   3.963   4.042 -1.2282  0.3915  1.2250
31121SOL    HW293942   6.528   4.060   3.961 -0.0961 -2.0034 -0.6097
31122SOL     OW93943   6.996   9.596   2.060  0.7957  0.8512 -0.4709
31122SOL    HW193944   7.002   9.691   2.068  1.4876  0.7207  0.9084
31122SOL    HW293945   7.071   9.572   2.005  0.2952  1.1342 -1.2984
31123SOL     OW93946   6.113   0.001   7.400 -0.1101 -0.2874 -0.2955
31123SOL    HW193947   6.159   0.084   7.414  0.9013 -0.9824  0.7378
31123SOL    HW293948   6.174  -0.053   7.351 -0.1316 -0.9373  0.3663
31124SOL     OW93949   1.063   1.631   0.055 -0.1393 -0.6767  0.3709
31124SOL    HW193950   1.058   1.708  -0.003  0.2734  0.2677  1.5416
31124SOL    HW293951   1.039   1.557  -0.001 -1.2098  0.3831 -0.6349
31125SOL     OW93952   0.236   2.888   6.344 -0.2793 -0.0804 -0.0747
31125SOL    HW193953   0.331   2.898   6.337 -0.0583 -1.4364  0.6496
31125SOL    HW293954   0.201   2.948   6.279  1.1016 -0.2752 -1.0425
31126SOL     OW93955   5.298   4.499   4.725  0.1458  0.1966  0.5564
31126SOL    HW193956   5.307   4.542   4.640 -1.5578 -1.0703 -0.3161
31126SOL    HW293957   5.274   4.570   4.785 -1.0293  0.7652 -0.5218
31127SOL     OW93958   8.427   5.720   5.466  0.1446 -0.6223  0.0117
31127SOL    HW193959   8.359   5.655   5.481 -1.8691  1.2118 -0.7100
31127SOL    HW293960   8.393   5.776   5.396  1.4547  1.6236  1.0300
31128SOL     OW93961   3.792   0.958   4.991  0.0483  0.1103 -0.4180
31128SOL    HW193962   3.768   0.929   5.079 -0.0228  0.4174 -0.3376
31128SOL    HW293963   3.723   0.923   4.935  0.5642 -0.8534 -0.4785
31129SOL     OW93964   3.901   7.547   0.268  0.1651 -0.1667  0.3781
31129SOL    HW193965   3.880   7.523   0.358  0.5813  0.4557  0.6465
31129SOL    HW293966   3.996   7.559   0.268  0.4325 -1.9112 -0.5640
31130SOL     OW93967   5.213   5.172   9.370  0.5422 -0.2207  0.2497
31130SOL    HW193968   5.132   5.122   9.384 -0.1030  0.4808 -0.7860
31130SOL    HW293969   5.261   5.121   9.304  1.3609 -1.0695  1.4630
31131SOL     OW93970   5.730   4.295   4.325 -0.2871 -0.3238 -0.0232
31131SOL    HW193971   5.697   4.371   4.373  2.2317 -0.1875  1.7140
31131SOL    HW293972   5.760   4.234   4.393  1.9736 -0.8413 -1.3450
31132SOL     OW93973   4.680   1.954   8.175 -0.6664  0.1843  0.0565
31132SOL    HW193974   4.597   1.969   8.130 -0.0298  0.6984 -1.0105
31132SOL    HW293975   4.735   1.910   8.109 -0.1024 -0.1743  0.7503
31133SOL     OW93976   5.288   2.608   1.110  0.3615 -0.4162 -0.3023
31133SOL    HW193977   5.354   2.656   1.060 -0.6220  1.4329  0.1009
31133SOL    HW293978   5.261   2.668   1.178 -3.6930  0.0405 -2.0234
31134SOL     OW93979   6.324   8.252   3.093 -0.3614 -0.3223  0.2067
31134SOL    HW193980   6.264   8.177   3.088 -1.5216  0.6397 -2.3403
31134SOL    HW293981   6.367   8.253   3.007  0.9902  0.8566  0.8738
31135SOL     OW93982   9.869   4.306   3.774 -0.9037  0.4510 -0.1391
31135SOL    HW193983   9.949   4.300   3.826 -1.3617 -1.7771  0.4285
31135SOL    HW293984   9.890   4.264   3.691 -0.4802  3.1006 -1.4550
31136SOL     OW93985   0.977   1.232   8.801  0.1961 -0.1541 -0.4930
31136SOL    HW193986   1.022   1.271   8.876 -1.2974  1.3713 -0.3063
31136SOL    HW293987   1.032   1.253   8.726  0.3563  0.7452 -0.1448
31137SOL     OW93988   4.663   0.327   7.233  0.4402 -0.5383  0.2425
31137SOL    HW193989   4.677   0.239   7.267 -0.8324 -0.7214  0.3244
31137SOL    HW293990   4.695   0.324   7.143  1.5765 -0.7210  0.6448
31138SOL     OW93991   0.994   3.569   7.143 -0.1284  0.5736 -0.5624
31138SOL    HW193992   1.054   3.630   7.187  0.0323  0.4596 -0.6219
31138SOL    HW293993   0.995   3.490   7.197  0.9362  0.0186 -1.3578
31139SOL     OW93994   0.722   6.614   3.663  0.3224 -0.4948  0.2966
31139SOL    HW193995   0.631   6.597   3.641  0.1540  0.4828  0.2095
31139SOL    HW293996   0.730   6.709   3.661  0.8994 -0.4677  2.0757
31140SOL     OW93997   1.510   7.696   0.183  0.4148 -0.4463 -0.2624
31140SOL    HW193998   1.441   7.669   0.244 -0.5461 -1.1248 -1.6216
31140SOL    HW293999   1.513   7.791   0.191  0.1479 -0.5084  0.6752
31141SOL     OW94000   3.044   9.722   2.793  0.5266  0.7042  0.3650
31141SOL    HW194001   3.023   9.699   2.703  2.3333  2.0146 -0.4593
31141SOL    HW294002   2.975   9.782   2.821  1.3338  2.4183 -1.1334
31142SOL     OW94003   6.310   3.288   3.978  0.7910  0.8867 -0.5107
31142SOL    HW194004   6.285   3.323   4.064 -0.9590 -2.1425  0.3330
31142SOL    HW294005   6.396   3.327   3.962  0.4417  2.8958  1.7749
31143SOL     OW94006   1.063   8.635   9.390  0.2515 -0.5640  0.0725
31143SOL    HW194007   1.152   8.603   9.401  0.3124 -1.3205 -2.2131
31143SOL    HW294008   1.011   8.582   9.451  1.1626 -1.0283  0.4682
31144SOL     OW94009   2.975   7.409   4.949 -0.5935  0.5247  0.2328
31144SOL    HW194010   2.935   7.356   4.879 -0.4497 -1.7295  1.7518
31144SOL    HW294011   2.902   7.456   4.988 -0.7044  1.6547 -1.2624
31145SOL     OW94012   1.899   6.600   4.671 -0.5774 -0.0945  0.2545
31145SOL    HW194013   1.871   6.522   4.718  0.4807  0.2825  1.5667
31145SOL    HW294014   1.891   6.577   4.578 -1.6829 -1.2270  0.6202
31146SOL     OW94015   8.499   4.654   7.332  0.7861 -0.1284  0.2027
31146SOL    HW194016   8.422   4.627   7.281  1.3980 -0.9088 -0.3434
31146SOL    HW294017   8.543   4.718   7.276  1.2683 -0.7196 -0.1034
31147SOL     OW94018   8.144   3.001   9.598 -0.4333  0.0816  1.0222
31147SOL    HW194019   8.148   3.054   9.678 -0.5391  1.5102  0.1231
31147SOL    HW294020   8.218   2.941   9.606  0.2319  0.9459  1.6957
31148SOL     OW94021   8.891   7.667   3.142 -0.6939  0.6280  0.4093
31148SOL    HW194022   8.830   7.601   3.176 -0.3677  1.0552  1.8905
31148SOL    HW294023   8.883   7.659   3.046  0.2698 -2.4334  0.4550
31149SOL     OW94024   0.055   1.298   4.315 -0.0760  0.0236  0.3076
31149SOL    HW194025   0.071   1.275   4.224  0.7321 -0.2618  0.5102
31149SOL    HW294026   0.024   1.388   4.313 -0.5115 -0.1388 -0.2812
31150SOL     OW94027  -0.013   9.569   9.450 -0.1586 -0.0541  0.0314
31150SOL    HW194028   0.077   9.576   9.482  0.9930 -1.6666 -2.5576
31150SOL    HW294029  -0.017   9.633   9.379 -0.7746 -0.5682 -0.4026
31151SOL     OW94030   8.947   6.916   4.576 -0.3151 -0.0446 -0.2459
31151SOL    HW194031   8.856   6.887   4.570  0.0146 -0.9524 -1.0569
31151SOL    HW294032   8.949   6.998   4.527 -0.9252  0.6064  0.7667
31152SOL     OW94033   0.890   7.524   7.867  0.3241 -0.8995 -0.0265
31152SOL    HW194034   0.970   7.567   7.897  0.2122 -0.8173  0.1523
31152SOL    HW294035   0.901   7.517   7.772  0.3662 -0.5183 -0.0520
31153SOL     OW94036   4.273   2.173   4.897 -0.2604 -0.1872  0.2898
31153SOL    HW194037   4.362   2.197   4.923 -0.3861 -1.5519  2.2320
31153SOL    HW294038   4.284   2.093   4.845 -0.2914  0.2320 -0.3670
31154SOL     OW94039   9.203   4.184   5.472 -0.2927  0.3969 -0.6058
31154SOL    HW194040   9.195   4.124   5.546  1.2744  1.6564  0.6753
31154SOL    HW294041   9.194   4.129   5.395 -0.2768 -1.2513  0.5114
31155SOL     OW94042   8.844   1.971   6.196 -1.0595  0.0097  0.2517
31155SOL    HW194043   8.786   1.945   6.267 -1.5307  1.1314  0.2892
31155SOL    HW294044   8.799   2.044   6.153 -1.1845 -1.1417 -1.7226
31156SOL     OW94045   2.861   4.947   4.241 -0.1854  0.2250 -0.0096
31156SOL    HW194046   2.904   4.967   4.158  0.6909  1.1533  0.6352
31156SOL    HW294047   2.923   4.977   4.308 -1.0836 -0.0389  0.9758
31157SOL     OW94048   4.609   2.036   3.050  0.1009 -0.3914  0.1262
31157SOL    HW194049   4.677   2.035   2.982  0.0829  0.0781  0.0969
31157SOL    HW294050   4.550   2.106   3.023 -1.5988 -2.1692 -0.9916
31158SOL     OW94051   4.418   0.026   2.205 -0.5253  0.4456  0.4174
31158SOL    HW194052   4.495   0.075   2.177 -0.2218 -0.8984 -1.2636
31158SOL    HW294053   4.435   0.005   2.297  1.4945 -0.4409 -0.1101
31159SOL     OW94054   8.693   8.858   4.264 -0.2113  0.6455  0.1092
31159SOL    HW194055   8.748   8.920   4.313 -0.7642  1.1477  0.1125
31159SOL    HW294056   8.690   8.780   4.319 -0.6996  1.1484  0.8294
31160SOL     OW94057   5.258   3.700   4.459  0.8015 -0.7647  0.1211
31160SOL    HW194058   5.234   3.624   4.406  0.3020 -1.3375  1.1323
31160SOL    HW294059   5.354   3.702   4.457  0.7791 -0.4368 -1.2486
31161SOL     OW94060   7.272   7.722   0.241 -0.3986 -0.2015 -0.5704
31161SOL    HW194061   7.180   7.728   0.269 -0.0634 -0.9513  0.7767
31161SOL    HW294062   7.284   7.630   0.218 -0.0002 -0.0923 -0.8080
31162SOL     OW94063   5.732   6.493   8.288  0.2544  0.2528  0.4320
31162SOL    HW194064   5.682   6.486   8.207  1.0231 -1.2075  0.0588
31162SOL    HW294065   5.666   6.497   8.357 -0.3927  0.4528 -0.1852
31163SOL     OW94066   4.026   0.313   0.913  0.0889  0.5817  0.2260
31163SOL    HW194067   4.032   0.278   1.002  0.2855 -0.9086 -0.3594
31163SOL    HW294068   3.932   0.312   0.893  0.0647  0.7266  0.3252
31164SOL     OW94069   4.081   1.513   1.755  0.2964 -0.1454 -0.7498
31164SOL    HW194070   4.003   1.550   1.712 -0.9866 -2.4904 -0.5923
31164SOL    HW294071   4.138   1.588   1.768 -1.2494  1.4187 -2.3373
31165SOL     OW94072   9.419   1.748   5.176 -0.3941  0.1666 -0.2390
31165SOL    HW194073   9.397   1.769   5.086 -0.4985 -0.1263 -0.2819
31165SOL    HW294074   9.514   1.741   5.177 -0.2383  1.8314  0.0295
31166SOL     OW94075   3.984   1.907   2.797  0.0484  0.1273  0.0204
31166SOL    HW194076   3.905   1.946   2.759 -1.7261  0.1069  3.2748
31166SOL    HW294077   4.046   1.979   2.804  0.6306  0.0579 -2.9866
31167SOL     OW94078   8.644   2.576   7.622 -0.3279  0.3518 -0.6266
31167SOL    HW194079   8.577   2.582   7.690  0.2542  1.5221 -0.1398
31167SOL    HW294080   8.647   2.663   7.582  2.0638  0.9015  0.5294
31168SOL     OW94081   0.939   0.801   6.746  0.2069 -0.1024 -0.0574
31168SOL    HW194082   0.960   0.794   6.839  0.3643 -0.9212 -0.1452
31168SOL    HW294083   1.023   0.793   6.701 -0.0445 -1.4219 -0.3302
31169SOL     OW94084   7.297   7.142   2.653 -0.2240 -0.4641  0.3743
31169SOL    HW194085   7.254   7.191   2.724  0.0098 -0.6748  0.6676
31169SOL    HW294086   7.225   7.097   2.609 -0.6448  1.4217 -0.9448
31170SOL     OW94087   2.572   1.474   7.787  0.2064  0.5456  0.2544
31170SOL    HW194088   2.589   1.557   7.832 -0.8819 -0.2238  2.2066
31170SOL    HW294089   2.477   1.473   7.774  0.1074 -0.6840  0.9236
31171SOL     OW94090   1.888   1.963   3.522  0.0474  0.3675 -0.3636
31171SOL    HW194091   1.979   1.975   3.496 -0.0087  1.1173 -0.2304
31171SOL    HW294092   1.879   1.869   3.535  0.7624  0.2726 -0.5248
31172SOL     OW94093   7.964   5.288   7.440 -0.1658  0.4234 -0.0904
31172SOL    HW194094   8.022   5.259   7.510 -0.0882  0.9958  0.0798
31172SOL    HW294095   7.976   5.223   7.371  1.1125  0.8548 -0.2902
31173SOL     OW94096   7.984   7.309   0.544 -0.3826  0.0938 -0.0540
31173SOL    HW194097   8.014   7.227   0.584  2.1285  1.0764  0.2485
31173SOL    HW294098   8.019   7.306   0.455 -1.8349  0.0648 -0.6421
31174SOL     OW94099   5.544   9.027   1.556  0.0858  0.0726  0.2749
31174SOL    HW194100   5.494   9.036   1.637 -0.5385  1.4493 -0.2188
31174SOL    HW294101   5.564   8.934   1.550 -0.3787 -0.1437  1.6964
31175SOL     OW94102   8.156   7.412   0.829  0.1886 -0.7378  0.4464
31175SOL    HW194103   8.141   7.473   0.757 -0.6632 -1.2094  0.1995
31175SOL    HW294104   8.237   7.367   0.807  0.5653 -0.0359  0.3897
31176SOL     OW94105   6.408   9.290   4.444 -0.1422  0.1380 -0.1915
31176SOL    HW194106   6.315   9.281   4.423  0.2405 -0.3555 -1.8792
31176SOL    HW294107   6.449   9.213   4.406  0.8951  0.0308  1.0687
31177SOL     OW94108   6.897   8.164   0.045  0.1910  0.1054 -0.6909
31177SOL    HW194109   6.837   8.199   0.110  1.3488 -1.3522  1.2786
31177SOL    HW294110   6.841   8.132  -0.026 -1.2355  0.2771  0.3298
31178SOL     OW94111   3.011   9.010   1.512  0.4503  0.4222  0.6710
31178SOL    HW194112   3.018   9.017   1.607  0.7770 -0.2536  0.7015
31178SOL    HW294113   3.065   8.934   1.489 -0.9809 -0.4531  0.1210
31179SOL     OW94114   6.036   4.274   2.341 -0.3860 -0.2326 -0.0564
31179SOL    HW194115   6.053   4.307   2.252 -2.4418  0.1462 -0.3643
31179SOL    HW294116   6.037   4.352   2.396 -0.7002 -0.2498 -0.0239
31180SOL     OW94117   7.513   0.580   0.423  0.5424  0.0533  0.1733
31180SOL    HW194118   7.588   0.566   0.481 -0.1396  1.5686  1.4876
31180SOL    HW294119   7.438   0.584   0.482 -0.2780  0.9380 -0.8990
31181SOL     OW94120   9.314   2.911   5.204  0.3302 -0.3625  0.3982
31181SOL    HW194121   9.388   2.955   5.247 -0.2844  2.2464 -0.9701
31181SOL    HW294122   9.247   2.906   5.272  1.1714 -1.2655  1.1938
31182SOL     OW94123   6.939   7.436   7.542  0.2251  0.2810 -0.1870
31182SOL    HW194124   6.922   7.355   7.494  0.0378  1.0936 -1.5378
31182SOL    HW294125   7.028   7.425   7.577 -0.3766 -1.1388  1.0256
31183SOL     OW94126   8.716   4.522   6.150 -0.6937  0.3984  0.3218
31183SOL    HW194127   8.647   4.514   6.084 -1.7242 -0.6189  1.4526
31183SOL    HW294128   8.703   4.446   6.207  1.6884 -0.0756  0.3110
31184SOL     OW94129   7.811   3.185   8.395 -0.1259  0.7337  0.2271
31184SOL    HW194130   7.745   3.188   8.325 -0.1992  1.8744  0.3223
31184SOL    HW294131   7.849   3.098   8.389 -2.2232 -0.2743  0.7142
31185SOL     OW94132   1.811   2.616   5.904 -0.1828  1.1042 -0.5884
31185SOL    HW194133   1.822   2.710   5.891 -3.7960  1.8055  0.5699
31185SOL    HW294134   1.724   2.596   5.869 -0.9197 -1.1231  2.1509
31186SOL     OW94135   0.909   1.165   9.497 -0.0694 -0.4403 -0.8868
31186SOL    HW194136   0.859   1.240   9.530  2.1921  0.7682  0.0178
31186SOL    HW294137   0.858   1.088   9.524 -1.5606  0.7271 -0.2775
31187SOL     OW94138   3.486   2.045   8.930 -0.3331 -0.1387  0.7931
31187SOL    HW194139   3.532   2.101   8.867 -0.9776  0.3825  0.7693
31187SOL    HW294140   3.544   1.970   8.943 -0.7281 -0.8741 -1.3718
31188SOL     OW94141   0.667   1.375   3.182 -0.3920  0.0993  0.5103
31188SOL    HW194142   0.691   1.406   3.095  0.2759 -0.5740  0.4484
31188SOL    HW294143   0.575   1.348   3.173  0.1900 -1.7271 -0.4955
31189SOL     OW94144   0.933   0.040   0.876  0.5222  0.3543  0.1462
31189SOL    HW194145   0.857   0.033   0.818 -0.0397 -1.6612  1.0113
31189SOL    HW294146   1.003  -0.006   0.830  1.0227  1.4916 -0.2787
31190SOL     OW94147   6.301   0.496   7.430 -0.2329 -0.2366  0.2797
31190SOL    HW194148   6.244   0.561   7.472  2.6754  2.0283  1.0468
31190SOL    HW294149   6.389   0.534   7.437  1.1558 -2.5986 -2.5767
31191SOL     OW94150   9.366   6.841   5.594  0.6250  0.1207  0.0271
31191SOL    HW194151   9.454   6.856   5.559 -0.0200 -0.1104 -1.8575
31191SOL    HW294152   9.318   6.921   5.573  0.3704  0.2520  1.0543
31192SOL     OW94153   1.671   0.235   8.876 -0.1003  0.1776 -0.2265
31192SOL    HW194154   1.590   0.267   8.916 -0.8849 -2.1516  0.1807
31192SOL    HW294155   1.653   0.236   8.782  0.5344  2.4423 -0.3995
31193SOL     OW94156   4.242   1.211   1.868 -0.2675  0.2904 -0.1793
31193SOL    HW194157   4.289   1.136   1.830 -0.7758  0.0443 -0.3295
31193SOL    HW294158   4.191   1.246   1.796 -3.3528 -1.8077  0.7842
31194SOL     OW94159   3.293   3.581   1.566  0.3931  0.4258 -0.3618
31194SOL    HW194160   3.232   3.550   1.499 -0.8664  0.5580  0.6760
31194SOL    HW294161   3.380   3.568   1.528 -0.1634 -1.9988 -0.9631
31195SOL     OW94162   0.100   4.509   2.922 -0.4879  0.3169 -0.4230
31195SOL    HW194163   0.046   4.559   2.860  2.5412  0.2443 -3.3875
31195SOL    HW294164   0.063   4.421   2.920 -1.6993  0.8039 -0.4665
31196SOL     OW94165   7.195   7.340   5.892 -0.1828  0.2845 -0.4431
31196SOL    HW194166   7.126   7.380   5.944  0.2931  0.2434  0.2369
31196SOL    HW294167   7.164   7.251   5.875 -0.4352  0.3635 -0.3997
31197SOL     OW94168   6.171   3.594   7.624 -0.7594  0.3753 -0.1620
31197SOL    HW194169   6.090   3.620   7.579 -1.7331 -0.8652  0.7782
31197SOL    HW294170   6.143   3.573   7.713  0.1320 -2.3027 -0.4050
31198SOL     OW94171   4.270   2.865   3.352 -0.7374 -0.1764 -0.2231
31198SOL    HW194172   4.335   2.801   3.325 -1.7053 -0.5135 -1.8649
31198SOL    HW294173   4.290   2.943   3.300 -0.3867  0.4326  0.7922
31199SOL     OW94174   6.646   1.139   1.788  0.0876 -0.1221 -0.0752
31199SOL    HW194175   6.577   1.087   1.829 -1.2970  0.4648 -1.5674
31199SOL    HW294176   6.692   1.077   1.731  1.1605 -0.6192  1.2450
31200SOL     OW94177   8.082   3.601   4.595 -0.0673 -0.1339 -0.4281
31200SOL    HW194178   8.076   3.673   4.533 -1.5386 -0.8044 -1.1229
31200SOL    HW294179   8.011   3.617   4.658 -0.7436 -1.2066 -0.8815
31201SOL     OW94180   8.171   5.404   5.010  0.5731 -0.5705 -0.0361
31201SOL    HW194181   8.202   5.489   5.043  0.9373 -0.7785  0.1678
31201SOL    HW294182   8.097   5.426   4.953  1.3918 -0.0276 -0.9182
31202SOL     OW94183   9.852   2.028   3.691 -0.1517  0.5240 -0.0457
31202SOL    HW194184   9.923   1.983   3.736 -0.6931  0.6446  0.9631
31202SOL    HW294185   9.892   2.063   3.612  0.7013 -0.1563  0.0722
31203SOL     OW94186   1.286   2.648   5.998  0.0323 -0.6974  0.5360
31203SOL    HW194187   1.292   2.617   5.907  1.1381  0.4647  0.1724
31203SOL    HW294188   1.193   2.645   6.018 -0.4740  0.6611 -1.2758
31204SOL     OW94189   5.011   1.129   0.852 -0.7601  0.2822  0.0108
31204SOL    HW194190   5.041   1.083   0.773 -1.2034 -0.2576  0.1511
31204SOL    HW294191   5.089   1.175   0.884 -0.0858 -1.0056  0.3107
31205SOL     OW94192   3.075   5.595   5.603 -0.1950  0.3172  0.3666
31205SOL    HW194193   3.132   5.542   5.658 -1.3119 -0.2977  0.9807
31205SOL    HW294194   3.003   5.620   5.661 -1.4345 -0.4033 -0.7931
31206SOL     OW94195   1.555   6.600   9.800  0.8263  0.1458  0.1896
31206SOL    HW194196   1.607   6.665   9.847  1.7435 -0.8694  0.6202
31206SOL    HW294197   1.581   6.610   9.708  1.5296 -0.1245  0.3596
31207SOL     OW94198   7.818   3.381   4.161  0.2442 -0.0879  0.1229
31207SOL    HW194199   7.867   3.440   4.218 -1.8962 -0.9391  3.1000
31207SOL    HW294200   7.865   3.298   4.165 -0.0096 -0.2021  0.8760
31208SOL     OW94201   1.063   5.158   0.434  0.2977 -0.0204  0.2631
31208SOL    HW194202   1.146   5.189   0.468 -0.5053 -0.9551  3.4083
31208SOL    HW294203   1.033   5.227   0.375  1.6094  2.0285  1.8837
31209SOL     OW94204   7.754   4.754   1.180  0.1637 -0.2674  0.4370
31209SOL    HW194205   7.754   4.678   1.239  0.4543 -0.4281  0.2296
31209SOL    HW294206   7.813   4.729   1.109  1.3224  0.6594  1.0270
31210SOL     OW94207   4.803   9.359   1.740  0.8508 -0.6205 -0.0033
31210SOL    HW194208   4.710   9.349   1.760  1.4742 -0.7759  3.4313
31210SOL    HW294209   4.841   9.273   1.760  1.7634 -0.5733 -1.4186
31211SOL     OW94210   0.628   6.273   0.782 -0.2841  0.1763  0.1531
31211SOL    HW194211   0.584   6.294   0.700 -1.1602 -2.5452 -0.1752
31211SOL    HW294212   0.565   6.295   0.850 -0.4097  0.3908 -0.0310
31212SOL     OW94213   5.397   4.284   4.381 -0.4684  0.0894  0.2429
31212SOL    HW194214   5.423   4.203   4.338  0.0076 -0.1144  0.9039
31212SOL    HW294215   5.381   4.345   4.310 -0.6900 -0.5386 -0.2574
31213SOL     OW94216   3.002   5.876   0.086 -0.0228 -0.2278 -0.3704
31213SOL    HW194217   2.909   5.858   0.074  0.1916 -1.5898 -0.1935
31213SOL    HW294218   3.029   5.817   0.157  0.4521  1.9118  1.3352
31214SOL     OW94219   2.457   3.384   4.025  0.5066 -0.3058 -0.5187
31214SOL    HW194220   2.477   3.358   4.115  0.4908  0.1843 -0.3703
31214SOL    HW294221   2.470   3.479   4.025 -1.0707 -0.0772 -0.6226
31215SOL     OW94222   6.916   4.425   1.687  1.1410  0.0844 -0.2696
31215SOL    HW194223   6.930   4.420   1.782 -0.5073 -0.3248 -0.0156
31215SOL    HW294224   6.825   4.396   1.675  1.1451  0.6779 -1.9254
31216SOL     OW94225   8.894   1.775   9.763 -0.1118  0.3954 -0.1094
31216SOL    HW194226   8.853   1.861   9.776  0.5664  0.7264 -0.1254
31216SOL    HW294227   8.823   1.713   9.776 -0.4710  0.9304  0.5731
31217SOL     OW94228   3.406   1.582   9.446 -0.3544 -0.4854 -0.1755
31217SOL    HW194229   3.311   1.587   9.460 -0.4026 -1.2628 -0.2077
31217SOL    HW294230   3.438   1.667   9.476 -0.7425 -1.1651  2.4454
31218SOL     OW94231   0.756   8.392   1.040 -0.9968  0.3778 -0.2635
31218SOL    HW194232   0.661   8.402   1.031 -1.2749 -1.5921  0.0285
31218SOL    HW294233   0.781   8.339   0.965 -0.0146  1.2875 -0.6037
31219SOL     OW94234   0.951   6.632   1.608  0.3173  0.4585  0.6997
31219SOL    HW194235   0.961   6.539   1.631  1.6205  0.2373 -0.6713
31219SOL    HW294236   1.034   6.672   1.632  0.3567  0.9371 -0.1935
31220SOL     OW94237   1.489   5.155   4.189 -0.0582 -0.6817  0.6756
31220SOL    HW194238   1.517   5.092   4.122 -2.7081 -2.0811  0.7669
31220SOL    HW294239   1.404   5.187   4.159 -0.4937 -0.0025  2.4926
31221SOL     OW94240   8.168   8.754   9.085 -0.1467 -0.7621 -0.0098
31221SOL    HW194241   8.107   8.759   9.012  0.0839  2.5671 -0.0969
31221SOL    HW294242   8.115   8.774   9.162  0.4480  0.2894  0.1410
31222SOL     OW94243   7.144   1.917   2.591  0.7250 -0.0395  0.1443
31222SOL    HW194244   7.065   1.936   2.642 -0.6441 -0.9108 -1.5484
31222SOL    HW294245   7.118   1.931   2.500  2.7422  0.3225 -0.4243
31223SOL     OW94246   8.070   2.074   2.427 -0.3743 -0.4446  0.6699
31223SOL    HW194247   8.036   2.137   2.491 -2.6229 -0.4637 -0.3962
31223SOL    HW294248   8.164   2.091   2.423 -0.9779  3.6325 -0.3729
31224SOL     OW94249   0.444   2.769   6.723 -0.1381 -0.5353 -0.0443
31224SOL    HW194250   0.426   2.684   6.682  2.7284 -2.0644  1.5327
31224SOL    HW294251   0.403   2.763   6.809  1.2262 -0.9574  0.6070
31225SOL     OW94252   6.620   6.661   8.163  0.0749  0.3145 -0.7143
31225SOL    HW194253   6.681   6.682   8.093  1.3861 -0.4864  0.1325
31225SOL    HW294254   6.626   6.566   8.172  0.0421  0.4118  0.5540
31226SOL     OW94255   2.582   4.954   0.300  0.7181  0.2268  0.1727
31226SOL    HW194256   2.598   4.938   0.207  0.0567  3.3553 -0.5938
31226SOL    HW294257   2.620   4.878   0.344  2.4358 -0.6391 -2.5310
31227SOL     OW94258   6.952   0.979   2.302  0.1738 -0.2702 -0.0779
31227SOL    HW194259   6.977   0.937   2.384 -0.3709 -0.5521 -0.0519
31227SOL    HW294260   6.964   1.073   2.318  0.1273 -0.3281  0.2982
31228SOL     OW94261   5.861   6.688   0.096 -0.1688 -0.7649 -0.2618
31228SOL    HW194262   5.842   6.676   0.003 -0.0437 -0.3757 -0.3421
31228SOL    HW294263   5.784   6.652   0.141 -0.6173 -0.1932 -0.5483
31229SOL     OW94264   4.906   5.420   5.298  0.1331  0.3257 -0.6738
31229SOL    HW194265   4.873   5.358   5.233 -0.9755  0.8336 -0.6225
31229SOL    HW294266   4.862   5.503   5.276 -0.5483  0.4280  0.9150
31230SOL     OW94267   8.038   7.409   3.484  0.1435  0.5266 -0.0540
31230SOL    HW194268   7.983   7.385   3.558 -1.4570 -1.1193 -1.6897
31230SOL    HW294269   8.106   7.341   3.482 -0.7430 -0.3555 -0.9977
31231SOL     OW94270   4.019   2.614   1.065 -0.0302  0.0020 -0.4220
31231SOL    HW194271   4.068   2.662   0.999  0.1856 -0.1536 -0.3774
31231SOL    HW294272   3.930   2.611   1.032 -0.2814  1.3610  0.0805
31232SOL     OW94273   2.479   7.889   8.352 -0.2703 -0.5673 -0.0311
31232SOL    HW194274   2.393   7.865   8.387 -0.2337 -0.9522 -0.2002
31232SOL    HW294275   2.541   7.863   8.420 -0.0644 -2.7347 -0.9812
31233SOL     OW94276   3.083   0.129   1.630 -0.4263 -0.2787 -0.2766
31233SOL    HW194277   3.033   0.197   1.675 -0.7995 -0.3466 -0.5926
31233SOL    HW294278   3.125   0.174   1.557 -0.4134 -0.3256 -0.2978
31234SOL     OW94279   2.759   4.492   8.139 -0.4972  0.1818  0.3025
31234SOL    HW194280   2.827   4.478   8.072 -1.6234  0.9763 -1.0506
31234SOL    HW294281   2.752   4.407   8.183  1.2594  0.0389  0.3867
31235SOL     OW94282   4.919   5.396   0.894  0.2012  0.1898  0.8179
31235SOL    HW194283   4.974   5.474   0.902 -0.3433  0.7926 -0.8407
31235SOL    HW294284   4.946   5.355   0.812  1.3525 -2.1328  2.2570
31236SOL     OW94285   5.519   0.043   2.666  0.7392  0.4498  0.4510
31236SOL    HW194286   5.563   0.128   2.660  0.2278  0.7094  0.1933
31236SOL    HW294287   5.451   0.048   2.598 -0.0230  0.2730  1.1914
31237SOL     OW94288   5.726   6.748   2.099  0.6783  0.0831 -0.1937
31237SOL    HW194289   5.674   6.704   2.166 -0.0800 -0.2290 -0.9670
31237SOL    HW294290   5.789   6.681   2.070  0.5150 -0.0161 -0.3179
31238SOL     OW94291   7.233   1.139   7.019  0.1996  0.2202  0.4912
31238SOL    HW194292   7.188   1.178   7.094 -1.9868 -0.2293 -0.4984
31238SOL    HW294293   7.239   1.046   7.041  0.6257  0.2781  0.6161
31239SOL     OW94294   6.007   7.396   9.332  0.1167 -0.4392 -0.2288
31239SOL    HW194295   6.005   7.479   9.379 -0.4214 -0.3151 -0.4579
31239SOL    HW294296   5.962   7.415   9.249  1.3092 -0.5723 -0.9303
31240SOL     OW94297   8.605   1.145   6.765 -0.3000  0.6463 -0.4169
31240SOL    HW194298   8.557   1.183   6.839  0.2971 -0.3035  0.4947
31240SOL    HW294299   8.540   1.097   6.715 -0.1338 -2.2056  1.8210
31241SOL     OW94300   7.517   0.120   6.993 -0.3772 -0.0256 -0.1141
31241SOL    HW194301   7.536   0.065   6.917 -0.9850  0.3371 -0.5322
31241SOL    HW294302   7.527   0.061   7.068  0.3533 -0.3532 -0.4532
31242SOL     OW94303   4.985   2.285   7.239 -0.1973  0.1391  0.1437
31242SOL    HW194304   5.043   2.281   7.315  0.0194  0.3737 -0.0082
31242SOL    HW294305   4.939   2.201   7.239  1.3133 -0.7373 -0.6716
31243SOL     OW94306   5.720   4.028   2.626  0.5282 -0.7549 -0.0108
31243SOL    HW194307   5.783   4.055   2.560 -0.1810 -2.8079 -1.6306
31243SOL    HW294308   5.642   4.001   2.577 -2.0696  2.3871  1.9129
31244SOL     OW94309   3.621   4.207   1.050  0.4768 -0.5954  0.4167
31244SOL    HW194310   3.595   4.126   1.006  0.4670 -0.3781  0.0144
31244SOL    HW294311   3.654   4.263   0.979  0.7443 -0.3531  0.7280
31245SOL     OW94312   6.234   4.951   1.377 -0.4221 -0.0425 -0.0593
31245SOL    HW194313   6.157   4.957   1.433  0.1636  1.9152  0.6466
31245SOL    HW294314   6.303   4.996   1.426  0.9768 -1.0660 -0.9950
31246SOL     OW94315   8.800   8.590   1.613 -0.0014 -0.1838 -0.0083
31246SOL    HW194316   8.757   8.671   1.584 -1.4208 -0.6957  0.5636
31246SOL    HW294317   8.728   8.527   1.622  0.7463 -0.8223  1.9171
31247SOL     OW94318   4.448   5.213   3.004 -0.2554  0.3093 -0.5411
31247SOL    HW194319   4.474   5.280   3.067 -2.3205  0.3635  0.3237
31247SOL    HW294320   4.394   5.260   2.940 -1.4529 -0.4310 -0.1036
31248SOL     OW94321   4.645   1.673   2.459 -0.2563  0.6759  0.2853
31248SOL    HW194322   4.653   1.746   2.398 -1.9461  1.3083  0.7838
31248SOL    HW294323   4.597   1.606   2.411  1.1119 -0.0829 -0.1007
31249SOL     OW94324   0.549   0.664   7.008 -0.4215 -0.1175 -0.1078
31249SOL    HW194325   0.577   0.704   6.926  1.5013  0.5640  0.8059
31249SOL    HW294326   0.533   0.739   7.066  1.6482 -0.5718  1.1425
31250SOL     OW94327   9.279   0.537   0.560  0.2155  0.1771  0.1872
31250SOL    HW194328   9.208   0.496   0.609 -0.3863  0.6738 -0.2543
31250SOL    HW294329   9.336   0.576   0.627  0.4439 -0.7986  0.5748
31251SOL     OW94330   1.397   7.759   2.345  0.1783  0.1414  0.3563
31251SOL    HW194331   1.347   7.684   2.314 -2.3410  1.3273  1.2511
31251SOL    HW294332   1.401   7.747   2.440  0.8866  0.5006  0.3773
31252SOL     OW94333   2.891   1.415   0.472 -0.1843 -0.2723 -0.3744
31252SOL    HW194334   2.934   1.448   0.394 -0.9021 -2.2911 -1.7307
31252SOL    HW294335   2.888   1.489   0.532  1.3207  1.0605 -1.8522
31253SOL     OW94336   1.558   4.099   5.599  0.2755  0.0661  0.1843
31253SOL    HW194337   1.559   4.099   5.695  1.1055 -0.6698  0.1952
31253SOL    HW294338   1.469   4.074   5.576  0.6130 -1.9336  0.8139
31254SOL     OW94339   5.210   6.313   5.219  0.7000  0.1432  0.1651
31254SOL    HW194340   5.183   6.323   5.128 -0.4880 -0.6644  0.4070
31254SOL    HW294341   5.149   6.249   5.256  0.9626  0.6806  1.6119
31255SOL     OW94342   5.435   7.365   8.370 -0.2296 -0.0002 -1.1229
31255SOL    HW194343   5.519   7.404   8.394 -0.3251  0.1241 -0.9920
31255SOL    HW294344   5.439   7.357   8.274  0.6589 -1.6458 -0.9858
31256SOL     OW94345   4.308   3.796   3.871 -0.3883 -0.3941  0.1102
31256SOL    HW194346   4.360   3.753   3.804  1.8561  0.8931  0.9000
31256SOL    HW294347   4.218   3.769   3.854  0.2145 -0.8009 -2.8306
31257SOL     OW94348   2.000   0.515   2.427 -0.5026  0.1261  0.3055
31257SOL    HW194349   2.091   0.524   2.398 -0.6064 -0.0207 -0.0794
31257SOL    HW294350   1.958   0.596   2.399 -0.6046 -0.0178  0.0398
31258SOL     OW94351   0.580   1.447   4.285 -0.3816 -0.6970 -0.0583
31258SOL    HW194352   0.570   1.352   4.279 -0.2881 -0.6236 -2.3763
31258SOL    HW294353   0.545   1.470   4.371 -1.8909 -2.6383 -0.0979
31259SOL     OW94354   2.340   8.704   7.789 -0.3647  0.1746 -0.0832
31259SOL    HW194355   2.274   8.734   7.851 -1.1239  1.1609 -1.3028
31259SOL    HW294356   2.298   8.714   7.703  0.2566 -2.1236 -0.7207
31260SOL     OW94357   1.478   5.998   5.555 -0.0785 -0.1974  0.4941
31260SOL    HW194358   1.528   5.958   5.484 -1.0113  1.0168 -0.9235
31260SOL    HW294359   1.391   6.011   5.518 -0.2138  1.7581  1.3508
31261SOL     OW94360   1.503   3.834   9.306 -0.1456 -0.1509  0.2680
31261SOL    HW194361   1.547   3.819   9.223 -3.1316 -1.5722 -1.1915
31261SOL    HW294362   1.526   3.758   9.360  0.3223 -0.1407  0.0920
31262SOL     OW94363   2.852   8.294   8.457  0.4979  0.0752  0.8735
31262SOL    HW194364   2.937   8.269   8.420  0.2131 -0.2689  0.4358
31262SOL    HW294365   2.863   8.285   8.551  1.4372  1.5692  0.9493
31263SOL     OW94366   7.584   7.074   9.741 -0.1566  0.6508 -0.2916
31263SOL    HW194367   7.653   7.101   9.680 -0.5362  0.5887 -0.7594
31263SOL    HW294368   7.623   7.083   9.828  0.3729  0.8047 -0.5422
31264SOL     OW94369   6.926   0.159   6.396  0.5175 -0.8050 -0.2659
31264SOL    HW194370   6.956   0.236   6.348 -0.7784  0.3561  0.7113
31264SOL    HW294371   6.996   0.141   6.458  1.0779 -0.7757 -0.8752
31265SOL     OW94372  -0.001   8.692   7.675  0.2253  0.5564  0.6080
31265SOL    HW194373  -0.031   8.765   7.621 -1.0193 -0.0105  0.4899
31265SOL    HW294374   0.092   8.710   7.691  0.3179  1.3643 -0.6968
31266SOL     OW94375   5.087   6.918   6.334  0.4282 -0.6138  0.2366
31266SOL    HW194376   5.101   7.008   6.305 -1.8533 -0.4037 -0.4382
31266SOL    HW294377   5.132   6.912   6.418  1.4959  0.8201 -0.1989
31267SOL     OW94378   8.277   8.930   8.030  0.2946 -0.4847  0.0452
31267SOL    HW194379   8.325   8.944   8.111 -0.3194  0.9730  0.1753
31267SOL    HW294380   8.340   8.950   7.961  0.3336 -0.0847  0.1939
31268SOL     OW94381   1.117   7.380   4.402 -0.7057 -0.0896 -0.0714
31268SOL    HW194382   1.045   7.351   4.459  0.4876  1.9966  2.7742
31268SOL    HW294383   1.077   7.445   4.344 -1.6750 -1.1477 -0.6257
31269SOL     OW94384   8.848   4.608   9.821 -0.2654  0.3635  0.5111
31269SOL    HW194385   8.914   4.615   9.752 -1.6773  1.2862 -0.7818
31269SOL    HW294386   8.810   4.521   9.808 -0.4897  0.5126  0.1533
31270SOL     OW94387   9.851   3.082   5.247 -0.6416 -0.1736 -0.8672
31270SOL    HW194388   9.946   3.087   5.239 -0.5078  1.2441  0.8978
31270SOL    HW294389   9.833   2.990   5.263  0.4949 -0.3886 -0.7526
31271SOL     OW94390   9.784   1.291   2.575 -0.3265  0.1592 -0.3240
31271SOL    HW194391   9.816   1.236   2.504 -1.7717 -0.7925 -0.2687
31271SOL    HW294392   9.795   1.237   2.654  0.4970  0.8903  0.0783
31272SOL     OW94393   3.740   0.866   2.770 -0.2936  0.7631  0.1063
31272SOL    HW194394   3.719   0.854   2.677  1.1975 -0.4630 -0.1077
31272SOL    HW294395   3.682   0.937   2.798 -1.2644  0.7004 -1.5775
31273SOL     OW94396   0.246   5.089   1.981  0.0669 -0.0408  0.4576
31273SOL    HW194397   0.195   5.030   2.036 -1.1174 -0.4852 -1.0303
31273SOL    HW294398   0.282   5.033   1.912  1.4154  0.5140  0.6808
31274SOL     OW94399   4.643   4.278   1.057 -0.3353 -0.5606  0.0847
31274SOL    HW194400   4.600   4.350   1.011  0.4327 -1.1955 -1.7324
31274SOL    HW294401   4.725   4.265   1.010 -0.0963 -2.0917  0.8587
31275SOL     OW94402   9.047   0.983   4.967  0.2528  0.3844 -0.3728
31275SOL    HW194403   9.126   0.931   4.973 -0.8519 -1.1979  1.3808
31275SOL    HW294404   9.031   1.014   5.056 -0.5831  1.5040 -0.8853
31276SOL     OW94405   2.976   0.366   9.344  0.2670 -0.6452  0.5655
31276SOL    HW194406   3.052   0.313   9.317 -0.4307 -1.2867 -0.1762
31276SOL    HW294407   2.970   0.434   9.277 -1.1473 -1.9258 -0.6674
31277SOL     OW94408   9.836   3.804   6.092  0.1868 -0.8451 -0.4586
31277SOL    HW194409   9.908   3.866   6.080  0.8631 -1.4091  0.5800
31277SOL    HW294410   9.760   3.849   6.054  0.8899  0.1319 -0.7618
31278SOL     OW94411   6.830   6.845   5.930 -0.3063  0.2773 -0.0725
31278SOL    HW194412   6.841   6.889   5.846 -0.1862  0.5860  0.1039
31278SOL    HW294413   6.766   6.776   5.913 -0.7385  0.7218 -0.2778
31279SOL     OW94414   9.298   9.817   1.166  0.8905 -0.3509  0.7894
31279SOL    HW194415   9.303   9.736   1.218 -1.0459 -1.3117 -0.4138
31279SOL    HW294416   9.214   9.812   1.121  2.0432  0.8631 -1.7372
31280SOL     OW94417   7.673   1.330   4.771 -0.2420 -0.2475 -0.8515
31280SOL    HW194418   7.731   1.256   4.752  0.7995  0.5171 -0.7213
31280SOL    HW294419   7.665   1.331   4.866 -2.0098 -1.4724 -0.9307
31281SOL     OW94420   6.932   7.709   2.432  0.5511 -0.1536  0.3008
31281SOL    HW194421   6.970   7.784   2.478 -1.5226  3.4365 -3.1537
31281SOL    HW294422   6.850   7.691   2.478  0.3819  0.7332  0.3602
31282SOL     OW94423   2.495   8.318   3.488 -0.4829  0.0357  0.2352
31282SOL    HW194424   2.586   8.291   3.501  0.1052  1.8642  0.0924
31282SOL    HW294425   2.446   8.269   3.555  0.7020 -0.3576  0.8476
31283SOL     OW94426   0.995   9.873   0.218 -0.1123 -0.3798 -0.1755
31283SOL    HW194427   1.009   9.851   0.310  0.3088  1.1142  0.1553
31283SOL    HW294428   0.989   9.969   0.218 -3.9694 -0.4901 -1.2055
31284SOL     OW94429   7.671   6.368   0.263  0.1854  0.0857  0.1349
31284SOL    HW194430   7.618   6.447   0.272  0.8078  0.8351 -2.1215
31284SOL    HW294431   7.739   6.376   0.329  1.9770  2.9859 -1.8507
31285SOL     OW94432   4.136  -0.018   0.309  0.4004 -0.4524 -0.0697
31285SOL    HW194433   4.096   0.069   0.317  0.8755 -0.1314 -1.0867
31285SOL    HW294434   4.150  -0.030   0.215 -1.7917 -2.6204 -0.2211
31286SOL     OW94435   8.393   5.054   0.890 -0.2814 -0.2652  0.5529
31286SOL    HW194436   8.460   5.122   0.894  0.3185 -0.8244  0.1380
31286SOL    HW294437   8.336   5.081   0.818 -0.6147  0.3037  1.0218
31287SOL     OW94438   7.941   9.250   9.684  0.7668 -0.2826  0.5954
31287SOL    HW194439   7.882   9.245   9.759 -1.0683 -1.5024 -0.8392
31287SOL    HW294440   8.005   9.316   9.709 -0.2051 -0.1072  2.9179
31288SOL     OW94441   2.744   4.701   0.326 -0.1111  0.5279  0.2647
31288SOL    HW194442   2.817   4.759   0.303  0.9894 -0.9980 -0.1949
31288SOL    HW294443   2.782   4.613   0.326 -2.1200 -0.3978 -0.7942
31289SOL     OW94444   7.098   8.147   8.177  0.4709  0.6901  0.1349
31289SOL    HW194445   7.015   8.190   8.198  1.4052  2.5045  0.3262
31289SOL    HW294446   7.094   8.132   8.083  0.0854  1.1375  0.0763
31290SOL     OW94447   3.413   7.725   5.004 -0.0365 -0.2412  0.0299
31290SOL    HW194448   3.419   7.672   5.083 -0.6171  1.8932  1.5866
31290SOL    HW294449   3.319   7.737   4.990  0.0780 -0.0677 -0.6110
31291SOL     OW94450   9.420   2.823   9.101  0.1374  0.4684  0.3201
31291SOL    HW194451   9.376   2.776   9.029 -1.6798  1.7321  0.5394
31291SOL    HW294452   9.407   2.916   9.080  0.5830  0.8604  1.7010
31292SOL     OW94453   6.838   2.698   8.952  0.3603  0.5251 -0.0158
31292SOL    HW194454   6.925   2.729   8.979  1.1191 -1.6123  0.2174
31292SOL    HW294455   6.855   2.617   8.904 -1.5793 -1.0161  1.6927
31293SOL     OW94456   2.275   8.178   0.128  0.4501  0.4630  0.1172
31293SOL    HW194457   2.360   8.141   0.105 -0.2204  0.3807 -2.5677
31293SOL    HW294458   2.211   8.111   0.104 -0.5213  1.6771 -0.8811
31294SOL     OW94459   0.292   0.983   4.644  0.3148  0.3224  0.1932
31294SOL    HW194460   0.204   0.969   4.611  0.1493  0.9410  0.3675
31294SOL    HW294461   0.281   1.005   4.736  0.4553  2.6686 -0.2900
31295SOL     OW94462   3.310   1.734   6.253 -0.0009 -0.1909  0.5065
31295SOL    HW194463   3.342   1.813   6.209 -1.3048 -1.2893 -2.6854
31295SOL    HW294464   3.383   1.673   6.247 -0.6793 -0.8596 -1.7355
31296SOL     OW94465   1.925   8.589   8.936  0.8314 -0.5893 -0.3564
31296SOL    HW194466   1.848   8.619   8.887  0.2919  0.2193  0.9312
31296SOL    HW294467   1.934   8.497   8.913  0.5739 -0.2460 -1.9293
31297SOL     OW94468   7.892   8.801   5.101  0.2566 -0.2691 -0.5318
31297SOL    HW194469   7.873   8.829   5.011  0.3592  1.0647 -0.1700
31297SOL    HW294470   7.836   8.857   5.155  1.5054  0.2161  0.3150
31298SOL     OW94471   4.195   6.643   5.519  0.2777 -0.4841 -0.0629
31298SOL    HW194472   4.107   6.626   5.483 -0.6247 -0.1105  1.8296
31298SOL    HW294473   4.187   6.728   5.560  1.9767  0.1886 -1.0522
31299SOL     OW94474   2.121   1.519   4.730  0.6606 -0.2105  0.2228
31299SOL    HW194475   2.045   1.551   4.778 -0.2668 -0.0814 -1.2792
31299SOL    HW294476   2.179   1.484   4.798 -0.2445  0.6682  1.4942
31300SOL     OW94477   2.578   5.029   3.621 -0.2244 -0.0491 -0.3626
31300SOL    HW194478   2.647   4.966   3.642 -0.1563 -0.4124 -1.5581
31300SOL    HW294479   2.616   5.085   3.554 -1.0191 -0.1501 -0.9184
31301SOL     OW94480   0.250   2.562   8.069 -0.1520 -0.2825 -0.2204
31301SOL    HW194481   0.220   2.492   8.012 -0.4255 -0.0484 -0.3635
31301SOL    HW294482   0.339   2.582   8.039 -1.3105  1.8720 -2.5416
31302SOL     OW94483   0.007   3.591   9.902  0.1146  0.1435  0.3333
31302SOL    HW194484   0.050   3.551   9.827 -1.9929 -2.4366  0.3483
31302SOL    HW294485   0.014   3.526   9.972  0.4186  1.7075  1.8215
31303SOL     OW94486   2.019   3.878   2.974 -0.1126  0.1321  0.3844
31303SOL    HW194487   2.088   3.839   3.027  0.8229  3.1979  1.6657
31303SOL    HW294488   1.945   3.886   3.035  0.0678  1.2625  0.4662
31304SOL     OW94489   9.510   4.629   5.141 -0.1528 -0.2813  0.1395
31304SOL    HW194490   9.499   4.535   5.153 -0.1365 -0.2693  0.2501
31304SOL    HW294491   9.603   4.640   5.123  0.5172  0.0063  3.1464
31305SOL     OW94492   2.855   0.421   2.160 -0.1606 -0.7083 -0.1356
31305SOL    HW194493   2.890   0.465   2.237 -0.6426  1.5735 -1.1298
31305SOL    HW294494   2.921   0.434   2.092 -0.5963 -0.9903 -0.6244
31306SOL     OW94495   4.201   2.104   2.481  0.8380 -0.1970  0.1875
31306SOL    HW194496   4.244   2.043   2.540  1.6131 -0.5222 -0.6873
31306SOL    HW294497   4.152   2.049   2.420 -1.4925  0.1705  1.5762
31307SOL     OW94498   8.359   1.853   7.956  0.5315  0.3059  0.1918
31307SOL    HW194499   8.311   1.897   8.027 -1.0385 -1.2349  0.1496
31307SOL    HW294500   8.297   1.849   7.883  0.5508 -1.9596  0.2102
31308SOL     OW94501   0.203   0.154   7.192 -0.1203  0.0616  0.0907
31308SOL    HW194502   0.242   0.216   7.254  1.0860  0.4867 -1.0573
31308SOL    HW294503   0.241   0.069   7.217  1.2404  0.3991 -0.7188
31309SOL     OW94504   0.151   1.046   2.989 -0.0641 -0.2274  0.8930
31309SOL    HW194505   0.092   0.973   3.010 -0.3680 -0.6857 -1.3141
31309SOL    HW294506   0.237   1.005   2.979 -0.3360 -0.4321 -0.9142
31310SOL     OW94507   5.676   2.699   9.144 -0.1600 -0.0304 -0.2534
31310SOL    HW194508   5.705   2.773   9.198 -1.4965  1.2618 -1.2199
31310SOL    HW294509   5.718   2.623   9.183  0.4895  1.1107  1.3866
31311SOL     OW94510   1.857   2.550   0.190 -0.7882 -0.1773 -0.3768
31311SOL    HW194511   1.910   2.592   0.258 -0.8767 -1.4998  0.5406
31311SOL    HW294512   1.839   2.620   0.128 -1.1257  1.2187  1.2091
31312SOL     OW94513   5.417   7.893   4.352 -0.2758 -0.3083 -0.6008
31312SOL    HW194514   5.497   7.913   4.401 -0.5932  2.0574 -0.9374
31312SOL    HW294515   5.445   7.894   4.260 -0.1827 -2.2881 -0.6431
31313SOL     OW94516   3.534   9.312   7.191  0.1088  0.2375  0.0247
31313SOL    HW194517   3.562   9.233   7.237  1.8230  2.0534  2.3243
31313SOL    HW294518   3.614   9.347   7.153 -0.7276  0.6233 -1.4773
31314SOL     OW94519   7.677   0.313   0.539 -0.8029 -0.1761  0.2004
31314SOL    HW194520   7.764   0.295   0.576  0.1767  0.7213 -1.5367
31314SOL    HW294521   7.616   0.282   0.605  0.8425  0.7448  2.2618
31315SOL     OW94522   3.183   5.454   3.791 -0.5025 -0.4021 -0.1601
31315SOL    HW194523   3.105   5.408   3.759 -0.0178  0.1134 -2.2802
31315SOL    HW294524   3.255   5.394   3.774 -0.0807  0.3790 -1.3324
31316SOL     OW94525   5.487   3.836   1.062  0.8981 -0.5695 -0.2399
31316SOL    HW194526   5.525   3.820   0.975  0.8263 -2.1607 -0.0076
31316SOL    HW294527   5.401   3.792   1.059 -0.1243  1.3129 -0.1048
31317SOL     OW94528   7.705   5.263   1.025  0.5869 -0.0060 -0.5549
31317SOL    HW194529   7.757   5.221   1.093  1.8546  0.2391 -1.3439
31317SOL    HW294530   7.614   5.240   1.046  0.9370  0.1445  1.2532
31318SOL     OW94531   9.393   2.842   6.417  0.3474 -0.4988 -0.6721
31318SOL    HW194532   9.481   2.880   6.409 -0.0470  0.7528  0.6509
31318SOL    HW294533   9.402   2.774   6.484  0.0332  0.6255  0.5542
31319SOL     OW94534   9.058   6.659   6.973 -0.3144 -0.1585 -0.4341
31319SOL    HW194535   9.053   6.710   6.893  0.5984 -0.1812 -0.5123
31319SOL    HW294536   8.971   6.666   7.011 -0.2849  1.2548 -0.5636
31320SOL     OW94537   9.835   8.188   0.129  1.1533  0.9986 -0.0197
31320SOL    HW194538   9.823   8.156   0.219 -0.7574 -2.1360 -1.2140
31320SOL    HW294539   9.915   8.145   0.098  0.2722 -0.2586 -0.6441
31321SOL     OW94540   2.895   2.729   0.621  0.1687  0.3679  0.7327
31321SOL    HW194541   2.846   2.778   0.555 -1.1820 -1.4295  0.3220
31321SOL    HW294542   2.956   2.675   0.571 -2.1141 -2.3908  0.6723
31322SOL     OW94543   9.806   7.679   4.380  0.5174  0.4531 -0.2454
31322SOL    HW194544   9.753   7.692   4.301  0.0183  0.7233  0.1288
31322SOL    HW294545   9.890   7.722   4.360  0.5587  0.1347 -0.7900
31323SOL     OW94546   5.865   3.684   1.285 -0.0688  0.7935 -0.0687
31323SOL    HW194547   5.925   3.749   1.322  0.2802  0.5577 -0.2099
31323SOL    HW294548   5.824   3.643   1.361  0.2218  0.7067  0.0445
31324SOL     OW94549   2.073   2.346   1.485 -0.3448  0.0320  0.6725
31324SOL    HW194550   2.047   2.273   1.429 -0.7433  0.1726  0.6758
31324SOL    HW294551   2.043   2.321   1.573  0.2274 -0.1623  0.8209
31325SOL     OW94552   3.994   5.804   9.808  0.1403  0.1394  0.0445
31325SOL    HW194553   3.984   5.758   9.891 -0.6026  0.6266  0.2310
31325SOL    HW294554   3.913   5.788   9.760  0.2773  0.4305 -0.2951
31326SOL     OW94555   1.201   8.246   9.947 -0.4781 -0.1182  0.1446
31326SOL    HW194556   1.281   8.253   9.999 -0.4791 -0.4512  0.1911
31326SOL    HW294557   1.219   8.178   9.882 -0.4881  0.2713 -0.2751
31327SOL     OW94558   8.987   9.073   2.684  0.9245 -0.3895  0.1062
31327SOL    HW194559   9.039   9.032   2.753  2.0259  0.2378 -0.3275
31327SOL    HW294560   8.975   9.163   2.713 -0.7244 -0.7523  0.6313
31328SOL     OW94561   3.271   2.310   7.572 -0.0343  0.6128 -0.4709
31328SOL    HW194562   3.192   2.273   7.612  0.7129 -0.1111  0.3746
31328SOL    HW294563   3.309   2.237   7.523  2.1892 -0.2834  2.3145
31329SOL     OW94564   2.937   6.395   6.365  0.4948  0.1876  0.2783
31329SOL    HW194565   2.898   6.344   6.436 -0.7206 -0.1867 -0.6312
31329SOL    HW294566   3.031   6.390   6.381  0.2506  0.2335  1.9327
31330SOL     OW94567   9.150   7.711   5.106 -0.0605 -0.3394  0.6462
31330SOL    HW194568   9.190   7.632   5.142 -0.5025 -0.7506  0.2442
31330SOL    HW294569   9.120   7.685   5.019 -0.7122  0.1191  0.7293
31331SOL     OW94570   7.675   0.512   9.634 -0.3145 -0.0978 -0.2595
31331SOL    HW194571   7.693   0.435   9.687  0.3538 -0.1779 -0.6043
31331SOL    HW294572   7.748   0.518   9.573  0.0522  1.2352  0.2611
31332SOL     OW94573   3.617   5.006   4.163  0.5193 -0.2567  0.1500
31332SOL    HW194574   3.638   4.917   4.190 -2.5603 -1.2954 -0.4574
31332SOL    HW294575   3.523   5.014   4.179  0.7075  2.9754  0.3536
31333SOL     OW94576   2.655   0.396   8.841 -0.3021 -0.0790 -0.4861
31333SOL    HW194577   2.576   0.370   8.794  0.2271  0.3756 -1.6803
31333SOL    HW294578   2.666   0.489   8.819  0.4586 -0.0967 -0.2008
31334SOL     OW94579   8.916   6.785   1.113 -0.3771  0.1407  0.1048
31334SOL    HW194580   8.970   6.854   1.151  1.5126  0.1823 -2.3684
31334SOL    HW294581   8.836   6.830   1.087  0.5973  1.3470 -0.9764
31335SOL     OW94582   9.374   5.139   6.279  0.2725 -0.7066  0.1806
31335SOL    HW194583   9.304   5.201   6.301 -1.0005 -1.7435 -0.8343
31335SOL    HW294584   9.345   5.056   6.317  1.0291 -1.1102 -0.1171
31336SOL     OW94585   3.999   8.789   6.990  0.3878 -0.5966  0.2016
31336SOL    HW194586   4.090   8.778   6.962 -0.2198 -0.3785 -2.0571
31336SOL    HW294587   3.969   8.700   7.010  1.2177 -0.6122  1.4687
31337SOL     OW94588   4.467   2.583   4.417 -0.4473  0.4108  0.2873
31337SOL    HW194589   4.517   2.631   4.351  0.9552  0.2528  1.1965
31337SOL    HW294590   4.376   2.590   4.387  0.0394  1.1215 -1.1565
31338SOL     OW94591   4.823   2.501   7.073  0.6393  0.1838  0.0823
31338SOL    HW194592   4.788   2.571   7.129 -1.8429 -1.0088  0.1284
31338SOL    HW294593   4.885   2.455   7.130  0.4137  0.8115  0.8656
31339SOL     OW94594   5.524   7.440   5.293  0.1576 -0.1623 -0.1400
31339SOL    HW194595   5.536   7.459   5.386  2.2796 -1.2695 -0.1348
31339SOL    HW294596   5.563   7.514   5.248 -1.7765  0.8831 -0.2287
31340SOL     OW94597   4.980   0.579   1.113 -0.2694  0.3056  0.2442
31340SOL    HW194598   4.998   0.634   1.189  2.5243  0.7773 -0.6648
31340SOL    HW294599   4.936   0.637   1.051  0.9978  1.0178  0.0025
31341SOL     OW94600   0.865   4.254   6.218 -0.2504  0.6224 -0.5556
31341SOL    HW194601   0.874   4.256   6.313  1.3578  0.1659 -0.6615
31341SOL    HW294602   0.801   4.186   6.201  2.0569 -1.8996  0.1335
31342SOL     OW94603   8.934   2.084   2.252 -0.5256 -0.6109 -0.0083
31342SOL    HW194604   8.872   2.012   2.243 -2.5796  1.1098 -0.8348
31342SOL    HW294605   8.944   2.117   2.162  0.1582  0.2646  0.3817
31343SOL     OW94606   8.552   6.373   5.817 -0.0652 -0.3648  0.0724
31343SOL    HW194607   8.570   6.281   5.796 -1.1462 -0.2479 -1.5850
31343SOL    HW294608   8.639   6.412   5.829  0.4644 -1.3341 -0.4529
31344SOL     OW94609   3.785   7.828   8.598 -0.4951 -0.3511 -0.0383
31344SOL    HW194610   3.845   7.879   8.653 -2.7072  3.2497 -0.5886
31344SOL    HW294611   3.723   7.789   8.660 -0.4324  0.0262  0.2653
31345SOL     OW94612   9.349   0.172   0.078 -0.2843  0.3938 -0.4432
31345SOL    HW194613   9.421   0.115   0.104 -0.8495  0.3473  1.1386
31345SOL    HW294614   9.382   0.261   0.092 -0.4283  0.3755  0.0563
31346SOL     OW94615   5.049   7.787   1.330  0.1112 -0.7035 -0.1316
31346SOL    HW194616   5.079   7.828   1.411 -1.4777 -1.0110  0.6616
31346SOL    HW294617   5.056   7.693   1.347  3.1856 -0.9004 -1.7270
31347SOL     OW94618   0.457   3.886   6.245  0.1771 -0.5240  0.2196
31347SOL    HW194619   0.387   3.849   6.191  0.1624 -1.3653  0.7857
31347SOL    HW294620   0.411   3.936   6.313  0.1857  0.2426 -0.3252
31348SOL     OW94621   7.369   3.090   7.216 -0.0128 -0.0240 -0.3399
31348SOL    HW194622   7.400   3.112   7.304  1.3118 -0.5261 -0.6687
31348SOL    HW294623   7.408   3.005   7.197  0.5803  0.5450 -1.8199
31349SOL     OW94624   8.449   8.276   2.172  0.6135 -0.5839  0.7042
31349SOL    HW194625   8.478   8.303   2.259  0.0797 -0.6182  0.8989
31349SOL    HW294626   8.400   8.352   2.139  0.2509 -0.8132  0.7076
31350SOL     OW94627   1.154   3.973   0.713 -0.4796 -0.0225  0.1457
31350SOL    HW194628   1.101   3.993   0.790  1.1265  1.1915  0.9746
31350SOL    HW294629   1.112   3.895   0.675 -0.3376 -1.7476  3.2182
31351SOL     OW94630   8.105   1.816   9.591  0.1774  0.6102  0.2778
31351SOL    HW194631   8.185   1.842   9.637  1.0080  1.0912 -1.3469
31351SOL    HW294632   8.109   1.863   9.508 -1.4960  0.1419 -0.1062
31352SOL     OW94633   8.353   4.065   0.134  0.3486  0.0479 -0.1381
31352SOL    HW194634   8.442   4.065   0.170 -0.0934  0.4910  1.0007
31352SOL    HW294635   8.320   3.977   0.153  0.0960  0.2987  0.6328
31353SOL     OW94636   1.981   6.663   3.299  0.4333  0.4408 -0.2226
31353SOL    HW194637   2.070   6.676   3.269  0.6777 -1.0900 -0.2566
31353SOL    HW294638   1.935   6.744   3.277  1.0009  0.0707 -3.1915
31354SOL     OW94639   5.579   0.026   6.254 -0.2350 -0.1671 -0.3174
31354SOL    HW194640   5.533   0.110   6.246  0.1457  0.0907  0.1570
31354SOL    HW294641   5.512  -0.036   6.281 -0.5374 -0.0371 -0.7530
31355SOL     OW94642   9.208   9.203   2.880  0.0534 -0.0366 -0.2173
31355SOL    HW194643   9.238   9.169   2.964 -1.1570 -1.6292 -0.3846
31355SOL    HW294644   9.289   9.223   2.832  0.8013 -1.2146  0.4996
31356SOL     OW94645   8.834   9.862   8.936 -0.5152 -0.0933 -0.0408
31356SOL    HW194646   8.841   9.918   9.014  0.1445  0.3828 -0.4265
31356SOL    HW294647   8.914   9.810   8.937  0.1287  0.8291 -1.0794
31357SOL     OW94648   3.073   2.398   7.154  0.4917  0.1965  0.1614
31357SOL    HW194649   3.157   2.395   7.108  0.4897  0.9647  0.0852
31357SOL    HW294650   3.077   2.325   7.216  1.0538 -0.0136 -0.1126
31358SOL     OW94651   3.882   6.117   8.254  0.4378 -0.3598  0.3670
31358SOL    HW194652   3.801   6.153   8.290  0.4690 -0.0719  0.1481
31358SOL    HW294653   3.869   6.119   8.159  1.4150  1.3545  0.2439
31359SOL     OW94654   5.629   5.963   3.656  0.6983 -0.2948  0.5397
31359SOL    HW194655   5.654   5.872   3.644 -1.3168 -0.8174  0.0392
31359SOL    HW294656   5.548   5.973   3.607  0.7262  1.7013  0.8098
31360SOL     OW94657   8.457   2.556   0.766  0.4470  0.1684 -0.2353
31360SOL    HW194658   8.449   2.617   0.840  0.7496 -0.7345  0.5678
31360SOL    HW294659   8.373   2.563   0.721  1.0741  2.4088 -1.1810
31361SOL     OW94660   6.776   9.130   5.185 -0.6011 -0.0929 -0.6683
31361SOL    HW194661   6.816   9.087   5.260 -0.5475  0.3445 -0.4418
31361SOL    HW294662   6.821   9.093   5.109 -1.0087 -0.9175 -0.5237
31362SOL     OW94663   3.417   8.045   7.605  0.1508  0.2887  0.5645
31362SOL    HW194664   3.468   8.040   7.686 -0.5474  0.7535  1.0381
31362SOL    HW294665   3.329   8.066   7.634 -0.4064 -0.8596 -0.2170
31363SOL     OW94666   7.042   9.793   9.931  0.0403 -0.0790 -0.0552
31363SOL    HW194667   7.054   9.877   9.974  0.3984 -0.5640  0.8182
31363SOL    HW294668   7.083   9.730   9.989 -0.4965 -0.9017 -0.5423
31364SOL     OW94669   6.520   4.080   0.484  0.0303 -0.0543 -0.0659
31364SOL    HW194670   6.429   4.063   0.506  0.2505 -0.5650  0.4787
31364SOL    HW294671   6.517   4.157   0.427 -0.7664 -0.2958 -0.3622
31365SOL     OW94672   1.921   8.217   0.062  0.3335 -0.3002 -0.1055
31365SOL    HW194673   1.952   8.277  -0.005 -1.2830  0.1435 -0.4988
31365SOL    HW294674   1.899   8.273   0.137 -1.8381 -0.2243 -0.7135
31366SOL     OW94675   9.730   9.928   6.691 -0.1022 -0.3399  0.2526
31366SOL    HW194676   9.675   9.900   6.765 -0.3611  1.6121  0.8624
31366SOL    HW294677   9.799   9.981   6.732  0.0682  0.3141 -0.8438
31367SOL     OW94678   5.651   3.822   5.042  0.2109  0.7971  0.6095
31367SOL    HW194679   5.626   3.914   5.044 -0.5787  0.7051 -1.9073
31367SOL    HW294680   5.664   3.802   4.949  1.6662 -1.3123  1.1816
31368SOL     OW94681   8.683   1.088   2.590  0.0827 -0.2932 -0.5341
31368SOL    HW194682   8.747   1.104   2.659 -0.4267 -1.0819  0.1384
31368SOL    HW294683   8.735   1.076   2.511  0.7005  0.0670 -0.1851
31369SOL     OW94684   5.125   0.633   5.706  0.2931 -0.2443 -0.2695
31369SOL    HW194685   5.105   0.630   5.800 -1.2212 -0.1021 -0.5543
31369SOL    HW294686   5.152   0.544   5.684 -0.3147 -0.5305  0.1159
31370SOL     OW94687   9.429   4.256   9.456  0.1832  0.0218  0.0321
31370SOL    HW194688   9.383   4.335   9.425  0.9370  0.5753  0.2827
31370SOL    HW294689   9.483   4.287   9.529  0.1764 -0.8181  0.4029
31371SOL     OW94690   0.672   0.666   1.174  0.1574 -0.2019  0.4336
31371SOL    HW194691   0.691   0.736   1.236  2.4488 -1.0697  0.8231
31371SOL    HW294692   0.713   0.694   1.092 -0.1393 -0.4560  0.1955
31372SOL     OW94693   8.979   7.433   8.104  0.6790 -0.1648 -0.6003
31372SOL    HW194694   8.890   7.469   8.100  0.2448 -1.2668 -3.3192
31372SOL    HW294695   9.030   7.489   8.045  0.8078 -1.7848 -2.1073
31373SOL     OW94696   9.389   0.888   7.899 -0.5921  0.2511 -0.0324
31373SOL    HW194697   9.470   0.912   7.855 -0.4873 -0.9455 -0.5131
31373SOL    HW294698   9.349   0.821   7.843 -0.8897 -0.6588  1.2176
31374SOL     OW94699   1.964   6.133   3.911 -0.8821  0.3589 -0.1045
31374SOL    HW194700   1.885   6.085   3.887 -1.9071  1.3027  1.2203
31374SOL    HW294701   2.014   6.140   3.830 -1.3464 -1.7078 -0.6157
31375SOL     OW94702   4.418   6.314   7.354  0.1030 -0.0861  0.3665
31375SOL    HW194703   4.421   6.322   7.449  0.3126 -0.3702  0.3848
31375SOL    HW294704   4.331   6.282   7.335  1.4857 -4.8228  0.8327
31376SOL     OW94705   8.295   4.487   0.582 -0.3672  0.0045 -0.1297
31376SOL    HW194706   8.220   4.461   0.530 -0.7322  2.1432 -0.7755
31376SOL    HW294707   8.362   4.512   0.518 -0.3512  1.3929  0.3996
31377SOL     OW94708   2.401   0.087   9.010  0.1496  0.0101 -0.6839
31377SOL    HW194709   2.456   0.163   9.028  1.1278 -0.7048 -0.5831
31377SOL    HW294710   2.462   0.019   8.981 -0.6919 -0.7712 -0.6843
31378SOL     OW94711   1.100   5.692   2.113 -0.1169  0.3500  0.0768
31378SOL    HW194712   1.006   5.708   2.112 -0.3167 -0.7119 -1.5264
31378SOL    HW294713   1.139   5.778   2.127 -1.2947  1.0221 -0.6368
31379SOL     OW94714   3.839   3.433   3.587 -0.0410  0.5134 -0.8102
31379SOL    HW194715   3.750   3.397   3.591  0.2724 -0.1745  1.9774
31379SOL    HW294716   3.891   3.363   3.547 -0.7095  0.9845 -2.6176
31380SOL     OW94717   5.302   4.048   2.846 -0.2249  0.1608 -0.6317
31380SOL    HW194718   5.251   4.033   2.766 -1.4702 -0.5160  0.2468
31380SOL    HW294719   5.252   4.003   2.914  1.2636  0.0066  0.3874
31381SOL     OW94720   0.387   3.287   6.629 -0.3090  0.0944 -0.1519
31381SOL    HW194721   0.451   3.339   6.581 -1.1404  1.7328  0.4610
31381SOL    HW294722   0.412   3.196   6.611  1.4813  0.6844 -0.8404
31382SOL     OW94723   1.433   5.880   6.698 -0.4816 -0.2359  0.6064
31382SOL    HW194724   1.513   5.931   6.709 -1.5128  1.7513 -0.6627
31382SOL    HW294725   1.464   5.792   6.676  1.3744  0.7021 -0.8122
31383SOL     OW94726   6.012   1.458   7.834  0.4046 -0.4744 -0.6450
31383SOL    HW194727   5.992   1.400   7.761  0.1241 -0.9084 -0.2305
31383SOL    HW294728   5.959   1.536   7.818 -0.4737 -0.9979 -0.3578
31384SOL     OW94729   7.324   3.042   3.677 -0.2551  0.0460  0.1235
31384SOL    HW194730   7.263   3.106   3.714 -1.1977 -1.0332  0.4851
31384SOL    HW294731   7.406   3.091   3.666 -0.7776  1.1531  0.9390
31385SOL     OW94732   9.622   4.558   7.540  0.1588 -0.7839 -0.6260
31385SOL    HW194733   9.619   4.489   7.473 -0.5300 -0.7728 -0.6171
31385SOL    HW294734   9.629   4.639   7.490  0.0858 -0.8038 -0.6700
31386SOL     OW94735   2.437   8.271   6.068  0.0529  0.1032  0.0003
31386SOL    HW194736   2.493   8.231   6.135  0.3404  1.0758  0.3450
31386SOL    HW294737   2.495   8.281   5.992  0.6132  1.9041  0.6321
31387SOL     OW94738   8.825   7.429   5.513  0.2193 -0.2687  0.2026
31387SOL    HW194739   8.828   7.463   5.602  0.6473  0.4476 -0.0816
31387SOL    HW294740   8.829   7.334   5.524 -1.2229 -0.2583  1.0150
31388SOL     OW94741   2.207   9.684   9.056  0.4176 -0.5459  0.3393
31388SOL    HW194742   2.274   9.634   9.101  0.2403 -0.5654  0.5826
31388SOL    HW294743   2.216   9.773   9.091  0.8229 -0.3737 -0.1909
31389SOL     OW94744   1.598   1.561   3.631  0.0244  0.7598  0.4308
31389SOL    HW194745   1.681   1.604   3.612  1.0651 -0.7973  1.2293
31389SOL    HW294746   1.591   1.491   3.566 -1.7514  2.1542 -0.9936
31390SOL     OW94747   8.168   4.788   0.132 -0.0636  0.2225  0.4596
31390SOL    HW194748   8.138   4.759   0.046  0.4527 -1.3576  0.7880
31390SOL    HW294749   8.096   4.843   0.164 -0.4027  0.5830 -0.8225
31391SOL     OW94750   7.327   4.546   9.865 -0.2190  0.3736 -0.2202
31391SOL    HW194751   7.323   4.608   9.792 -0.0202 -1.5724 -1.9769
31391SOL    HW294752   7.418   4.550   9.894  0.5982 -1.1067 -2.2821
31392SOL     OW94753   8.749   5.295   9.042  0.2718 -0.7224  0.4161
31392SOL    HW194754   8.787   5.323   9.125  1.1231 -1.1291  0.1738
31392SOL    HW294755   8.792   5.349   8.976 -0.5523 -0.2537  0.2372
31393SOL     OW94756   2.212   7.785   2.142 -0.0525 -0.3824 -0.3399
31393SOL    HW194757   2.263   7.729   2.199 -0.4565 -0.0062  0.4125
31393SOL    HW294758   2.210   7.740   2.058  0.4017 -1.0309 -0.0043
31394SOL     OW94759   3.070   7.295   3.405 -1.0424  0.2234  1.0032
31394SOL    HW194760   3.154   7.341   3.402  0.0060 -1.6312  0.4182
31394SOL    HW294761   3.026   7.321   3.324 -0.9249  0.9535  1.1587
31395SOL     OW94762   9.869   1.025   0.897 -0.1382 -0.3147  0.2859
31395SOL    HW194763   9.931   1.022   0.824  0.6709 -0.0725  0.9557
31395SOL    HW294764   9.843   1.117   0.902 -1.9128 -0.6703 -1.0857
31396SOL     OW94765   8.099   5.698   2.250  0.9605  0.2114 -0.1323
31396SOL    HW194766   8.045   5.650   2.314  3.1214 -1.0595  0.8631
31396SOL    HW294767   8.069   5.665   2.165 -0.6432  0.4681  0.2945
31397SOL     OW94768   4.720   2.721   0.816 -0.0599  0.5999  0.0304
31397SOL    HW194769   4.786   2.754   0.755 -1.1147 -0.0185 -1.5188
31397SOL    HW294770   4.636   2.748   0.777 -0.8130 -0.9578  0.4978
31398SOL     OW94771   8.634   0.892   5.623 -0.5217 -0.0206  0.3791
31398SOL    HW194772   8.713   0.872   5.573  0.3801  1.3510  1.2008
31398SOL    HW294773   8.661   0.888   5.715 -0.5615  3.2845  0.6671
31399SOL     OW94774   7.316   9.422   0.335  0.4046  0.1420 -0.1932
31399SOL    HW194775   7.380   9.487   0.363  1.3978 -0.7053 -0.4356
31399SOL    HW294776   7.358   9.377   0.262 -1.2625  0.8774 -1.6832
31400SOL     OW94777   8.153   2.424   1.711 -0.3831  0.7500 -0.4212
31400SOL    HW194778   8.187   2.481   1.781 -1.1288 -0.8214  1.2910
31400SOL    HW294779   8.226   2.365   1.691 -0.8701 -0.2388  0.6421
31401SOL     OW94780   4.204   1.718   3.504  0.0375 -0.0472  0.3135
31401SOL    HW194781   4.292   1.750   3.525  0.2129  0.5854 -1.2078
31401SOL    HW294782   4.219   1.638   3.453 -0.1899  0.6442 -0.8949
31402SOL     OW94783   7.997   3.458   4.361 -0.0016 -0.3141 -0.3431
31402SOL    HW194784   8.029   3.466   4.450 -0.1046  0.8494 -0.3985
31402SOL    HW294785   8.023   3.370   4.334 -0.0122 -0.6955  0.8368
31403SOL     OW94786   6.032   3.129   6.434 -0.2965 -0.6462  0.4514
31403SOL    HW194787   6.098   3.077   6.389  0.1099  0.8014 -0.6984
31403SOL    HW294788   6.080   3.179   6.500 -0.0646  1.0095 -0.9190
31404SOL     OW94789   7.555   8.269   8.198  0.3703 -0.2541  0.7432
31404SOL    HW194790   7.518   8.188   8.161 -2.3844  0.4332  1.7633
31404SOL    HW294791   7.519   8.273   8.287  1.1003  1.7136  0.9893
31405SOL     OW94792   8.602   6.109   1.930  0.2105 -0.0102 -0.5205
31405SOL    HW194793   8.560   6.083   1.848  1.8344 -1.6567 -0.8791
31405SOL    HW294794   8.603   6.029   1.983  2.2023  0.1453 -0.2530
31406SOL     OW94795   0.232   4.290   1.286 -0.5463  0.3089  0.1497
31406SOL    HW194796   0.283   4.365   1.314  0.2567 -0.4574  0.7785
31406SOL    HW294797   0.209   4.309   1.195  2.1187  0.0361 -0.6537
31407SOL     OW94798   8.618   9.622   5.131  0.1812  0.3018 -0.0595
31407SOL    HW194799   8.628   9.576   5.048 -1.5616 -0.8758  0.3307
31407SOL    HW294800   8.620   9.553   5.197  4.8754  1.4196  1.3484
31408SOL     OW94801   6.545   4.343   1.502 -0.4733  0.6189  0.2438
31408SOL    HW194802   6.579   4.384   1.422  1.5757  1.9163  1.6763
31408SOL    HW294803   6.541   4.250   1.481  1.8812  0.6635 -0.8190
31409SOL     OW94804   4.590   1.657   7.081 -0.4871 -0.2435 -0.0284
31409SOL    HW194805   4.578   1.698   6.995  0.9507 -0.8065 -0.5253
31409SOL    HW294806   4.551   1.569   7.070 -4.2908  1.0547  1.2671
31410SOL     OW94807   7.116   2.585   9.145  0.0911  0.1782 -0.8353
31410SOL    HW194808   7.079   2.662   9.187 -0.9942 -0.4775 -0.5541
31410SOL    HW294809   7.050   2.517   9.156  1.6132 -1.2079  0.2034
31411SOL     OW94810   2.702   8.940   9.129 -0.5535 -0.3876  0.6235
31411SOL    HW194811   2.692   9.032   9.105 -1.1994 -0.6571 -0.1849
31411SOL    HW294812   2.632   8.925   9.192  0.1570 -0.0878  1.5079
31412SOL     OW94813   2.754   7.017   3.441 -0.4335  0.3220 -0.2208
31412SOL    HW194814   2.827   6.997   3.500 -1.3758 -0.3551  0.7481
31412SOL    HW294815   2.705   7.086   3.486 -0.5812  0.5539 -0.7218
31413SOL     OW94816   6.063   9.815   8.657 -0.3147 -0.4459  0.2210
31413SOL    HW194817   5.968   9.818   8.648 -0.5659  1.3686  2.4608
31413SOL    HW294818   6.084   9.893   8.708  2.9005  1.8877 -4.0232
31414SOL     OW94819   5.808   9.408   8.385  0.4081 -0.2134 -0.1115
31414SOL    HW194820   5.811   9.331   8.328  0.2051 -0.2644 -0.0563
31414SOL    HW294821   5.897   9.419   8.416  0.3354 -0.7394  0.2966
31415SOL     OW94822   6.916   7.622   5.778 -0.2658  0.0179 -0.1639
31415SOL    HW194823   6.836   7.570   5.772 -1.2702  1.4468  0.3403
31415SOL    HW294824   6.949   7.626   5.688 -1.6461  0.7296 -0.6676
31416SOL     OW94825   7.923   0.836   8.193 -0.0316 -0.1193  0.1052
31416SOL    HW194826   8.002   0.878   8.159 -0.1447  0.5143  0.6109
31416SOL    HW294827   7.955   0.772   8.256  0.1040 -0.3005 -0.1446
31417SOL     OW94828   1.446   5.810   7.773 -0.4463  0.6566  0.8265
31417SOL    HW194829   1.445   5.741   7.707 -0.4334  0.5758  0.9105
31417SOL    HW294830   1.404   5.770   7.850 -0.4885  0.7592  0.8578
31418SOL     OW94831   2.626   1.394   2.059 -0.4556 -0.3777 -0.2997
31418SOL    HW194832   2.569   1.466   2.032 -0.9386 -0.8749 -0.6375
31418SOL    HW294833   2.566   1.321   2.076 -0.4106  0.3713  4.0629
31419SOL     OW94834   7.701   4.454   5.755  0.3339  0.1204  0.0650
31419SOL    HW194835   7.785   4.418   5.725  0.2595  0.7546 -0.9661
31419SOL    HW294836   7.650   4.466   5.674 -0.5711  0.1991  0.6328
31420SOL     OW94837   2.687   9.260   3.235  0.1564 -0.2059  0.3907
31420SOL    HW194838   2.715   9.314   3.309  1.0092  0.9464 -0.7102
31420SOL    HW294839   2.769   9.229   3.197 -0.2601 -0.5347 -0.2493
31421SOL     OW94840   6.241   0.117   7.708  0.1350  0.2156  0.3817
31421SOL    HW194841   6.159   0.152   7.744 -0.0662 -1.3253  1.5286
31421SOL    HW294842   6.257   0.169   7.629 -0.7618  2.0426  1.3357
31422SOL     OW94843   5.875   4.221   2.100  0.5475 -0.5189  0.1397
31422SOL    HW194844   5.785   4.203   2.072  0.9450 -3.5775  0.4941
31422SOL    HW294845   5.884   4.175   2.183  2.5423 -0.5366 -0.0423
31423SOL     OW94846   6.195   1.953   1.747  0.0275  0.1440 -0.3327
31423SOL    HW194847   6.168   2.045   1.757 -1.2495  0.0555 -2.3861
31423SOL    HW294848   6.169   1.912   1.829 -0.6749  1.3495  0.0786
31424SOL     OW94849   1.194   0.507   1.952 -0.0357  0.1368 -0.1033
31424SOL    HW194850   1.222   0.577   1.894 -0.5932 -0.4778 -1.1465
31424SOL    HW294851   1.109   0.535   1.984  0.9162  1.1784  1.6611
31425SOL     OW94852   7.592   0.626   2.253  0.7931  0.1809  0.3096
31425SOL    HW194853   7.503   0.650   2.280  0.9164  0.8022  0.1882
31425SOL    HW294854   7.579   0.551   2.195  0.2096  1.1162 -0.8240
31426SOL     OW94855   9.783   2.839   5.147  0.2884 -0.5086  0.2535
31426SOL    HW194856   9.823   2.834   5.060  1.2947 -2.0050  0.7571
31426SOL    HW294857   9.692   2.812   5.133  0.5488 -1.1464 -0.2988
31427SOL     OW94858   3.911   1.526   9.883  0.5878  0.1570  0.0247
31427SOL    HW194859   3.820   1.522   9.910  1.0223 -0.3546  1.5252
31427SOL    HW294860   3.960   1.537   9.965  1.7681  2.2246 -0.8742
31428SOL     OW94861   5.195   1.561   5.243 -0.7181  0.4218 -0.6286
31428SOL    HW194862   5.247   1.641   5.240 -1.2512  0.7748 -0.5047
31428SOL    HW294863   5.167   1.547   5.152  1.0962 -0.7808 -1.0544
31429SOL     OW94864  10.002   5.453   9.084 -0.1523 -0.4468 -0.0633
31429SOL    HW194865   9.942   5.491   9.021 -1.5571 -1.4420  0.6025
31429SOL    HW294866   9.960   5.370   9.110  0.8141 -0.5052  1.4728
31430SOL     OW94867   5.921   2.328   0.106  0.1580  0.4773  0.0753
31430SOL    HW194868   5.860   2.267   0.147  1.2752 -0.3215  0.5802
31430SOL    HW294869   5.908   2.410   0.154  0.4924 -0.0787  1.1585
31431SOL     OW94870   9.218   4.542   1.342  0.1689 -0.9209 -0.5034
31431SOL    HW194871   9.187   4.552   1.252 -0.0520  0.0973 -0.3188
31431SOL    HW294872   9.312   4.524   1.334  0.8546  2.2307 -0.8712
31432SOL     OW94873   7.367   2.467   7.827  0.2496 -0.2295  0.0086
31432SOL    HW194874   7.436   2.448   7.763  0.2242  0.2679 -0.1692
31432SOL    HW294875   7.352   2.561   7.819  2.1245  0.3942  2.6064
31433SOL     OW94876   2.449   7.424   8.217 -0.2601 -0.5220  0.3055
31433SOL    HW194877   2.420   7.344   8.262 -1.7801 -1.0097 -1.3908
31433SOL    HW294878   2.543   7.427   8.231 -0.3227 -2.0717  1.2690
31434SOL     OW94879   9.678   8.270   8.738 -0.3438 -0.4407 -0.2346
31434SOL    HW194880   9.727   8.285   8.657 -1.1892 -1.9201 -1.0489
31434SOL    HW294881   9.743   8.285   8.807  0.0094  2.3960 -1.0497
31435SOL     OW94882   7.202   7.640   8.456  0.3416  0.3423 -0.7113
31435SOL    HW194883   7.211   7.545   8.467  3.2840  0.6347  0.3258
31435SOL    HW294884   7.109   7.657   8.471 -0.0203 -2.2120  0.5469
31436SOL     OW94885   8.903   7.247   2.608  0.8928 -0.3696  0.1990
31436SOL    HW194886   8.844   7.296   2.550  0.8172 -1.0649 -0.3355
31436SOL    HW294887   8.986   7.245   2.562  0.4221 -2.2596 -0.6651
31437SOL     OW94888   5.518   3.435   3.880 -0.0726  0.3124  0.4764
31437SOL    HW194889   5.586   3.443   3.948  0.2182 -0.2517  0.2623
31437SOL    HW294890   5.543   3.499   3.814 -2.1007  3.2081  2.2824
31438SOL     OW94891   9.443   3.798   2.536 -0.0619  0.3286  0.9074
31438SOL    HW194892   9.376   3.837   2.479 -0.0628 -0.0348  0.6583
31438SOL    HW294893   9.406   3.714   2.563 -0.1653  0.6050  1.6453
31439SOL     OW94894   5.469   3.200   8.507 -0.3574  0.2538 -0.0539
31439SOL    HW194895   5.473   3.106   8.525  0.5045  0.1528 -0.7000
31439SOL    HW294896   5.414   3.208   8.430  1.5576  0.0175 -1.5108
31440SOL     OW94897   9.454   3.210   7.675 -0.0640  0.4865  0.4500
31440SOL    HW194898   9.453   3.154   7.753  0.3920 -1.4090 -0.8239
31440SOL    HW294899   9.362   3.221   7.653 -0.1416 -1.3004 -0.2724
31441SOL     OW94900   3.655   1.418   6.118  0.8386 -0.5797 -0.1093
31441SOL    HW194901   3.580   1.365   6.147  1.6896 -0.7539  1.8701
31441SOL    HW294902   3.624   1.508   6.123 -0.0391 -0.7451 -1.7930
31442SOL     OW94903   1.922   4.554   1.876  0.2868  1.0888 -0.2995
31442SOL    HW194904   1.908   4.519   1.788  0.5947  1.3185 -0.4460
31442SOL    HW294905   1.835   4.581   1.905 -0.5399 -2.4873  1.0441
31443SOL     OW94906   4.712   6.639   3.464 -0.5710  0.1431 -0.0150
31443SOL    HW194907   4.658   6.574   3.508  0.2233  0.8636  2.1691
31443SOL    HW294908   4.727   6.706   3.531  0.1343  1.6648 -1.6353
31444SOL     OW94909   6.027   3.465   6.466  0.8463 -0.0096 -0.2170
31444SOL    HW194910   6.045   3.387   6.518  2.7948 -0.1186 -0.9524
31444SOL    HW294911   6.099   3.525   6.486  0.0478  1.1130 -0.5839
31445SOL     OW94912   1.218   8.760   9.984 -0.0784 -0.0346  0.1027
31445SOL    HW194913   1.251   8.686  10.034  0.6763 -0.0504 -0.4091
31445SOL    HW294914   1.175   8.720   9.907  1.4416  0.0729 -0.8424
31446SOL     OW94915   0.447   2.720   1.872  0.0073  0.2519 -0.5058
31446SOL    HW194916   0.540   2.717   1.852  0.4919  2.7679  0.9154
31446SOL    HW294917   0.437   2.797   1.929 -2.4411 -1.6702  1.9691
31447SOL     OW94918   2.692   3.287   8.447 -0.2316 -0.2736 -0.2043
31447SOL    HW194919   2.736   3.220   8.499  0.7775 -0.3958 -1.1957
31447SOL    HW294920   2.757   3.316   8.384 -1.0311  0.7980 -0.5775
31448SOL     OW94921   8.995   8.784   3.712  0.3756 -0.4299 -0.7777
31448SOL    HW194922   9.029   8.775   3.801 -0.8619 -1.1804 -0.3573
31448SOL    HW294923   8.915   8.732   3.712  1.6260 -2.5897 -3.0403
31449SOL     OW94924   7.734   3.882   1.699  0.2866  0.3027  0.3705
31449SOL    HW194925   7.682   3.936   1.640  0.1971  0.2936  0.4409
31449SOL    HW294926   7.676   3.863   1.772  0.7103  1.1556  0.9544
31450SOL     OW94927   9.956   7.920   1.189 -0.5508 -0.1700 -0.1533
31450SOL    HW194928   9.989   7.832   1.206 -0.8796 -0.3459 -0.4018
31450SOL    HW294929   9.981   7.970   1.266  3.0592  0.5355 -1.5574
31451SOL     OW94930   6.531   5.167   5.858  0.2273  0.1666  0.0531
31451SOL    HW194931   6.620   5.158   5.893  0.7235  1.1488 -0.8903
31451SOL    HW294932   6.474   5.148   5.932  1.1610 -2.9111  0.1419
31452SOL     OW94933   6.060   4.784   1.659  0.5136  0.1009  0.4556
31452SOL    HW194934   6.056   4.876   1.635  0.8283  0.0389  0.1748
31452SOL    HW294935   5.993   4.775   1.728  0.1194  0.4238  0.1209
31453SOL     OW94936   4.926   2.454   5.762 -0.2436 -0.6145  0.3131
31453SOL    HW194937   4.843   2.502   5.755  0.1599  0.1154  0.4279
31453SOL    HW294938   4.959   2.476   5.848 -0.8480 -2.4509  1.0654
31454SOL     OW94939   7.139   7.875   5.937  0.1590 -0.0930 -1.1178
31454SOL    HW194940   7.043   7.879   5.945  0.2514  0.3357 -0.1151
31454SOL    HW294941   7.171   7.884   6.027  1.0984 -2.4157 -1.1513
31455SOL     OW94942   8.005   8.456   8.500 -0.9646  0.4643  0.0637
31455SOL    HW194943   8.072   8.498   8.446 -0.5812  0.2867  0.3950
31455SOL    HW294944   7.948   8.411   8.437 -0.4343  0.1287 -0.1826
31456SOL     OW94945   3.708   4.379   0.843  0.1888  0.0767  0.4298
31456SOL    HW194946   3.774   4.337   0.788 -0.7509  1.9421 -2.3730
31456SOL    HW294947   3.743   4.467   0.860 -0.9119  0.5963  0.1222
31457SOL     OW94948   3.174   9.788   4.072 -0.3578 -0.2280  0.1439
31457SOL    HW194949   3.214   9.752   3.993 -0.8760 -0.9094  0.1800
31457SOL    HW294950   3.227   9.752   4.144 -1.6750 -2.0749  0.2589
31458SOL     OW94951   1.256   2.747   7.092  0.8021 -0.0091 -0.0090
31458SOL    HW194952   1.170   2.721   7.058 -0.0016  0.1505  1.7836
31458SOL    HW294953   1.313   2.673   7.071 -0.4736 -1.4351  1.3351
31459SOL     OW94954   9.461   0.261   6.995  0.3020 -0.4085 -0.5038
31459SOL    HW194955   9.548   0.221   6.992  0.4731 -0.0885 -0.0076
31459SOL    HW294956   9.469   0.329   7.062 -0.6463 -1.1289  0.3655
31460SOL     OW94957   5.057   5.777   4.552 -0.2430 -0.2507  0.4033
31460SOL    HW194958   5.074   5.708   4.487 -0.2190 -1.7724  1.9402
31460SOL    HW294959   4.962   5.788   4.551 -0.4026 -1.3144  1.0523
31461SOL     OW94960   9.435   9.146   8.351 -0.2888  0.0890  0.0835
31461SOL    HW194961   9.345   9.158   8.323 -0.7742 -0.4894  1.3045
31461SOL    HW294962   9.439   9.056   8.383 -0.0406  0.9060  2.5916
31462SOL     OW94963   5.904   3.826   3.789 -0.6079  0.3993  0.3520
31462SOL    HW194964   5.999   3.829   3.779 -0.5420  2.4342  1.1815
31462SOL    HW294965   5.872   3.904   3.745 -2.0892 -0.9785 -1.1802
31463SOL     OW94966   1.187   3.959   9.360  0.3390  0.2383  0.6423
31463SOL    HW194967   1.130   3.916   9.297  1.5050 -4.1643  2.2462
31463SOL    HW294968   1.258   3.996   9.308 -1.2334  1.2615 -0.9061
31464SOL     OW94969   9.498   3.226   8.662 -0.7522  0.1118  0.1599
31464SOL    HW194970   9.513   3.249   8.571 -0.0639  0.9850  0.4775
31464SOL    HW294971   9.404   3.239   8.675 -1.0903 -1.2437 -0.7376
31465SOL     OW94972   8.914   7.675   6.178 -0.1093  0.3861 -0.3121
31465SOL    HW194973   8.862   7.598   6.154  0.0431  0.3023 -0.3755
31465SOL    HW294974   8.995   7.665   6.128  0.4981 -0.1330  0.7409
31466SOL     OW94975   8.542   7.800   2.013 -0.3172 -0.4434  0.5691
31466SOL    HW194976   8.554   7.718   2.060  0.9432 -1.0298 -0.6893
31466SOL    HW294977   8.448   7.818   2.018 -0.6452 -2.0667  0.7129
31467SOL     OW94978   0.110  -0.012   2.422  0.3261 -0.2817  0.4285
31467SOL    HW194979   0.183   0.046   2.400 -0.0144  1.1101  2.6571
31467SOL    HW294980   0.060  -0.020   2.341  0.5015  2.4544 -0.0295
31468SOL     OW94981   4.460   9.081   7.104  0.4667 -0.2032  0.4503
31468SOL    HW194982   4.481   8.993   7.135  0.8651 -0.2719  0.0086
31468SOL    HW294983   4.365   9.081   7.095  0.3422 -0.1809  1.6381
31469SOL     OW94984   2.035   6.561   3.547 -0.0557  0.4037 -0.0571
31469SOL    HW194985   2.040   6.583   3.454  0.6719  1.1176  0.1391
31469SOL    HW294986   2.022   6.466   3.549 -0.5189  0.4469 -0.8890
31470SOL     OW94987   8.569   8.697   8.786 -0.4267  0.1637  0.0612
31470SOL    HW194988   8.487   8.648   8.787  0.0193 -0.7406 -1.9216
31470SOL    HW294989   8.554   8.768   8.724  0.1232  0.2650  0.0332
31471SOL     OW94990   4.524   0.135   7.464 -0.1171 -0.0432  0.2596
31471SOL    HW194991   4.614   0.106   7.477  0.2937 -0.0608 -2.1868
31471SOL    HW294992   4.531   0.228   7.444 -0.8513  0.3931  1.8813
31472SOL     OW94993   0.289   6.896   8.860  0.3366 -0.4489  0.3194
31472SOL    HW194994   0.282   6.824   8.798  0.2737 -0.1744  0.0000
31472SOL    HW294995   0.260   6.860   8.943 -3.0210  0.0553 -0.4742
31473SOL     OW94996   1.129   9.633   9.711  0.2607  0.3478  0.2281
31473SOL    HW194997   1.057   9.579   9.677  0.0233  0.8790 -0.1244
31473SOL    HW294998   1.130   9.710   9.654  1.2125  0.2730  0.1262
31474SOL     OW94999   3.841   1.591   8.598 -0.0643 -0.0296  0.1182
31474SOL    HW195000   3.844   1.532   8.673  0.1212  0.2276  0.3183
31474SOL    HW295001   3.840   1.534   8.522 -1.3200 -0.3260  0.3256
31475SOL     OW95002   9.475   9.221   2.763  0.3965 -0.0474 -0.2967
31475SOL    HW195003   9.540   9.290   2.747  0.5765 -0.3058 -0.6945
31475SOL    HW295004   9.501   9.150   2.705  0.3496 -0.5480  0.2880
31476SOL     OW95005   7.707   8.200   2.847  0.3125 -0.1571 -0.1662
31476SOL    HW195006   7.681   8.197   2.755  0.8582  2.0705 -0.4595
31476SOL    HW295007   7.647   8.140   2.892 -0.7398 -0.3624 -1.7880
31477SOL     OW95008   2.111   7.904   5.370  0.1746  0.2238 -0.4646
31477SOL    HW195009   2.138   7.982   5.321  1.3669 -0.2694 -0.6127
31477SOL    HW295010   2.175   7.837   5.347  0.1351 -0.3274  0.9444
31478SOL     OW95011   3.581   8.360   9.566 -0.5911 -0.2629  0.3537
31478SOL    HW195012   3.516   8.367   9.496 -0.3453 -0.3899  0.1103
31478SOL    HW295013   3.599   8.267   9.573  0.0610 -0.1746 -0.0459
31479SOL     OW95014   2.485   6.581   3.675 -0.5692 -0.1299 -0.6288
31479SOL    HW195015   2.517   6.672   3.674  0.9302 -0.6073  0.4682
31479SOL    HW295016   2.406   6.585   3.728  2.3275 -0.1831  4.3530
31480SOL     OW95017   6.585   1.613   2.184  0.8585  0.1865 -0.2669
31480SOL    HW195018   6.571   1.531   2.232  0.3487 -0.7883 -1.9595
31480SOL    HW295019   6.496   1.643   2.164  1.0580  0.4089 -0.8236
31481SOL     OW95020   4.245   8.390   2.167  0.2655  0.0595 -0.5544
31481SOL    HW195021   4.185   8.397   2.092  0.8505 -0.0368 -1.0463
31481SOL    HW295022   4.214   8.314   2.216  0.3756 -0.3915 -1.1714
31482SOL     OW95023   6.387   8.372   0.659  0.2886  0.4089 -0.1777
31482SOL    HW195024   6.415   8.434   0.592  2.0897  0.7541  0.8285
31482SOL    HW295025   6.466   8.320   0.678 -0.7121 -1.0411  0.2395
31483SOL     OW95026   3.692   8.891   7.133 -0.5534  0.3482 -0.8020
31483SOL    HW195027   3.620   8.831   7.155 -1.1414  0.3690 -2.4594
31483SOL    HW295028   3.719   8.864   7.045  1.4872  0.3555 -0.2265
31484SOL     OW95029   5.498   5.738   9.908 -0.1254  0.2287  0.8465
31484SOL    HW195030   5.574   5.793   9.890  2.3900 -3.0295  0.3875
31484SOL    HW295031   5.493   5.736  10.004  0.3818  0.5033  0.8855
31485SOL     OW95032   8.942   6.712   0.362 -0.1826  0.2887 -0.3096
31485SOL    HW195033   8.899   6.733   0.279 -1.6123 -1.5358 -0.1031
31485SOL    HW295034   9.002   6.640   0.341 -0.4392 -0.0801  0.1859
31486SOL     OW95035   1.453   5.260   7.232 -0.0765 -0.2511 -0.2207
31486SOL    HW195036   1.378   5.267   7.173  0.0121  0.5703 -0.2491
31486SOL    HW295037   1.429   5.190   7.293 -1.1629  0.4504  0.1848
31487SOL     OW95038   6.367   8.136   7.441  0.0319 -0.0712 -0.1695
31487SOL    HW195039   6.318   8.128   7.359  1.7896 -0.9743 -1.2005
31487SOL    HW295040   6.352   8.053   7.486  0.1643 -0.1275 -0.2277
31488SOL     OW95041   7.932   5.290   0.660  0.0715 -0.6525 -0.1208
31488SOL    HW195042   7.877   5.240   0.599  1.2544 -0.9068 -1.0147
31488SOL    HW295043   7.942   5.376   0.619  0.9008 -0.8359 -0.3239
31489SOL     OW95044   9.726   1.736   0.161 -0.6221  0.1307  0.4010
31489SOL    HW195045   9.686   1.649   0.163 -0.4618  0.0295  2.5671
31489SOL    HW295046   9.794   1.731   0.229  1.0854  1.2059 -1.1376
31490SOL     OW95047   1.491   8.327   6.787  0.5913  0.0560  0.3013
31490SOL    HW195048   1.527   8.261   6.728  1.2920  2.8316 -2.6201
31490SOL    HW295049   1.566   8.356   6.839  0.9224  0.4802 -0.3991
31491SOL     OW95050   0.826   3.454   9.561  0.1893 -0.0598 -0.4246
31491SOL    HW195051   0.908   3.407   9.550  0.5526  0.3844  0.3002
31491SOL    HW295052   0.837   3.502   9.643 -0.6955  0.2061 -0.4519
31492SOL     OW95053   4.607   3.139   8.614  0.0810 -0.9713  0.7041
31492SOL    HW195054   4.637   3.225   8.644 -0.1541 -0.4802 -0.4066
31492SOL    HW295055   4.640   3.078   8.680  2.8092 -0.3726  0.0298
31493SOL     OW95056   7.596   3.765   7.355 -0.5236  0.2453  0.0437
31493SOL    HW195057   7.532   3.813   7.408 -0.4610 -0.7206  1.0093
31493SOL    HW295058   7.659   3.832   7.328 -1.9122  1.2234 -0.9370
31494SOL     OW95059   2.744   8.898   6.817  0.3225 -0.1356 -0.1386
31494SOL    HW195060   2.776   8.816   6.854 -0.0813 -1.0347 -1.6975
31494SOL    HW295061   2.820   8.937   6.774  0.4706  0.2132  0.4396
31495SOL     OW95062   8.431   2.251   1.399 -0.0638 -0.2332  0.0565
31495SOL    HW195063   8.437   2.347   1.391  1.6815 -0.2555  0.7631
31495SOL    HW295064   8.338   2.233   1.388 -0.2543  1.3993 -1.5936
31496SOL     OW95065   3.236   4.597   9.919  0.2916 -0.1236  0.2983
31496SOL    HW195066   3.212   4.675   9.970 -1.3808 -0.8192  0.6545
31496SOL    HW295067   3.270   4.632   9.837 -0.8359  1.0181  0.2746
31497SOL     OW95068   5.552   8.380   1.795  0.0019  0.2816 -0.1348
31497SOL    HW195069   5.573   8.438   1.722 -0.7519  1.3230  0.4515
31497SOL    HW295070   5.457   8.367   1.790  0.2555 -1.8042 -0.8758
31498SOL     OW95071   1.994   7.992   6.669  0.2759 -0.4490  0.3774
31498SOL    HW195072   2.075   8.002   6.618 -0.5339  1.7663 -0.5572
31498SOL    HW295073   2.009   8.042   6.749  0.1666 -0.8728  0.6721
31499SOL     OW95074   2.497   3.579   3.449  0.2209 -0.1151  0.5729
31499SOL    HW195075   2.534   3.667   3.437 -1.3145  0.4368 -0.3132
31499SOL    HW295076   2.490   3.569   3.544 -2.5388  2.0775  0.7386
31500SOL     OW95077   8.021   1.993   2.139  0.3968 -0.9119  0.0880
31500SOL    HW195078   7.930   1.974   2.116  0.6588 -2.8870  0.4819
31500SOL    HW295079   8.017   2.027   2.228  0.0080 -0.5402 -0.0704
31501SOL     OW95080   7.158   9.806   6.408  0.7555 -0.0214  0.2516
31501SOL    HW195081   7.066   9.783   6.419  0.7307 -0.3351 -0.5617
31501SOL    HW295082   7.169   9.886   6.459  0.5365 -1.0980  2.0716
31502SOL     OW95083   2.011   3.198   8.481 -0.0266  0.3336 -0.1714
31502SOL    HW195084   2.039   3.198   8.390 -0.8622 -0.6018 -0.4464
31502SOL    HW295085   2.006   3.290   8.505  0.7151  0.5750 -0.9036
31503SOL     OW95086   0.586   5.604   3.975 -0.5096  0.0896 -0.3389
31503SOL    HW195087   0.516   5.547   4.005 -0.9382  1.7576  2.1795
31503SOL    HW295088   0.663   5.577   4.025 -0.0907  0.1694 -0.9228
31504SOL     OW95089   4.856   0.421   1.640 -0.6796 -0.3254 -0.5600
31504SOL    HW195090   4.942   0.447   1.673 -0.5723 -0.7293 -0.5181
31504SOL    HW295091   4.874   0.369   1.562 -0.9525  1.4224 -1.8729
31505SOL     OW95092   9.244   2.007   4.161  0.2914 -0.5332  0.4730
31505SOL    HW195093   9.299   1.996   4.239  1.7189 -1.3752 -0.6048
31505SOL    HW295094   9.258   2.097   4.134 -1.0427  0.1045  1.7503
31506SOL     OW95095   8.845   6.449   2.052  0.2913 -0.6812  0.2412
31506SOL    HW195096   8.895   6.525   2.021  0.0154 -0.8134 -0.5489
31506SOL    HW295097   8.886   6.374   2.010  0.3522 -0.9397  0.7574
31507SOL     OW95098   2.058   9.967   0.478  0.2868 -0.0153 -0.8103
31507SOL    HW195099   2.091   9.890   0.431  1.3791 -1.1755  1.6960
31507SOL    HW295100   2.137  10.014   0.506 -0.3584  1.3335 -1.1633
31508SOL     OW95101   7.426   2.003   5.154  0.2461 -0.7261  0.7124
31508SOL    HW195102   7.490   2.069   5.180  0.8548  0.6157 -3.4952
31508SOL    HW295103   7.341   2.045   5.167  0.5269 -0.0315  0.3150
31509SOL     OW95104   5.575   8.494   8.918  0.6402 -0.5187 -0.1901
31509SOL    HW195105   5.617   8.435   8.980  1.8342  1.6978  1.2440
31509SOL    HW295106   5.647   8.549   8.885 -0.5420  0.7420 -0.7523
31510SOL     OW95107   2.216   0.328   7.623 -0.3027 -0.3407  0.1564
31510SOL    HW195108   2.260   0.401   7.580 -1.2899  0.9198  1.2358
31510SOL    HW295109   2.288   0.270   7.649  0.3816 -0.7263 -2.3209
31511SOL     OW95110   0.350   8.253   3.674 -0.3782  0.4904 -0.5615
31511SOL    HW195111   0.437   8.262   3.712 -1.0312 -0.9732  1.4361
31511SOL    HW295112   0.303   8.332   3.702 -0.1837  0.4885 -0.2281
31512SOL     OW95113   6.745   0.484   7.810  0.7994  0.1622 -0.4261
31512SOL    HW195114   6.823   0.536   7.832 -0.2581  1.0906  1.2787
31512SOL    HW295115   6.721   0.514   7.722  1.0684  1.4951 -0.0667
31513SOL     OW95116   8.053   8.731   3.879  0.2773 -0.1695  0.4871
31513SOL    HW195117   8.059   8.771   3.792  0.7939  1.4689  1.2363
31513SOL    HW295118   8.140   8.693   3.894  1.2529  2.2484  1.4770
31514SOL     OW95119   6.185   5.458   9.123 -0.4136  0.0351  0.1401
31514SOL    HW195120   6.214   5.542   9.090 -0.3591  0.5279  1.3778
31514SOL    HW295121   6.090   5.462   9.120 -0.4718 -1.0228 -2.5476
31515SOL     OW95122   7.566   3.917   0.258  0.9735  0.0062  0.4360
31515SOL    HW195123   7.648   3.886   0.295  0.6813 -1.6737 -0.2373
31515SOL    HW295124   7.568   4.012   0.271  1.3808 -0.3390  3.6876
31516SOL     OW95125   6.510   5.566   7.211  0.1339 -0.0349  0.4180
31516SOL    HW195126   6.551   5.589   7.294 -0.3018  0.4996  0.4907
31516SOL    HW295127   6.467   5.482   7.227 -1.0308  0.6664  1.1179
31517SOL     OW95128   1.995   9.260   1.438 -0.1411  0.1980  0.0704
31517SOL    HW195129   2.045   9.204   1.497  3.7551 -0.0262 -2.9970
31517SOL    HW295130   2.042   9.343   1.438 -2.1452  1.3928 -0.1068
31518SOL     OW95131   4.174   6.933   6.416 -0.0014  0.3858 -0.0065
31518SOL    HW195132   4.268   6.934   6.400 -0.1347  1.9078 -0.9121
31518SOL    HW295133   4.165   6.891   6.502  1.2768 -2.0345 -0.9590
31519SOL     OW95134   9.297   0.150   4.348 -0.4636 -0.5307 -0.3510
31519SOL    HW195135   9.268   0.203   4.275  0.2261 -0.9935 -0.9732
31519SOL    HW295136   9.247   0.069   4.341 -0.8142 -0.3540  0.0364
31520SOL     OW95137   3.404   3.889   0.489 -0.4415  0.1673  1.0026
31520SOL    HW195138   3.397   3.979   0.523  0.3353  0.3859  0.6046
31520SOL    HW295139   3.401   3.834   0.567  1.7109  0.6859  1.4957
31521SOL     OW95140   1.724   8.875   9.204  0.0435 -0.2080  0.2840
31521SOL    HW195141   1.711   8.829   9.121  2.4515  1.5678 -1.1981
31521SOL    HW295142   1.651   8.936   9.210 -0.8045 -1.1785  0.1219
31522SOL     OW95143   5.470   0.743   5.907  0.0651  0.5252  0.5641
31522SOL    HW195144   5.548   0.715   5.859  1.8640  2.0282  2.4787
31522SOL    HW295145   5.462   0.680   5.979 -1.3030 -0.3692 -0.3080
31523SOL     OW95146   7.913   5.207   0.128 -0.0750  0.5206 -0.2944
31523SOL    HW195147   7.879   5.196   0.039 -1.3946  1.1615  0.1102
31523SOL    HW295148   7.852   5.267   0.170 -1.4235 -2.2487  2.0771
31524SOL     OW95149   9.596   8.348   2.204 -0.1736 -0.5954 -0.0481
31524SOL    HW195150   9.505   8.348   2.233 -0.1200  0.6006  0.1729
31524SOL    HW295151   9.591   8.352   2.109 -0.3438 -0.8883 -0.0536
31525SOL     OW95152   9.866   3.958   8.088 -0.0837 -0.4282 -0.0011
31525SOL    HW195153   9.833   4.035   8.041 -0.9380 -0.3759  0.6601
31525SOL    HW295154   9.885   3.990   8.176 -0.9746 -1.0718  0.4508
31526SOL     OW95155   1.429   5.002   1.782  0.4176 -0.2647 -0.7029
31526SOL    HW195156   1.492   5.047   1.838  1.3406 -1.4491 -0.7566
31526SOL    HW295157   1.362   5.068   1.764  0.9473  0.6251  0.4399
31527SOL     OW95158   2.048   0.797   5.511 -0.4755 -0.1215 -0.1926
31527SOL    HW195159   2.045   0.717   5.564  0.2545 -1.7618 -2.4668
31527SOL    HW295160   2.140   0.808   5.489 -0.7060  0.7263 -0.7906
31528SOL     OW95161   0.640   7.463   3.356 -0.8705 -0.4009  0.5781
31528SOL    HW195162   0.555   7.421   3.346 -1.7716  1.5943 -0.9312
31528SOL    HW295163   0.691   7.434   3.280 -1.7127  1.5338 -0.8219
31529SOL     OW95164   8.928   3.229   8.336  0.2319 -0.1527  0.1247
31529SOL    HW195165   8.835   3.243   8.318  0.1120  0.5122  1.1624
31529SOL    HW295166   8.971   3.241   8.252 -0.4169  1.6487  0.0044
31530SOL     OW95167   9.108   1.198   8.863  0.0601  0.1566  0.2048
31530SOL    HW195168   9.190   1.157   8.836 -0.6146 -0.7676 -0.4949
31530SOL    HW295169   9.059   1.127   8.904 -0.2551  0.7913  0.9541
31531SOL     OW95170   3.541   0.159   7.822  0.0809  0.5746 -0.1804
31531SOL    HW195171   3.600   0.133   7.751 -0.0847  1.2834 -0.5885
31531SOL    HW295172   3.464   0.104   7.811  0.9120 -0.8510  0.7699
31532SOL     OW95173   0.966   0.953   4.480  0.2442 -0.0989 -0.4789
31532SOL    HW195174   0.990   0.942   4.572  0.7341 -1.2760 -0.7184
31532SOL    HW295175   0.960   1.047   4.467 -0.0335  0.0748  0.8055
31533SOL     OW95176   9.450   4.735   8.501  0.2872  0.2413 -0.0898
31533SOL    HW195177   9.398   4.795   8.554 -1.7662 -0.3681 -1.3156
31533SOL    HW295178   9.523   4.788   8.470 -0.0115  1.3533  1.0294
31534SOL     OW95179   8.304   4.782   3.080  0.1093 -0.1266 -0.3255
31534SOL    HW195180   8.376   4.844   3.069 -0.5267  0.3899 -1.7827
31534SOL    HW295181   8.347   4.698   3.094  0.9879  0.5848  1.6041
31535SOL     OW95182   5.200   1.826   4.107 -0.1524 -0.0501 -0.3040
31535SOL    HW195183   5.111   1.814   4.139  0.0242  1.5401  0.9072
31535SOL    HW295184   5.254   1.772   4.165 -0.1309  0.6235  0.3191
31536SOL     OW95185   5.301   3.936   7.926  0.6972 -0.1911 -0.4784
31536SOL    HW195186   5.305   4.028   7.951  1.2318 -0.4753  0.5535
31536SOL    HW295187   5.393   3.908   7.924  0.4940 -1.6671  3.1943
31537SOL     OW95188   3.837   2.408   3.675 -0.4242 -0.1148 -0.4256
31537SOL    HW195189   3.910   2.346   3.675  1.6830  2.2067 -0.2658
31537SOL    HW295190   3.812   2.416   3.583  1.4566  1.0842 -0.8971
31538SOL     OW95191   8.554   0.929   2.181  0.0901 -0.2593  0.0307
31538SOL    HW195192   8.500   0.878   2.241 -0.7337  0.2347 -0.2671
31538SOL    HW295193   8.631   0.953   2.232 -1.2312  1.3577  1.3746
31539SOL     OW95194   3.693   5.817   5.336 -0.1878 -0.0777  0.1043
31539SOL    HW195195   3.736   5.734   5.314 -0.2145 -0.2363  0.6391
31539SOL    HW295196   3.748   5.855   5.405  0.3789  0.8209 -0.8103
31540SOL     OW95197   8.495   2.685   3.714  0.1273  0.1845  0.7710
31540SOL    HW195198   8.481   2.723   3.628  0.8029  3.6371  2.0528
31540SOL    HW295199   8.583   2.649   3.710 -1.4251 -4.0981 -1.2801
31541SOL     OW95200   0.395   7.643   6.965 -0.1647  0.3910 -0.8665
31541SOL    HW195201   0.431   7.717   6.916 -0.8718  0.2925 -1.5652
31541SOL    HW295202   0.352   7.682   7.041 -0.2132  0.6691 -1.0377
31542SOL     OW95203   8.777   8.594   5.149  0.5640  0.3256  0.0142
31542SOL    HW195204   8.797   8.647   5.072 -0.4555  2.1464  0.9406
31542SOL    HW295205   8.768   8.657   5.220 -3.9138 -0.6543  0.6003
31543SOL     OW95206   0.720   7.373   2.760  0.2848 -0.2103  0.0660
31543SOL    HW195207   0.780   7.437   2.722 -2.2782  1.5591 -1.3110
31543SOL    HW295208   0.688   7.414   2.840 -0.1314 -0.5185  0.0591
31544SOL     OW95209   3.511   0.236   4.816 -0.1670  0.1016 -0.1356
31544SOL    HW195210   3.417   0.253   4.822 -0.0410  0.5299  0.9287
31544SOL    HW295211   3.525   0.163   4.876  0.2094  0.1997 -0.1050
31545SOL     OW95212   0.952   2.958   5.620 -0.3908 -0.1345 -0.2625
31545SOL    HW195213   0.899   3.025   5.664 -0.7208 -0.1659 -0.6164
31545SOL    HW295214   1.042   2.991   5.628 -0.4873  0.0517  0.0974
31546SOL     OW95215   7.054   2.687   5.972 -0.3115 -0.3059  0.2309
31546SOL    HW195216   7.057   2.782   5.978 -0.5103 -0.3755  1.7894
31546SOL    HW295217   7.087   2.656   6.056 -2.2232 -1.5791  0.5793
31547SOL     OW95218   8.079   9.851   3.298 -0.4777 -0.2200 -0.1890
31547SOL    HW195219   8.030   9.929   3.327  1.1229 -0.2185  2.8931
31547SOL    HW295220   8.149   9.886   3.243 -0.6732  0.3521 -0.0819
31548SOL     OW95221   7.432   4.068   7.240 -0.6136  0.5326  0.3803
31548SOL    HW195222   7.348   4.029   7.266 -0.2488 -0.4693  0.0979
31548SOL    HW295223   7.478   4.083   7.323 -0.8684  0.5935  0.5105
31549SOL     OW95224   1.958   2.131   1.372 -0.2622 -0.6345 -0.6372
31549SOL    HW195225   1.906   2.155   1.296  0.2239 -1.8995 -1.4134
31549SOL    HW295226   1.897   2.133   1.445 -1.4093 -1.9254 -1.4938
31550SOL     OW95227   5.481   2.790   5.194 -0.3643 -0.1532  0.1619
31550SOL    HW195228   5.467   2.698   5.214  2.6571 -0.5678  0.8990
31550SOL    HW295229   5.535   2.823   5.266  0.7289  1.5129 -1.3186
31551SOL     OW95230   7.759   1.996   9.735 -0.0703  0.1715  0.3269
31551SOL    HW195231   7.747   1.921   9.677 -0.8394 -0.2104  0.9704
31551SOL    HW295232   7.854   2.013   9.732  0.2467 -1.3238  0.7855
31552SOL     OW95233   9.530   5.449   1.132  0.0127 -0.3410  0.1552
31552SOL    HW195234   9.466   5.520   1.126  0.1296 -0.0197  2.1517
31552SOL    HW295235   9.479   5.370   1.113 -0.1774  0.2110 -1.8173
31553SOL     OW95236   2.302   7.709   3.584  0.2015  0.2663  0.0940
31553SOL    HW195237   2.322   7.651   3.657  1.8719 -0.2728 -0.7396
31553SOL    HW295238   2.271   7.650   3.514  2.8219  0.1743 -1.0877
31554SOL     OW95239   7.578   7.342   3.955 -0.1557 -0.1100 -0.6060
31554SOL    HW195240   7.541   7.362   3.869  0.8387  2.0719 -0.5836
31554SOL    HW295241   7.524   7.392   4.016 -0.1015 -0.6898 -0.0713
31555SOL     OW95242   4.419   3.785   2.897 -0.9171  0.0832  0.8352
31555SOL    HW195243   4.333   3.827   2.896 -1.9030 -1.8291  0.9190
31555SOL    HW295244   4.460   3.816   2.977 -1.2246  1.5397  0.4682
31556SOL     OW95245   5.096   6.469   7.400 -0.1916 -0.0540 -0.4621
31556SOL    HW195246   5.007   6.476   7.433 -0.4567  0.2621 -1.2234
31556SOL    HW295247   5.151   6.468   7.478 -0.9581 -2.1631  0.1120
31557SOL     OW95248   8.924   1.790   4.539 -0.5206 -0.7186  0.4880
31557SOL    HW195249   8.839   1.823   4.511 -0.4309  0.0110  1.0412
31557SOL    HW295250   8.984   1.865   4.526 -0.0759 -1.0427  0.6429
31558SOL     OW95251   7.873   6.265   3.421  0.3458 -0.0350 -0.1200
31558SOL    HW195252   7.831   6.219   3.494  0.5358  2.4110  1.6430
31558SOL    HW295253   7.801   6.283   3.361 -0.2939  0.0824  0.6574
31559SOL     OW95254   4.089   1.932   6.310  0.2620 -0.2623  0.1063
31559SOL    HW195255   4.061   1.964   6.396 -0.2061  1.3576 -0.5992
31559SOL    HW295256   4.185   1.931   6.315  0.3119  1.5799  0.0930
31560SOL     OW95257   7.903   6.929   3.803  0.4044 -0.4426  0.0496
31560SOL    HW195258   7.867   7.015   3.780  0.1763  0.1942  2.5039
31560SOL    HW295259   7.991   6.929   3.766 -0.1282  0.1789 -1.3162
31561SOL     OW95260   2.602   9.283   5.649 -0.0143 -0.2653  0.7227
31561SOL    HW195261   2.537   9.212   5.651 -2.1688  1.5687  0.3319
31561SOL    HW295262   2.671   9.250   5.592 -1.1178 -1.8995  0.2269
31562SOL     OW95263   7.982   8.730   0.331 -0.3083  0.4148 -0.0618
31562SOL    HW195264   8.073   8.737   0.361 -0.2141 -1.8633  0.3337
31562SOL    HW295265   7.954   8.643   0.358 -1.8883  0.1896 -2.1328
31563SOL     OW95266   9.150   8.128   8.572 -0.1631 -0.1905 -0.3507
31563SOL    HW195267   9.146   8.162   8.483 -0.9530  1.3611  0.2402
31563SOL    HW295268   9.068   8.079   8.582 -0.3214  0.0773 -0.3180
31564SOL     OW95269   2.756   2.576   1.779 -0.6983  0.1306 -0.4536
31564SOL    HW195270   2.714   2.492   1.764  0.0679 -0.2072 -0.7684
31564SOL    HW295271   2.734   2.628   1.701  0.0062 -0.2772 -0.9404
31565SOL     OW95272   0.670   4.135   5.801 -0.0906  0.4566 -0.3733
31565SOL    HW195273   0.712   4.218   5.826  0.9370 -0.0604 -0.3250
31565SOL    HW295274   0.699   4.073   5.868  2.0574 -0.7702 -2.3085
31566SOL     OW95275   5.766   0.097   6.469 -0.0628  0.8340  0.3567
31566SOL    HW195276   5.759   0.012   6.514  1.7436 -0.3873 -1.4764
31566SOL    HW295277   5.696   0.096   6.404 -0.1931  0.8497  0.4971
31567SOL     OW95278   0.445   1.820   9.613  0.7148 -0.4257  0.1366
31567SOL    HW195279   0.457   1.912   9.638  2.5319 -0.6534  0.2842
31567SOL    HW295280   0.482   1.771   9.686 -0.5517 -1.3047  0.2082
31568SOL     OW95281   8.259   7.378   3.203  0.1048  0.2785 -0.2244
31568SOL    HW195282   8.292   7.309   3.145 -0.3821 -0.4220  0.3135
31568SOL    HW295283   8.206   7.332   3.267 -0.8215  1.2441 -0.2754
31569SOL     OW95284   3.018   1.168   9.410 -0.3875  0.0663 -0.3598
31569SOL    HW195285   3.098   1.207   9.375 -0.3760 -0.8294 -1.3901
31569SOL    HW295286   3.050   1.097   9.467 -0.4027  1.5706  1.6130
31570SOL     OW95287   7.075   1.424   7.049  0.2230 -0.0548 -0.5657
31570SOL    HW195288   7.093   1.426   6.955 -1.0030 -2.0252 -0.8964
31570SOL    HW295289   6.980   1.421   7.055  0.2612 -3.5763  0.5237
31571SOL     OW95290   2.955   9.668   2.542 -0.1695 -0.1236 -0.0142
31571SOL    HW195291   2.905   9.676   2.461  0.0098 -0.9270 -0.2122
31571SOL    HW295292   3.042   9.639   2.514  0.9499  2.7353  0.1730
31572SOL     OW95293   4.193   2.105   9.915  0.6186 -0.1401  0.1254
31572SOL    HW195294   4.114   2.081   9.963  0.2125 -0.3102 -0.6193
31572SOL    HW295295   4.244   2.024   9.909  0.7022 -0.1038  0.3159
31573SOL     OW95296   7.169   4.531   0.103  0.7169 -0.1523  0.6548
31573SOL    HW195297   7.101   4.473   0.071 -0.9668  0.3254  3.0247
31573SOL    HW295298   7.213   4.564   0.025 -0.2796 -2.2274 -0.8484
31574SOL     OW95299   9.320   7.406   2.906  0.1812 -0.2581 -0.6060
31574SOL    HW195300   9.307   7.322   2.860  0.2667  0.6890 -2.4578
31574SOL    HW295301   9.397   7.392   2.961  1.2951 -0.8792 -2.2551
31575SOL     OW95302   1.696   8.358   8.802  0.0208  0.2977  0.8004
31575SOL    HW195303   1.671   8.361   8.894  1.8406  1.6558  1.3201
31575SOL    HW295304   1.787   8.326   8.803 -0.2262 -0.5657 -0.6209
31576SOL     OW95305   9.702   8.443   6.988 -0.3113  0.5223 -0.1447
31576SOL    HW195306   9.721   8.490   6.906 -1.0033 -0.0655 -0.6538
31576SOL    HW295307   9.760   8.367   6.985  1.1080  1.5014  0.8711
31577SOL     OW95308   4.250   8.772   5.415 -0.2821 -0.3717 -0.0908
31577SOL    HW195309   4.230   8.712   5.487 -0.0191 -1.1452 -0.6460
31577SOL    HW295310   4.167   8.817   5.397 -1.0196 -2.0200 -0.9830
31578SOL     OW95311   4.883   7.644   5.008  0.1768  0.1263 -0.3829
31578SOL    HW195312   4.861   7.653   4.916 -1.0083 -1.3579 -0.2748
31578SOL    HW295313   4.833   7.568   5.038  2.6696 -1.1848  0.7996
31579SOL     OW95314   4.862   2.708   1.880 -0.8534  0.4017  0.3502
31579SOL    HW195315   4.952   2.683   1.858 -1.0315 -0.4343  0.5349
31579SOL    HW295316   4.844   2.662   1.962 -1.2063  1.1331  0.6841
31580SOL     OW95317   5.602   6.437   2.830  0.2776 -0.3506  0.1655
31580SOL    HW195318   5.554   6.368   2.876 -0.8466 -0.9789 -1.8108
31580SOL    HW295319   5.612   6.403   2.740 -0.9480  2.3193 -1.0870
31581SOL     OW95320   5.996   4.138   2.968  1.1588 -0.6202  0.0561
31581SOL    HW195321   6.032   4.178   2.889 -1.7096  3.0344  0.2559
31581SOL    HW295322   5.903   4.125   2.948  1.1612 -3.7241  1.4885
31582SOL     OW95323   1.167   6.664   7.337  0.3573 -0.2105 -0.8338
31582SOL    HW195324   1.105   6.729   7.370 -0.6005 -1.4804 -0.0773
31582SOL    HW295325   1.248   6.682   7.384  0.2426  0.7177 -0.9766
31583SOL     OW95326   2.747   7.938   5.019  0.1682 -0.3224 -0.0419
31583SOL    HW195327   2.776   7.934   5.110 -1.1506 -2.5040  0.3474
31583SOL    HW295328   2.676   8.002   5.019  1.7838  1.5723 -0.1007
31584SOL     OW95329   8.062   9.835   4.925  0.3986 -0.1238  0.6551
31584SOL    HW195330   8.133   9.772   4.938  0.7995  0.5881  2.1794
31584SOL    HW295331   8.106   9.921   4.926 -0.4995  0.3545  2.0833
31585SOL     OW95332   2.105   9.041   0.131 -0.3575 -0.8913 -0.0057
31585SOL    HW195333   2.064   8.960   0.099 -0.0159 -0.4293 -1.6916
31585SOL    HW295334   2.178   9.056   0.072 -0.0266  0.3179  0.6816
31586SOL     OW95335   9.818   8.785   6.754  0.3425  0.1719  0.3524
31586SOL    HW195336   9.758   8.712   6.765 -1.6216  1.6799  0.2544
31586SOL    HW295337   9.821   8.827   6.840 -1.1863  1.8220 -0.3235
31587SOL     OW95338   0.605   7.015   6.557 -0.2670  0.0102  0.2469
31587SOL    HW195339   0.547   6.987   6.628 -0.1529 -1.2506 -0.1169
31587SOL    HW295340   0.551   7.007   6.478 -0.0125  0.1460  0.0568
31588SOL     OW95341   5.303   9.822   9.831  0.7775 -0.4279 -0.5171
31588SOL    HW195342   5.257   9.739   9.839  2.9682 -1.8057 -1.0663
31588SOL    HW295343   5.310   9.836   9.736  0.5286  0.3321 -0.4301
31589SOL     OW95344   2.646   5.938   9.787  0.0369 -0.0603 -0.5452
31589SOL    HW195345   2.562   5.980   9.769  0.1339  0.1053 -0.6206
31589SOL    HW295346   2.624   5.860   9.837 -0.3461 -1.1537 -2.3410
31590SOL     OW95347   2.297   8.377   0.338  0.5718 -0.0166 -0.2015
31590SOL    HW195348   2.284   8.453   0.281 -0.7802 -0.2375 -0.1973
31590SOL    HW295349   2.295   8.302   0.278  1.3203 -0.1059 -0.1270
31591SOL     OW95350   8.720   1.425   0.386  0.4179  0.1054  0.3834
31591SOL    HW195351   8.632   1.392   0.369  0.9530 -0.5997 -1.3197
31591SOL    HW295352   8.754   1.448   0.299  0.9821  2.9199  1.2498
31592SOL     OW95353   6.985   2.240   7.187 -0.0287 -0.6645  0.8473
31592SOL    HW195354   6.992   2.308   7.254 -0.5125  0.6026 -0.3337
31592SOL    HW295355   6.904   2.261   7.139 -0.3663 -2.2723  0.6447
31593SOL     OW95356   3.465   7.336   9.525 -0.1237  0.3944  0.4952
31593SOL    HW195357   3.502   7.310   9.610 -1.4559 -0.9720  0.6967
31593SOL    HW295358   3.513   7.284   9.461  0.1262  0.6154  0.5000
31594SOL     OW95359   2.744   3.314   1.713  0.2725 -0.4319 -0.2257
31594SOL    HW195360   2.657   3.347   1.692  0.0822 -0.5010  0.4208
31594SOL    HW295361   2.802   3.390   1.704 -0.1332  0.0632  1.0735
31595SOL     OW95362   4.301   2.663   1.756  0.2260 -0.0212  0.0593
31595SOL    HW195363   4.243   2.718   1.808  1.5247  1.1598  0.3181
31595SOL    HW295364   4.253   2.647   1.675 -0.6448  0.5529  0.4522
31596SOL     OW95365   8.642   4.471   5.554 -0.1776  0.1379 -0.4352
31596SOL    HW195366   8.711   4.536   5.570  0.1290 -0.1583 -0.5202
31596SOL    HW295367   8.612   4.446   5.641  2.5813 -2.6384 -0.0861
31597SOL     OW95368   7.736   7.548   2.454 -0.2570  0.4196 -0.2548
31597SOL    HW195369   7.683   7.610   2.404 -2.2376 -0.8821  0.1029
31597SOL    HW295370   7.746   7.589   2.540  0.4512  1.2596 -0.7287
31598SOL     OW95371   2.729   2.687   8.055  0.0678  0.8857  0.3619
31598SOL    HW195372   2.685   2.751   8.112  0.3516  1.5794 -0.1817
31598SOL    HW295373   2.791   2.642   8.113 -0.4626  0.7753  0.8518
31599SOL     OW95374   9.188   9.473   9.112 -0.2609  0.0324 -0.2153
31599SOL    HW195375   9.246   9.549   9.102 -0.6083  0.7844  2.6850
31599SOL    HW295376   9.111   9.495   9.059 -0.0809  1.4280  0.0576
31600SOL     OW95377   5.900   5.998   7.792  0.3752 -0.2592 -0.2954
31600SOL    HW195378   5.906   5.929   7.858 -0.4721  0.7836  0.9342
31600SOL    HW295379   5.837   5.965   7.728  0.1522 -0.7285  0.1568
31601SOL     OW95380   0.575   8.823   5.239  0.2565  0.3093 -0.6168
31601SOL    HW195381   0.512   8.779   5.182  0.6118  0.7678 -1.3746
31601SOL    HW295382   0.631   8.753   5.272 -1.8533 -0.4294  1.7114
31602SOL     OW95383   8.032   7.470   1.878  0.7778  0.3222  0.3340
31602SOL    HW195384   8.000   7.528   1.808  0.0071 -0.0629  0.3551
31602SOL    HW295385   7.959   7.410   1.894  0.9875  0.3335  1.3959
31603SOL     OW95386   0.405   5.815   5.136  0.2335 -0.2385  0.4778
31603SOL    HW195387   0.382   5.799   5.044 -0.4287 -0.1060  0.6147
31603SOL    HW295388   0.464   5.891   5.133  0.1501 -0.1846  0.1667
31604SOL     OW95389   7.706   9.410   5.630 -0.3053  0.3964 -0.4953
31604SOL    HW195390   7.715   9.381   5.721 -0.2927  0.2308 -0.5483
31604SOL    HW295391   7.761   9.488   5.623 -0.6808  0.6889 -0.2370
31605SOL     OW95392   4.273   1.017   2.149 -0.8528 -0.4853 -0.0377
31605SOL    HW195393   4.275   1.098   2.199  1.6969 -0.3487 -0.2690
31605SOL    HW295394   4.189   0.977   2.173 -1.0347  0.9768  2.0470
31606SOL     OW95395   1.898   2.483   2.263 -0.1926  0.3258  0.3822
31606SOL    HW195396   1.887   2.441   2.348 -2.4480  1.1363  0.5486
31606SOL    HW295397   1.820   2.538   2.253  1.6005  2.8389 -0.7545
31607SOL     OW95398   9.248   3.054   4.739 -0.0539  0.6121  0.4031
31607SOL    HW195399   9.294   2.998   4.802 -0.4753 -0.4140 -0.1697
31607SOL    HW295400   9.305   3.130   4.729  0.6623  0.1759  1.0254
31608SOL     OW95401   5.160   2.940   9.635  0.1772  0.4130 -0.3201
31608SOL    HW195402   5.141   2.869   9.697  1.1924  1.7576  1.6208
31608SOL    HW295403   5.075   2.981   9.618 -0.4138 -1.1623 -1.4058
31609SOL     OW95404   9.043   0.679   4.184 -0.2880 -0.3523 -0.1942
31609SOL    HW195405   8.988   0.602   4.198 -0.2522 -0.4112 -0.3814
31609SOL    HW295406   9.023   0.736   4.259  0.3567 -0.9313  0.4316
31610SOL     OW95407   3.609   4.256   8.152 -0.8786  0.5175 -0.4038
31610SOL    HW195408   3.537   4.203   8.116  0.4055 -2.0392  0.5555
31610SOL    HW295409   3.677   4.252   8.085 -1.0119  1.6005 -0.6203
31611SOL     OW95410   9.244   3.843   5.816  0.2493  0.2355  0.0860
31611SOL    HW195411   9.172   3.780   5.813  0.6517 -0.1965 -1.0613
31611SOL    HW295412   9.322   3.789   5.825  0.5341  0.6342  0.0326
31612SOL     OW95413   0.585   4.278   6.816 -0.0745  0.7551  0.3270
31612SOL    HW195414   0.563   4.292   6.724 -1.4361  0.9540  0.6577
31612SOL    HW295415   0.610   4.365   6.848 -0.6758  0.8985  0.4117
31613SOL     OW95416   7.876   1.771   8.467  0.4201 -0.9878 -0.1628
31613SOL    HW195417   7.810   1.702   8.469  0.8253 -1.4223 -1.1648
31613SOL    HW295418   7.854   1.823   8.391 -0.9801  1.1503  1.5828
31614SOL     OW95419   2.451   3.585   1.871 -0.2028 -0.0309  0.5205
31614SOL    HW195420   2.396   3.660   1.894 -2.2159 -0.7327 -1.5719
31614SOL    HW295421   2.409   3.511   1.915  1.3840 -0.1092  2.0279
31615SOL     OW95422   2.357   7.382   4.645  0.1013  0.5758 -0.5228
31615SOL    HW195423   2.395   7.346   4.565 -1.7374  0.4809 -1.4066
31615SOL    HW295424   2.265   7.396   4.624 -1.0567 -1.7396  2.3024
31616SOL     OW95425   8.599   9.727   9.840 -0.3386  0.0124 -0.0326
31616SOL    HW195426   8.618   9.794   9.906  0.1345 -0.6736  0.5319
31616SOL    HW295427   8.653   9.752   9.765  0.7609 -0.3925  0.6018
31617SOL     OW95428   4.676   9.157   0.811 -0.3285  0.0991  0.0595
31617SOL    HW195429   4.654   9.161   0.718 -0.1711  1.8958  0.0776
31617SOL    HW295430   4.766   9.124   0.813 -0.8154 -1.3406 -0.3149
31618SOL     OW95431   5.967   8.219   0.565  0.4418 -0.7277 -0.1603
31618SOL    HW195432   5.949   8.154   0.498  0.9555 -1.3792  0.3181
31618SOL    HW295433   6.032   8.277   0.526  0.8378 -1.1824 -0.1929
31619SOL     OW95434   7.864   5.786   9.672  0.3832 -0.1798 -0.0314
31619SOL    HW195435   7.929   5.749   9.731 -1.6300 -0.6527  1.9981
31619SOL    HW295436   7.866   5.880   9.691 -0.1407 -0.3088  0.6674
31620SOL     OW95437   6.390   7.837   1.886  0.4646 -0.5604  0.3422
31620SOL    HW195438   6.334   7.847   1.809  0.2399 -0.3615  0.5316
31620SOL    HW295439   6.372   7.748   1.918  1.5800 -1.1713 -0.6372
31621SOL     OW95440   7.254   4.655   0.907 -0.0332 -0.6982  0.0392
31621SOL    HW195441   7.178   4.684   0.957  0.0805 -1.7285  0.8518
31621SOL    HW295442   7.223   4.581   0.856 -0.1962  0.4677 -1.6318
31622SOL     OW95443   1.100   3.571   9.202  0.4801  0.0442 -0.3565
31622SOL    HW195444   1.031   3.593   9.265  0.4298  0.4973 -0.5638
31622SOL    HW295445   1.109   3.476   9.209  0.4911  0.0876  0.3521
31623SOL     OW95446   8.694   4.906   9.200  0.1554  0.2477 -0.4660
31623SOL    HW195447   8.748   4.984   9.204  1.2138 -0.4896  0.1784
31623SOL    HW295448   8.676   4.894   9.106  2.0072 -0.0484 -0.8324
31624SOL     OW95449   3.285   1.829   8.605  0.3365  0.0576 -0.6529
31624SOL    HW195450   3.242   1.889   8.544  0.3408  0.3038 -0.4140
31624SOL    HW295451   3.219   1.762   8.622 -0.0728  0.6017 -0.0465
31625SOL     OW95452   5.089   9.701   4.229 -0.1852 -0.3948  0.1629
31625SOL    HW195453   5.072   9.754   4.307  2.1989  0.8730 -0.0778
31625SOL    HW295454   5.106   9.765   4.160  1.1934 -1.4401 -0.5324
31626SOL     OW95455   0.914   7.299   2.354 -0.1020  0.7285 -0.1260
31626SOL    HW195456   0.946   7.387   2.335  1.5884  0.1115 -0.2585
31626SOL    HW295457   0.891   7.263   2.268 -1.8852  1.3970  0.0232
31627SOL     OW95458   4.295   6.918   2.545  0.3058  0.2335 -0.4645
31627SOL    HW195459   4.363   6.852   2.537 -2.2364 -2.7068  0.0344
31627SOL    HW295460   4.288   6.934   2.639 -1.2424 -1.4548 -0.2189
31628SOL     OW95461   8.754   8.664   8.313 -0.0846 -0.4634  0.0860
31628SOL    HW195462   8.739   8.758   8.310  1.1892 -0.2453 -0.2116
31628SOL    HW295463   8.843   8.653   8.278 -0.0985 -1.7394  0.3994
31629SOL     OW95464   8.828   6.363   2.314  0.1112 -0.0544  0.3156
31629SOL    HW195465   8.794   6.435   2.367  0.1587  0.2154 -0.0130
31629SOL    HW295466   8.831   6.398   2.225  2.0094  0.2257  0.4432
31630SOL     OW95467   3.113   4.699   8.247  0.2329 -0.2240  0.1701
31630SOL    HW195468   3.192   4.749   8.226 -0.4183  0.1893 -1.5047
31630SOL    HW295469   3.041   4.762   8.236 -0.6248 -1.4895 -2.2148
31631SOL     OW95470   1.265   4.537   5.025  0.2300  0.3353  0.8908
31631SOL    HW195471   1.200   4.580   4.969  0.4560 -1.2864 -0.7355
31631SOL    HW295472   1.345   4.589   5.013  0.6059 -0.6255 -1.3378
31632SOL     OW95473   6.326   1.114   6.992 -0.0359 -0.4451  0.0040
31632SOL    HW195474   6.347   1.055   6.920  0.6748  0.3518 -0.4674
31632SOL    HW295475   6.379   1.192   6.975 -0.9691  0.3371  0.5920
31633SOL     OW95476   8.530   8.604   5.852 -0.0174  0.4763  0.0482
31633SOL    HW195477   8.530   8.522   5.803 -1.6931 -0.8430  2.0672
31633SOL    HW295478   8.460   8.656   5.813  0.4169  0.5651 -0.6233
31634SOL     OW95479   5.376   9.651   0.415 -0.2527 -0.3700  0.0578
31634SOL    HW195480   5.401   9.711   0.345 -0.0180  0.3670  0.7483
31634SOL    HW295481   5.291   9.683   0.445  0.1585  0.0169  0.8475
31635SOL     OW95482   5.377   7.715   6.148 -0.2586 -0.2768 -0.1229
31635SOL    HW195483   5.316   7.642   6.139 -1.0222  0.2562  0.4635
31635SOL    HW295484   5.463   7.674   6.156 -0.8601 -1.2720  2.3035
31636SOL     OW95485   4.100   2.541   3.465  0.2438 -0.7281  0.1135
31636SOL    HW195486   4.158   2.466   3.454  0.5216 -0.4086 -0.6825
31636SOL    HW295487   4.130   2.584   3.545  0.1011 -1.4403  0.5595
31637SOL     OW95488   6.698   2.630   2.165  0.2985 -0.1328  0.3842
31637SOL    HW195489   6.701   2.604   2.257  1.8861 -0.1303  0.3583
31637SOL    HW295490   6.761   2.701   2.158 -1.0012  0.9811 -0.3929
31638SOL     OW95491   1.949   3.744   8.367 -0.4351  0.3158  1.0659
31638SOL    HW195492   1.998   3.823   8.389  0.0721 -0.0845  1.3841
31638SOL    HW295493   1.925   3.756   8.275 -1.0605  1.2016  1.3235
31639SOL     OW95494   9.440   7.970   8.122  0.1157 -0.1256  1.0194
31639SOL    HW195495   9.401   8.056   8.140  1.2112  0.5082  0.5047
31639SOL    HW295496   9.535   7.987   8.123  0.3217 -0.9995 -0.6041
31640SOL     OW95497   7.610   9.603   1.398  0.1840 -0.2777 -0.3364
31640SOL    HW195498   7.605   9.696   1.377 -2.3282 -0.2590  0.0327
31640SOL    HW295499   7.647   9.563   1.319  0.3934  0.9239 -0.8645
31641SOL     OW95500   7.252   3.088   2.371  0.5159  0.1232  0.2998
31641SOL    HW195501   7.289   3.008   2.411  0.7396  0.5677  1.0009
31641SOL    HW295502   7.284   3.086   2.281  1.2952 -0.1002  0.5719
31642SOL     OW95503   9.141   5.510   0.618 -0.2053  0.5299 -0.7119
31642SOL    HW195504   9.099   5.587   0.655 -0.5094  0.5656 -1.1310
31642SOL    HW295505   9.082   5.481   0.548  1.3759  1.7223 -2.6276
31643SOL     OW95506   4.832   7.723   0.934  0.1300  0.2374 -0.1971
31643SOL    HW195507   4.808   7.729   0.841  0.2628  0.6124 -0.2084
31643SOL    HW295508   4.784   7.646   0.966  0.9398 -0.5530 -0.8388
31644SOL     OW95509   1.906   0.814   8.342 -0.5264 -0.0756 -0.1134
31644SOL    HW195510   1.872   0.882   8.401 -0.1739  0.1482 -0.1591
31644SOL    HW295511   1.987   0.852   8.308  0.2002 -0.9119  0.6169
31645SOL     OW95512   6.691   5.702   3.149  0.0775 -0.2611  0.3792
31645SOL    HW195513   6.769   5.740   3.189  0.3370  0.5684 -0.8422
31645SOL    HW295514   6.665   5.766   3.083 -1.2367 -0.8563  0.2905
31646SOL     OW95515   2.972   1.702   7.343  0.1242 -0.1536  0.0694
31646SOL    HW195516   2.947   1.611   7.327 -0.4856  0.1088 -0.5319
31646SOL    HW295517   3.058   1.711   7.301 -0.4740 -0.0734 -1.2119
31647SOL     OW95518   4.516   2.232   2.002 -0.7975 -0.0638  0.3800
31647SOL    HW195519   4.474   2.280   2.073 -0.2329  2.1445 -0.6706
31647SOL    HW295520   4.508   2.290   1.926  1.5227 -0.8392 -0.5534
31648SOL     OW95521   4.585   2.303   5.870  0.7388  0.6437 -0.0368
31648SOL    HW195522   4.578   2.373   5.935  0.4416  0.7977 -0.2335
31648SOL    HW295523   4.640   2.340   5.801  0.0198  0.9323 -0.4631
31649SOL     OW95524   4.246   5.760   8.834 -0.3561 -0.2034  0.2438
31649SOL    HW195525   4.319   5.749   8.773 -0.8788  0.7677 -0.5816
31649SOL    HW295526   4.283   5.808   8.908 -0.5006  1.7315 -0.9009
31650SOL     OW95527   8.484   8.007   6.407 -0.1447 -0.1936  0.0067
31650SOL    HW195528   8.579   8.001   6.420  0.2961  1.4488 -1.9139
31650SOL    HW295529   8.447   7.997   6.495  1.7686 -1.1817  0.7636
31651SOL     OW95530   4.564   8.102   0.514  0.0210 -0.0311  0.1009
31651SOL    HW195531   4.562   8.179   0.457  2.5479  0.8054  0.9823
31651SOL    HW295532   4.570   8.028   0.453  1.3951  0.7517 -0.7756
31652SOL     OW95533   7.055   5.991   8.555 -0.3082 -0.1132 -0.3017
31652SOL    HW195534   7.141   5.989   8.513 -0.4451 -0.8510 -0.5568
31652SOL    HW295535   6.994   6.015   8.484 -0.0839  2.6731  0.3213
31653SOL     OW95536   6.064   2.181   2.597  0.4229  0.2831  0.1807
31653SOL    HW195537   6.132   2.113   2.601 -0.9907 -1.3486 -1.8891
31653SOL    HW295538   6.023   2.179   2.684  1.7757  0.0093  0.8413
31654SOL     OW95539   6.174   7.889   9.256  0.1858 -0.4759  0.3175
31654SOL    HW195540   6.210   7.802   9.274 -0.2161 -0.5726  0.6972
31654SOL    HW295541   6.109   7.875   9.187 -0.9510 -0.7519  1.3869
31655SOL     OW95542   9.020   5.190   9.240 -0.1404  0.0174  0.2749
31655SOL    HW195543   8.933   5.194   9.280 -0.3339  0.0617 -0.1388
31655SOL    HW295544   9.060   5.112   9.277  0.4845  1.1591  2.1239
31656SOL     OW95545   9.576   6.491   0.100 -0.1931 -0.0329 -0.1228
31656SOL    HW195546   9.567   6.571   0.151  1.7240 -1.0898  2.0626
31656SOL    HW295547   9.667   6.466   0.110 -0.8635 -2.8520 -0.1320
31657SOL     OW95548   2.648   6.553   1.110 -0.0319  0.4270  0.1717
31657SOL    HW195549   2.653   6.488   1.040 -0.1196  0.3285  0.2552
31657SOL    HW295550   2.619   6.633   1.067  0.8766  0.6337 -0.0745
31658SOL     OW95551   3.416   6.567   7.230 -0.4608 -0.3195  0.3909
31658SOL    HW195552   3.472   6.599   7.300  2.4898 -1.9976 -1.0035
31658SOL    HW295553   3.374   6.645   7.194  0.8230  0.9947  1.6372
31659SOL     OW95554   3.106   9.957   0.989  0.6508 -0.0948  0.5881
31659SOL    HW195555   3.054   9.881   1.015  0.8111  0.0421  1.3220
31659SOL    HW295556   3.108  10.013   1.066 -1.1186  1.6137 -0.5244
31660SOL     OW95557   3.838   9.910   2.926  0.8519 -0.2090 -0.4656
31660SOL    HW195558   3.744   9.929   2.921  0.6319 -1.4246 -1.1409
31660SOL    HW295559   3.877   9.963   2.856  0.6978  0.3663 -0.1271
31661SOL     OW95560   1.899   9.327   7.083 -0.5287 -0.2209 -0.1603
31661SOL    HW195561   1.963   9.275   7.131 -0.1155  2.3898  2.3649
31661SOL    HW295562   1.951   9.397   7.043 -1.3934 -0.1485 -1.2073
31662SOL     OW95563   5.326   8.610   2.039 -0.4572  0.3413  0.3414
31662SOL    HW195564   5.348   8.660   1.960 -0.2496 -0.2821  0.0029
31662SOL    HW295565   5.253   8.554   2.012 -1.9119  1.7318  1.2010
31663SOL     OW95566   9.864   8.298   6.357 -0.1317 -0.4350 -0.5700
31663SOL    HW195567   9.801   8.326   6.290 -1.1584 -0.2944  0.4305
31663SOL    HW295568   9.902   8.379   6.391  1.5647 -0.5490 -2.0227
31664SOL     OW95569   4.212   7.134   3.278 -0.7550 -0.1035  0.0914
31664SOL    HW195570   4.203   7.065   3.343  0.4760  0.3126  0.7282
31664SOL    HW295571   4.259   7.204   3.323 -0.4418  0.4540 -1.0607
31665SOL     OW95572   3.560   9.929   8.128 -0.3626  0.2198  0.3200
31665SOL    HW195573   3.649   9.953   8.156 -0.7576  1.7900  0.3250
31665SOL    HW295574   3.568   9.912   8.034 -0.2654  1.5690  0.0675
31666SOL     OW95575   9.767   2.389   9.188 -0.0646  0.2660  0.6070
31666SOL    HW195576   9.719   2.456   9.138  0.2052  0.3551  0.4609
31666SOL    HW295577   9.759   2.417   9.279 -1.1255 -0.2609  0.6821
31667SOL     OW95578   2.360   0.620   6.547 -0.1266  0.5792  0.2346
31667SOL    HW195579   2.387   0.529   6.559 -0.8843  0.0987 -1.3945
31667SOL    HW295580   2.325   0.623   6.458 -1.0916  2.2239  0.6217
31668SOL     OW95581   6.131   2.490   5.019  0.5421 -0.1828  0.0604
31668SOL    HW195582   6.098   2.404   5.046 -0.1563 -0.4860 -1.6218
31668SOL    HW295583   6.078   2.552   5.069  1.3172 -0.7008  1.5887
31669SOL     OW95584   6.318   2.650   9.730  0.1890  0.3408  0.0798
31669SOL    HW195585   6.378   2.607   9.670 -0.9103  0.8980 -1.4887
31669SOL    HW295586   6.284   2.725   9.680 -1.6662  0.1383  0.9508
31670SOL     OW95587   6.827   4.540   2.356  0.6171  0.0733  0.8216
31670SOL    HW195588   6.751   4.489   2.385 -0.6524  1.0959 -0.5325
31670SOL    HW295589   6.812   4.627   2.393  0.1415  0.7734 -0.9190
31671SOL     OW95590   9.254   1.130   8.255  0.2119 -0.0602  0.0835
31671SOL    HW195591   9.207   1.148   8.337 -1.2805  0.1703 -0.7781
31671SOL    HW295592   9.194   1.160   8.187  1.2672 -0.5961 -1.1113
31672SOL     OW95593   8.984   6.971   7.811  0.1871  0.7858 -0.2729
31672SOL    HW195594   8.941   7.047   7.851 -0.6709 -0.1821  0.7160
31672SOL    HW295595   9.072   7.002   7.789 -0.2261  2.1329 -0.1388
31673SOL     OW95596   7.728   5.842   9.005 -0.2582  0.1654 -0.1978
31673SOL    HW195597   7.763   5.928   8.986  0.9863 -0.3535 -0.3391
31673SOL    HW295598   7.776   5.813   9.083 -1.5005  0.0678  0.5696
31674SOL     OW95599   2.193   3.883   1.420 -0.5333 -0.8103 -0.0926
31674SOL    HW195600   2.183   3.914   1.329 -0.4101 -1.2995 -0.2768
31674SOL    HW295601   2.170   3.959   1.473  0.9607 -0.0056 -0.5403
31675SOL     OW95602   7.447   5.746   6.725 -0.1765  0.1996  0.2245
31675SOL    HW195603   7.416   5.659   6.750 -0.0038  0.1262  0.1821
31675SOL    HW295604   7.485   5.733   6.638  0.0209  0.2820  0.2999
31676SOL     OW95605   8.201   8.550   8.357  0.1299  0.3722 -0.4776
31676SOL    HW195606   8.168   8.584   8.274 -2.2102 -1.1763 -0.3016
31676SOL    HW295607   8.285   8.593   8.370  0.0728  1.4445 -3.1161
31677SOL     OW95608   7.472   0.157   5.161 -0.3695  0.7824  0.1128
31677SOL    HW195609   7.560   0.170   5.194  0.2163 -0.7113 -0.7262
31677SOL    HW295610   7.446   0.071   5.196 -1.3750  1.0731  0.1101
31678SOL     OW95611   0.071   0.912   3.349  0.5685 -0.0905  0.3210
31678SOL    HW195612  -0.016   0.914   3.389  0.4658  0.1096  0.0918
31678SOL    HW295613   0.121   0.849   3.402 -0.3880 -1.9989 -0.9244
31679SOL     OW95614   2.776   2.811   0.858 -0.2516 -0.5745 -0.0132
31679SOL    HW195615   2.771   2.785   0.766 -0.4976  0.7338 -0.3825
31679SOL    HW295616   2.807   2.902   0.856 -1.0146 -0.2717  1.1588
31680SOL     OW95617   9.581   4.277   8.840  0.1201 -0.1119 -0.2797
31680SOL    HW195618   9.612   4.338   8.773 -0.6010 -0.0461 -0.5620
31680SOL    HW295619   9.580   4.328   8.920  0.2977  0.0111 -0.3548
31681SOL     OW95620   5.928   5.577   3.425  0.4778 -0.6860 -0.0964
31681SOL    HW195621   5.855   5.612   3.374 -0.3810 -1.0404  0.8732
31681SOL    HW295622   5.995   5.558   3.359  0.2722  1.0052 -0.8478
31682SOL     OW95623   5.855   8.512   0.183 -0.1158 -0.2906  0.0237
31682SOL    HW195624   5.797   8.441   0.210  0.3654 -1.1388 -1.1231
31682SOL    HW295625   5.796   8.587   0.173 -0.9417 -0.9959 -0.5938
31683SOL     OW95626   3.583   7.790   9.400 -0.6955 -0.4275  0.4422
31683SOL    HW195627   3.506   7.737   9.421 -1.7915  1.2622  0.8144
31683SOL    HW295628   3.561   7.878   9.430  0.7908  0.4151 -0.8041
31684SOL     OW95629   3.994   5.381   8.652  0.3449 -0.3645 -0.4310
31684SOL    HW195630   3.958   5.295   8.673  2.1081 -1.3293 -1.1637
31684SOL    HW295631   4.044   5.406   8.730 -1.6284  0.8969  0.5179
31685SOL     OW95632   3.368   1.077   8.862  0.8360 -0.6271  0.3331
31685SOL    HW195633   3.395   0.993   8.823  1.1583 -0.1779 -0.4298
31685SOL    HW295634   3.294   1.106   8.808  0.9532 -0.2416  0.3791
31686SOL     OW95635   6.419   9.661   1.333  0.2964  0.5762 -0.3882
31686SOL    HW195636   6.489   9.596   1.329  0.4716  0.5654  1.8205
31686SOL    HW295637   6.343   9.617   1.293  0.9087 -0.2620 -0.6536
31687SOL     OW95638   0.609   6.753   4.240 -0.4439 -0.4391  0.0591
31687SOL    HW195639   0.676   6.751   4.171  1.3227  1.1305  1.6273
31687SOL    HW295640   0.526   6.763   4.192  0.6872  0.3676 -1.8657
31688SOL     OW95641   1.206   3.098   8.468 -0.0585  0.2203  0.0080
31688SOL    HW195642   1.297   3.069   8.477  0.2023  0.8006 -0.7019
31688SOL    HW295643   1.210   3.175   8.411 -0.9125  0.7134  0.5832
31689SOL     OW95644   1.143   3.398   8.800 -0.0009 -0.1884 -0.1558
31689SOL    HW195645   1.238   3.403   8.806  0.3777 -2.5084 -2.5105
31689SOL    HW295646   1.122   3.311   8.834 -1.2508  0.1383 -0.0418
31690SOL     OW95647   7.480   0.199   0.711  1.0686 -0.0495 -0.0077
31690SOL    HW195648   7.460   0.118   0.757  0.6831 -0.6288 -1.1592
31690SOL    HW295649   7.403   0.255   0.726  0.8505 -0.3163 -0.1214
31691SOL     OW95650   6.614   2.263   0.467  0.2610 -0.4222 -0.4495
31691SOL    HW195651   6.592   2.254   0.375  1.3339 -0.0935 -0.7476
31691SOL    HW295652   6.557   2.333   0.499  0.9327  0.5077 -1.2371
31692SOL     OW95653   9.866   6.071   6.645 -0.2078  0.2944  0.5851
31692SOL    HW195654   9.837   6.159   6.620  0.5979  0.6551  0.8560
31692SOL    HW295655   9.824   6.055   6.730 -0.9600  0.1033  0.1759
31693SOL     OW95656   0.515   2.297   6.677  0.4097  0.2175 -0.1337
31693SOL    HW195657   0.519   2.228   6.611  2.0573  0.3891 -0.2542
31693SOL    HW295658   0.439   2.350   6.653 -0.3205 -1.0065 -0.5791
31694SOL     OW95659   1.624   9.097   0.947 -0.6520 -0.1342  0.1558
31694SOL    HW195660   1.619   9.097   1.043 -2.1801 -1.5628  0.1119
31694SOL    HW295661   1.549   9.044   0.919 -1.4336  1.8915 -1.8985
31695SOL     OW95662   3.752   8.204   9.309  0.0995 -0.1012 -0.8184
31695SOL    HW195663   3.807   8.147   9.363 -0.8763 -0.4433 -0.1459
31695SOL    HW295664   3.776   8.293   9.336  0.1124 -0.2534 -0.3016
31696SOL     OW95665   6.529   7.443   7.615 -0.1168 -0.0223  1.2546
31696SOL    HW195666   6.537   7.395   7.532 -1.8897  0.7841  0.5695
31696SOL    HW295667   6.481   7.384   7.672 -1.2924  0.4451  0.7836
31697SOL     OW95668   3.555   3.706   8.420 -0.1998 -0.2091 -0.4617
31697SOL    HW195669   3.576   3.613   8.419 -1.3218 -0.4862  0.0733
31697SOL    HW295670   3.630   3.748   8.377  0.5124 -1.3072 -0.3358
31698SOL     OW95671   3.347   3.430   1.797 -0.1380  0.3899  0.0165
31698SOL    HW195672   3.442   3.421   1.783  0.2787  0.0341  2.6400
31698SOL    HW295673   3.321   3.499   1.735  1.9654  1.0263 -0.2667
31699SOL     OW95674   0.351   1.582   1.262 -0.2305 -0.0218 -0.3106
31699SOL    HW195675   0.419   1.535   1.310 -0.9199  0.1763  0.9196
31699SOL    HW295676   0.269   1.554   1.304 -0.8197  0.5429 -1.0649
31700SOL     OW95677   8.700   5.590   6.926 -0.5468  0.0288 -0.0223
31700SOL    HW195678   8.770   5.607   6.989 -2.0544 -0.3701  1.8588
31700SOL    HW295679   8.620   5.588   6.979 -2.4229  3.1157 -2.3656
31701SOL     OW95680   3.158   8.240   2.296  0.5500 -0.1832  0.5025
31701SOL    HW195681   3.201   8.169   2.343  1.2213 -0.5453 -0.6105
31701SOL    HW295682   3.132   8.201   2.212  0.4035  0.7242  0.1109
31702SOL     OW95683   9.256   2.224   1.219  0.0103  0.4384 -0.3711
31702SOL    HW195684   9.227   2.134   1.202  1.5607 -0.2470  0.3446
31702SOL    HW295685   9.189   2.260   1.276  0.1893 -0.8569  0.7115
31703SOL     OW95686   6.144   4.961   9.340  0.2008  0.0437  0.8698
31703SOL    HW195687   6.058   4.924   9.316  0.8105 -0.4800 -0.6765
31703SOL    HW295688   6.125   5.052   9.363 -0.8160 -0.1606  0.9195
31704SOL     OW95689   1.892   2.228   8.898  0.2725  0.0149  0.3946
31704SOL    HW195690   1.797   2.216   8.896  0.3535 -0.6997  0.5343
31704SOL    HW295691   1.915   2.250   8.808 -0.1063  0.9213  0.5079
31705SOL     OW95692   6.356   4.788   1.165  0.3045 -0.1772  0.3224
31705SOL    HW195693   6.290   4.746   1.110 -0.1641 -0.0654  0.7827
31705SOL    HW295694   6.307   4.817   1.243  0.6070  1.1892  0.0408
31706SOL     OW95695   6.055   6.038   7.072  0.1786 -0.1496 -0.1956
31706SOL    HW195696   6.146   6.057   7.091  0.6285 -0.9619 -1.3936
31706SOL    HW295697   6.010   6.049   7.156  1.3247  0.4968  0.3555
31707SOL     OW95698   4.117   0.769   2.772  0.0922  0.1683  0.5362
31707SOL    HW195699   4.196   0.767   2.718  0.0986  1.1774  0.4914
31707SOL    HW295700   4.081   0.680   2.765  2.1530 -0.8537  2.0024
31708SOL     OW95701   6.009   8.768   1.921 -0.1420 -0.1781  0.6192
31708SOL    HW195702   5.945   8.706   1.885  0.1066 -0.5234  0.7567
31708SOL    HW295703   6.054   8.718   1.989  1.2983 -0.4387 -0.4612
31709SOL     OW95704   4.272   4.300   6.292 -0.2975  0.0065 -0.0300
31709SOL    HW195705   4.363   4.326   6.284  0.0336 -0.5773  1.6128
31709SOL    HW295706   4.274   4.213   6.331 -1.5070 -1.0367 -2.0754
31710SOL     OW95707   7.918   8.568   1.916 -0.3549 -0.3874  0.0081
31710SOL    HW195708   7.953   8.554   2.004  3.8443 -0.7583 -1.5243
31710SOL    HW295709   7.894   8.661   1.915 -0.0598 -0.2655  1.4011
31711SOL     OW95710   4.549   3.652   6.732  0.7037 -0.4506  0.3012
31711SOL    HW195711   4.553   3.707   6.810 -0.1115 -0.1680  0.1514
31711SOL    HW295712   4.479   3.690   6.679  0.8735 -0.9712 -0.3181
31712SOL     OW95713   5.918   6.966   4.839 -0.3020  0.6220 -0.4016
31712SOL    HW195714   5.931   6.945   4.931 -0.4467  0.3067 -0.4534
31712SOL    HW295715   5.836   7.016   4.838 -1.0778 -0.6289 -0.5331
31713SOL     OW95716   1.992   7.317   4.450 -0.0794 -0.1204 -0.2140
31713SOL    HW195717   2.064   7.285   4.397  0.2338  2.5317 -1.5430
31713SOL    HW295718   1.918   7.325   4.389 -1.1358 -1.4540  0.8197
31714SOL     OW95719   2.457   7.580   8.573  0.1038  0.2868  0.4207
31714SOL    HW195720   2.476   7.563   8.481  0.6509  1.2800  0.3455
31714SOL    HW295721   2.527   7.534   8.621 -1.0401 -1.5517  0.4488
31715SOL     OW95722   0.605   5.589   2.856 -0.2007 -0.2600  0.6424
31715SOL    HW195723   0.644   5.560   2.938 -0.7210 -0.5892  0.7772
31715SOL    HW295724   0.673   5.641   2.814 -0.1146  0.3931  1.5468
31716SOL     OW95725   1.312   7.171   3.035  0.0373  0.3679  0.6224
31716SOL    HW195726   1.384   7.193   3.095  1.3249 -2.6202  0.3539
31716SOL    HW295727   1.255   7.113   3.085  0.3587 -1.0020 -0.5142
31717SOL     OW95728   5.760   9.596   2.923 -0.7024 -0.1765  0.0938
31717SOL    HW195729   5.777   9.654   2.849 -1.6905 -0.0026 -0.0171
31717SOL    HW295730   5.845   9.586   2.966 -0.1740 -0.0358 -0.8809
31718SOL     OW95731   8.923   9.466   2.122 -0.6465  0.1503 -0.0249
31718SOL    HW195732   8.928   9.521   2.044  1.5154  1.8466  1.1825
31718SOL    HW295733   9.009   9.424   2.127 -1.4774 -1.6042  0.3380
31719SOL     OW95734   6.719   7.832   6.411  0.1878 -0.3660 -0.0576
31719SOL    HW195735   6.654   7.807   6.346 -0.3932  0.4103  0.2040
31719SOL    HW295736   6.795   7.777   6.392 -0.6363 -1.4908 -0.1889
31720SOL     OW95737   1.498   0.946   6.239  0.4278  0.0419 -0.1460
31720SOL    HW195738   1.444   1.020   6.268 -0.0209  0.7572 -2.5827
31720SOL    HW295739   1.436   0.874   6.227  0.6732 -0.3770  0.9531
31721SOL     OW95740   6.554   2.088   9.518  0.1945 -0.3192 -0.2248
31721SOL    HW195741   6.649   2.092   9.502 -0.0788  1.8295 -1.7487
31721SOL    HW295742   6.515   2.131   9.442 -2.0278 -1.0375  0.4289
31722SOL     OW95743   6.879   3.828   5.149 -0.1245  0.0987  0.1187
31722SOL    HW195744   6.895   3.759   5.213 -0.4981  0.8095  0.9828
31722SOL    HW295745   6.948   3.816   5.083  0.2443 -0.6447  0.6316
31723SOL     OW95746   9.429   1.504   9.228 -0.3237 -0.0847 -0.2464
31723SOL    HW195747   9.376   1.568   9.276 -1.0462  0.8328 -2.1474
31723SOL    HW295748   9.367   1.434   9.206 -0.3511  0.1562 -0.9731
31724SOL     OW95749   1.164   1.633   5.428 -0.1681  0.4134 -0.3861
31724SOL    HW195750   1.097   1.573   5.397  0.2364 -0.0328 -0.4028
31724SOL    HW295751   1.116   1.698   5.479 -0.4944 -0.4791  0.4731
31725SOL     OW95752   0.843   5.337   5.140  0.1850  0.4457 -0.4618
31725SOL    HW195753   0.793   5.362   5.062 -0.4926 -0.4803 -0.3453
31725SOL    HW295754   0.867   5.246   5.125  0.5109  0.4197  0.1789
31726SOL     OW95755   0.365   9.255   1.344  0.2338  0.0206  0.1439
31726SOL    HW195756   0.368   9.214   1.431 -1.3130 -0.6788 -0.1074
31726SOL    HW295757   0.449   9.301   1.337  0.1842  0.5227  2.2139
31727SOL     OW95758   7.107   0.684   6.880  0.1916  0.0872  0.2214
31727SOL    HW195759   7.162   0.738   6.823 -0.7430 -0.0586 -0.8442
31727SOL    HW295760   7.170   0.629   6.928  1.0027  0.3100 -0.5589
31728SOL     OW95761   1.623   9.945   1.284 -0.8354 -0.3262  0.4182
31728SOL    HW195762   1.578   9.997   1.216 -2.6556  0.0352  1.8258
31728SOL    HW295763   1.700   9.997   1.306 -0.2764 -0.3806 -1.2420
31729SOL     OW95764   6.868   8.628   2.206 -0.5654  0.3215  0.2623
31729SOL    HW195765   6.846   8.647   2.115 -0.8937  2.7349  0.7805
31729SOL    HW295766   6.961   8.605   2.204 -0.8216 -0.7696 -0.7707
31730SOL     OW95767   0.816   5.680   1.753 -0.2968  0.3815  0.8394
31730SOL    HW195768   0.791   5.645   1.667 -2.6471  0.0271  1.5719
31730SOL    HW295769   0.911   5.681   1.752 -0.2323 -0.9886 -1.2252
31731SOL     OW95770   5.589   1.845   8.156  0.0481  0.0777 -0.2569
31731SOL    HW195771   5.684   1.837   8.162  0.1073  0.1830 -1.0368
31731SOL    HW295772   5.560   1.762   8.120 -0.2435 -0.2624  0.7171
31732SOL     OW95773   6.343   9.824   7.498 -0.0717  0.0892  0.1918
31732SOL    HW195774   6.321   9.735   7.524  1.0566 -0.6510 -1.2566
31732SOL    HW295775   6.370   9.867   7.580 -0.6414 -0.8808  0.9109
31733SOL     OW95776   7.183   4.837   2.351 -0.4395  0.5489 -0.0828
31733SOL    HW195777   7.236   4.851   2.272  0.0306 -0.2547  0.0710
31733SOL    HW295778   7.095   4.862   2.325 -0.1062  1.2979 -0.5457
31734SOL     OW95779   9.791   8.781   5.994 -0.1652 -0.3459  0.1573
31734SOL    HW195780   9.696   8.788   6.000 -0.1298  2.8582 -0.9153
31734SOL    HW295781   9.810   8.778   5.900  0.7958  0.7722  0.2809
31735SOL     OW95782   8.594   3.761   2.652  0.2616  0.1314 -0.7410
31735SOL    HW195783   8.580   3.825   2.583  1.2370  1.1757 -0.0108
31735SOL    HW295784   8.666   3.707   2.621  1.3062  1.1619 -0.2117
31736SOL     OW95785   9.333   0.126   8.233 -0.6265 -0.1146 -0.4996
31736SOL    HW195786   9.315   0.194   8.299 -0.6373 -1.0925  0.5421
31736SOL    HW295787   9.415   0.154   8.192  0.4735 -0.4663  1.3229
31737SOL     OW95788   5.300   9.504   5.128 -0.3599  0.1590 -0.2146
31737SOL    HW195789   5.256   9.460   5.056 -2.2824  0.2883  0.8034
31737SOL    HW295790   5.276   9.453   5.205 -0.4694  1.4561  0.6440
31738SOL     OW95791   5.678   5.131   1.446 -0.1552 -0.4249 -0.6717
31738SOL    HW195792   5.628   5.180   1.380 -0.9955  0.0287  0.2722
31738SOL    HW295793   5.611   5.094   1.504  0.5749 -0.4748  0.1639
31739SOL     OW95794   6.045   0.966   0.588  0.0916  0.0918  0.0428
31739SOL    HW195795   6.038   1.037   0.653  0.0546 -0.1824  0.3399
31739SOL    HW295796   6.026   1.008   0.505 -1.3679  0.1446  0.3769
31740SOL     OW95797   9.953   7.692   5.268 -0.5812  0.0174  0.2753
31740SOL    HW195798   9.888   7.738   5.214 -2.6331 -1.3862  1.4102
31740SOL    HW295799  10.022   7.757   5.283 -1.7941  1.6473 -0.8348
31741SOL     OW95800   3.567   3.592   3.802  0.1314 -0.3346 -0.4031
31741SOL    HW195801   3.643   3.628   3.848  0.7484 -0.7147 -1.0988
31741SOL    HW295802   3.502   3.577   3.871  0.4483  0.5840  0.1132
31742SOL     OW95803   4.880   3.152   4.604  0.1206  0.0546 -0.1150
31742SOL    HW195804   4.850   3.072   4.647  0.2807 -0.2189 -0.5019
31742SOL    HW295805   4.937   3.194   4.668 -1.3682  0.7778  0.7876
31743SOL     OW95806   0.444   8.844   3.208  0.2808  0.0191 -0.0715
31743SOL    HW195807   0.525   8.848   3.258  0.1120  2.1111  0.1275
31743SOL    HW295808   0.473   8.832   3.117  0.8295  0.7513 -0.0046
31744SOL     OW95809   0.544   9.175   1.793 -0.7136 -0.1344 -0.3571
31744SOL    HW195810   0.626   9.142   1.757 -0.5259  0.8136 -0.8299
31744SOL    HW295811   0.483   9.101   1.787  0.0590 -0.7976 -0.1409
31745SOL     OW95812   4.209   0.755   6.025  0.1646  0.4542 -0.8947
31745SOL    HW195813   4.124   0.775   5.985 -0.1404  0.3346 -0.3069
31745SOL    HW295814   4.260   0.717   5.953  0.0124  1.3027 -1.4639
31746SOL     OW95815   0.461   5.454   6.950 -0.3887 -0.2869  0.9284
31746SOL    HW195816   0.446   5.549   6.956  2.2077  0.3234 -0.4433
31746SOL    HW295817   0.542   5.440   6.999  1.7808 -0.9245 -2.5198
31747SOL     OW95818   7.115   7.580   2.613 -0.5351 -0.0335 -0.1928
31747SOL    HW195819   7.123   7.570   2.518  0.4383 -2.7336  0.0843
31747SOL    HW295820   7.029   7.544   2.634  0.0790 -1.3857  0.1129
31748SOL     OW95821   2.095   3.346   3.692  0.4837  1.0306  0.0891
31748SOL    HW195822   2.128   3.263   3.725 -0.2217  0.3940 -0.7480
31748SOL    HW295823   2.159   3.411   3.720 -0.1009  0.5730  2.7755
31749SOL     OW95824   9.036   3.545   5.208  0.7525  0.2766 -0.2913
31749SOL    HW195825   9.074   3.552   5.120  1.2703  0.9813 -0.0224
31749SOL    HW295826   9.110   3.561   5.267 -0.2160  3.2804  0.2526
31750SOL     OW95827   6.157   9.132   0.895  0.3087  0.8588  0.8135
31750SOL    HW195828   6.199   9.049   0.919  2.0153  1.5061  0.1994
31750SOL    HW295829   6.229   9.192   0.880 -0.7761  1.6639 -1.7155
31751SOL     OW95830   4.717   9.440  10.006  0.3011  0.0760 -0.2861
31751SOL    HW195831   4.698   9.506   9.941  0.2570 -0.8683 -1.2605
31751SOL    HW295832   4.755   9.367   9.957  2.0112  0.0439  0.9781
31752SOL     OW95833   1.221   8.769   1.946  0.2449 -0.0692 -0.3314
31752SOL    HW195834   1.305   8.799   1.911  0.1590  1.4849  0.7431
31752SOL    HW295835   1.178   8.848   1.978 -0.7409 -1.1189  1.0265
31753SOL     OW95836   3.434   6.524   0.661  0.2569  0.0380 -0.2229
31753SOL    HW195837   3.374   6.516   0.587  1.4040  0.0913 -1.1967
31753SOL    HW295838   3.463   6.615   0.660  0.8398 -0.1380 -0.1785
31754SOL     OW95839   0.414   9.393   2.282 -0.0441 -0.0913  0.3055
31754SOL    HW195840   0.391   9.323   2.221  1.7423  0.2424 -0.8370
31754SOL    HW295841   0.461   9.350   2.353  1.6387 -0.0420 -0.7237
31755SOL     OW95842   4.052   2.689   2.188  0.6046 -0.0255  0.5108
31755SOL    HW195843   4.104   2.711   2.265 -0.2360 -0.4354  1.2153
31755SOL    HW295844   3.975   2.644   2.223 -0.5152  1.0710 -0.4344
31756SOL     OW95845   1.282   4.434   8.817 -0.1823  0.4216 -0.0196
31756SOL    HW195846   1.190   4.416   8.797 -0.3099  1.7048 -0.6300
31756SOL    HW295847   1.330   4.399   8.742  0.2753 -3.7823  1.9087
31757SOL     OW95848   4.241   4.273   3.666  0.1799  1.0776  0.1701
31757SOL    HW195849   4.161   4.240   3.707 -1.2566  4.5113  0.5048
31757SOL    HW295850   4.212   4.306   3.581  1.0924  2.8050  0.4857
31758SOL     OW95851   4.532   4.394   5.528 -0.2178 -0.4054  0.0751
31758SOL    HW195852   4.604   4.455   5.543 -0.1445 -0.7719  1.2938
31758SOL    HW295853   4.574   4.315   5.494 -0.3169  0.1923 -1.5495
31759SOL     OW95854   0.677   2.777   3.673  0.5133 -0.0802 -0.4208
31759SOL    HW195855   0.688   2.759   3.579  0.3247 -0.1636 -0.4289
31759SOL    HW295856   0.588   2.746   3.692  0.9265 -1.0319  0.0108
31760SOL     OW95857   5.430   2.137   3.776 -0.1297 -0.1462  0.3261
31760SOL    HW195858   5.485   2.111   3.850  0.6954  0.3039 -0.1157
31760SOL    HW295859   5.411   2.055   3.730  0.3967 -0.2726  0.3296
31761SOL     OW95860   5.096   4.451   6.486  0.3086 -0.6604 -0.2125
31761SOL    HW195861   5.124   4.507   6.414  0.2792 -2.0507 -1.3480
31761SOL    HW295862   5.027   4.501   6.530 -1.0345 -0.5461 -2.3132
31762SOL     OW95863   8.310   8.912   9.731  0.3132  0.4572  0.4054
31762SOL    HW195864   8.404   8.931   9.741  1.0735 -1.0907 -2.5524
31762SOL    HW295865   8.300   8.822   9.763 -0.3768  0.9317  1.5578
31763SOL     OW95866   0.565   8.995   2.794 -0.2332 -0.4965 -0.0848
31763SOL    HW195867   0.557   8.929   2.863  2.2141 -2.5060 -1.4965
31763SOL    HW295868   0.491   8.977   2.735 -0.8813 -0.4572  0.7044
31764SOL     OW95869   9.566   5.694   8.741 -0.4527  0.5724 -0.2694
31764SOL    HW195870   9.641   5.740   8.780  1.0220 -1.0635 -1.0751
31764SOL    HW295871   9.586   5.690   8.648 -1.2391 -0.4330 -0.4123
31765SOL     OW95872   2.640   7.256   4.202  0.2886  0.3595  0.5897
31765SOL    HW195873   2.733   7.235   4.206  0.0897 -1.3698 -1.8047
31765SOL    HW295874   2.636   7.342   4.159  0.7744  0.3670  0.5592
31766SOL     OW95875   3.217   1.554   1.970 -0.8985  0.4640 -0.6750
31766SOL    HW195876   3.284   1.529   2.033 -0.3069 -0.9822 -1.8102
31766SOL    HW295877   3.182   1.637   2.003  0.3673  0.4655  0.7606
31767SOL     OW95878   4.086   2.619   7.228  0.0123 -0.2651 -0.4425
31767SOL    HW195879   4.102   2.696   7.284 -1.9095 -0.2315  0.1576
31767SOL    HW295880   4.153   2.556   7.254 -0.3219  0.0589  1.3606
31768SOL     OW95881   3.409   4.345   5.823 -0.1570  0.5748  0.1299
31768SOL    HW195882   3.342   4.301   5.875 -1.1689  0.6191 -1.1012
31768SOL    HW295883   3.444   4.278   5.766 -0.0144  0.8384 -0.0962
31769SOL     OW95884   5.978   8.664   8.446 -0.5143  0.0679  0.1446
31769SOL    HW195885   6.024   8.595   8.495  0.9439  0.8136 -0.1241
31769SOL    HW295886   5.981   8.740   8.504  1.6572  1.1056 -1.2219
31770SOL     OW95887   8.502   2.410   2.819 -0.1988 -0.0903 -0.1795
31770SOL    HW195888   8.520   2.490   2.868  0.0482  0.1128 -0.5886
31770SOL    HW295889   8.484   2.440   2.730 -0.5451 -0.4580 -0.2366
31771SOL     OW95890   7.582   0.803   6.197  0.1968  0.0148 -0.8677
31771SOL    HW195891   7.489   0.825   6.194 -0.0393 -0.4178  1.3551
31771SOL    HW295892   7.617   0.859   6.266  0.9894 -1.7462  0.2253
31772SOL     OW95893   6.203   6.684   9.426 -0.0349  0.5154  0.0707
31772SOL    HW195894   6.134   6.680   9.494  0.0080 -0.0745  0.0862
31772SOL    HW295895   6.282   6.706   9.475 -0.0689  0.4416  0.1603
31773SOL     OW95896   9.943   4.387   0.737  0.1017  0.3772  0.0271
31773SOL    HW195897   9.972   4.474   0.708  0.9926  0.3560  0.7859
31773SOL    HW295898   9.848   4.390   0.730  0.1371  1.3178 -0.2271
31774SOL     OW95899   0.883   2.732   8.742  0.4332  0.0203 -0.3904
31774SOL    HW195900   0.884   2.760   8.833  0.4140  0.5049 -0.5363
31774SOL    HW295901   0.940   2.794   8.697  0.9409 -0.5909 -0.6023
31775SOL     OW95902   3.743   7.934   7.156  0.2552  0.0545 -0.1113
31775SOL    HW195903   3.834   7.945   7.183  0.7355 -0.1020 -1.5857
31775SOL    HW295904   3.707   7.870   7.217  2.3291 -3.1535 -1.9709
31776SOL     OW95905   3.204   1.210   1.824 -0.6906  0.2390  0.1937
31776SOL    HW195906   3.115   1.176   1.814 -1.4193  1.8968  0.7158
31776SOL    HW295907   3.229   1.186   1.913 -0.6496 -0.1517  0.0771
31777SOL     OW95908   3.480   3.691   3.570  0.4218 -0.7310 -0.3602
31777SOL    HW195909   3.518   3.654   3.650  2.6171  0.2617 -0.8485
31777SOL    HW295910   3.512   3.782   3.568  0.9431 -0.8953 -2.6256
31778SOL     OW95911   3.060   4.881   0.736  0.9698 -0.0704 -0.1328
31778SOL    HW195912   3.082   4.967   0.772  1.1311 -0.7324  1.4208
31778SOL    HW295913   3.074   4.820   0.808  0.3096 -1.3446 -1.0358
31779SOL     OW95914   0.207   9.317   1.115 -0.3934 -0.0460  0.1631
31779SOL    HW195915   0.262   9.322   1.037 -1.0196 -2.1513 -0.4647
31779SOL    HW295916   0.266   9.284   1.184 -0.5129 -0.9678 -0.1631
31780SOL     OW95917   0.962   1.472   2.369 -0.6421  0.0316  0.1138
31780SOL    HW195918   1.040   1.523   2.343  1.2684 -1.5642  2.2731
31780SOL    HW295919   0.940   1.421   2.291 -1.2605  2.4180 -1.3938
31781SOL     OW95920   6.047   0.105   0.162  0.1428 -0.0402  0.0526
31781SOL    HW195921   6.103   0.177   0.191 -0.3283  0.8422 -1.1825
31781SOL    HW295922   5.960   0.128   0.193 -0.1324  0.2743 -0.9298
31782SOL     OW95923   7.605   6.938   5.427  0.2938  0.3530 -0.8152
31782SOL    HW195924   7.619   6.846   5.449 -0.0977  0.6616  0.9024
31782SOL    HW295925   7.685   6.981   5.457 -1.0660  1.0790  2.1450
31783SOL     OW95926   6.311   8.603   5.408 -0.2978 -0.8287 -0.1619
31783SOL    HW195927   6.365   8.667   5.455 -2.3326  0.8955 -0.0313
31783SOL    HW295928   6.348   8.602   5.320  0.1861  0.0316  0.0139
31784SOL     OW95929   6.506   3.630   5.452 -0.4654 -0.3210 -0.5274
31784SOL    HW195930   6.487   3.570   5.380 -1.1058  1.9850 -2.3677
31784SOL    HW295931   6.440   3.698   5.446  1.0983  1.3995  0.5465
31785SOL     OW95932   2.335   0.845   1.173 -0.3154 -0.3651 -0.2227
31785SOL    HW195933   2.304   0.779   1.111  0.9215 -0.1543 -1.1191
31785SOL    HW295934   2.300   0.927   1.141  0.4901 -0.2294 -0.7826
31786SOL     OW95935   0.533   8.001   9.194  0.0083 -0.2810 -0.3313
31786SOL    HW195936   0.480   7.974   9.268 -1.3391  0.3621 -1.0301
31786SOL    HW295937   0.522   8.096   9.191  0.3423 -0.2628 -1.1304
31787SOL     OW95938   6.027   7.529   1.625  0.0176  0.1526 -0.2799
31787SOL    HW195939   5.965   7.506   1.556  1.7858 -0.4687 -1.7455
31787SOL    HW295940   6.112   7.497   1.593  0.8227 -0.7830  2.4860
31788SOL     OW95941   3.020   2.620   1.962  0.4636  0.2238 -0.2695
31788SOL    HW195942   2.995   2.685   2.027  1.7438 -1.1404  1.6868
31788SOL    HW295943   2.937   2.583   1.932 -0.1419  0.4341  1.0880
31789SOL     OW95944   8.832   4.090   2.761  0.8777  0.6265 -0.1109
31789SOL    HW195945   8.917   4.118   2.793  0.1652  0.1666  2.3806
31789SOL    HW295946   8.848   4.004   2.723  1.6067  0.7720 -0.1408
31790SOL     OW95947   0.872   5.793   2.101  0.5787  0.0847 -0.1620
31790SOL    HW195948   0.799   5.785   2.040 -0.5111 -0.1091  1.1285
31790SOL    HW295949   0.877   5.886   2.121  0.4148  0.0450  0.0669
31791SOL     OW95950   8.429   4.495   9.699  0.4380  0.0368  0.0291
31791SOL    HW195951   8.473   4.513   9.616  1.0203  0.7249  0.4714
31791SOL    HW295952   8.454   4.405   9.720 -1.5010 -0.9659 -1.6004
31792SOL     OW95953   8.276   8.578   6.144 -0.2224 -0.8483 -0.3107
31792SOL    HW195954   8.319   8.552   6.062  1.0536 -1.8189  0.6163
31792SOL    HW295955   8.228   8.657   6.122  0.4927 -0.8104 -1.8844
31793SOL     OW95956   7.950   8.094   3.154 -0.2490 -0.0574 -0.0727
31793SOL    HW195957   7.860   8.074   3.179 -0.2750 -1.6581 -1.2943
31793SOL    HW295958   7.950   8.088   3.058  1.0380  0.4852 -0.1252
31794SOL     OW95959   3.450   4.685   1.647 -0.0349  0.2316 -0.4429
31794SOL    HW195960   3.369   4.649   1.682 -0.0247  0.9405  0.3353
31794SOL    HW295961   3.481   4.619   1.584 -1.4882  0.2078 -1.1727
31795SOL     OW95962   5.927   2.587   0.233  0.0233 -0.8492  0.5686
31795SOL    HW195963   5.868   2.607   0.160 -0.1644 -2.7525  0.1494
31795SOL    HW295964   5.869   2.581   0.309  0.0941  0.1854  0.7209
31796SOL     OW95965   0.974   5.778   7.970  0.0033  0.2275  0.1594
31796SOL    HW195966   1.020   5.850   8.012  0.7291  0.8003 -1.5184
31796SOL    HW295967   1.034   5.748   7.901 -1.8848  0.6755 -1.7889
31797SOL     OW95968   0.919   9.913   3.567 -0.0965  0.1856 -0.2254
31797SOL    HW195969   0.896   9.986   3.624 -0.2096  0.2067 -0.2985
31797SOL    HW295970   0.977   9.951   3.501 -1.0437  0.4352 -0.9147
31798SOL     OW95971   8.577   2.653   2.965 -0.9561  0.1198 -0.2877
31798SOL    HW195972   8.589   2.686   2.876 -0.3267 -1.1697 -0.7106
31798SOL    HW295973   8.601   2.726   3.021  0.4720  0.3845 -1.1901
31799SOL     OW95974   5.811   2.261   1.899 -0.0168 -0.1534 -0.1802
31799SOL    HW195975   5.723   2.251   1.936  0.9055 -0.1723  2.1244
31799SOL    HW295976   5.810   2.349   1.860 -1.4304 -0.6639 -1.4196
31800SOL     OW95977   0.737   5.170   1.265  0.0706  0.2558 -0.1394
31800SOL    HW195978   0.711   5.253   1.225 -1.5306 -1.0824 -2.0301
31800SOL    HW295979   0.819   5.190   1.309 -0.3779  2.8935 -0.3091
31801SOL     OW95980   9.801   2.325   7.906  0.0026 -0.0460  0.2641
31801SOL    HW195981   9.769   2.235   7.909 -2.2904  0.7514  1.2508
31801SOL    HW295982   9.825   2.345   7.997  0.1119  0.4814  0.1228
31802SOL     OW95983   9.671   4.145   0.898  0.1419  0.5209 -0.3401
31802SOL    HW195984   9.590   4.179   0.861 -0.5173  0.4025  0.9415
31802SOL    HW295985   9.728   4.131   0.822 -1.2173  0.0933 -1.3261
31803SOL     OW95986   9.711   3.229   6.897  0.2306  0.4520 -0.5659
31803SOL    HW195987   9.740   3.312   6.858 -0.4800  0.5528 -0.9007
31803SOL    HW295988   9.675   3.253   6.982 -0.2378  0.5300 -0.7831
31804SOL     OW95989   0.071   6.664   3.806  0.5342  0.6250  0.5981
31804SOL    HW195990   0.009   6.680   3.735  0.8734 -0.7144 -0.0239
31804SOL    HW295991   0.125   6.744   3.808  0.1251  0.9371 -0.2359
31805SOL     OW95992   4.872   3.619   3.604 -0.0249 -0.1547 -0.1172
31805SOL    HW195993   4.918   3.682   3.659  0.4070  2.3708 -3.1198
31805SOL    HW295994   4.783   3.618   3.639  0.7128 -0.3092  1.8907
31806SOL     OW95995   1.064   4.823   8.300 -0.3898  0.3574 -0.1932
31806SOL    HW195996   1.012   4.768   8.358 -0.2922  1.0355  0.5556
31806SOL    HW295997   1.142   4.846   8.351  0.2840 -0.0084 -1.0208
31807SOL     OW95998   1.649   4.530   3.188  0.4501  0.2131  0.0965
31807SOL    HW195999   1.729   4.561   3.230  0.2318 -1.8922  2.3541
31807SOL    HW296000   1.645   4.437   3.211 -2.0021 -0.0339 -1.0230
31808SOL     OW96001   5.194   9.902   0.525 -0.5055 -0.2146  1.1588
31808SOL    HW196002   5.177   9.825   0.579  2.2566 -0.8949  1.1898
31808SOL    HW296003   5.269   9.945   0.565  0.1043  0.6238 -0.7421
31809SOL     OW96004   8.770   5.262   3.466  0.5997  0.2098  0.1805
31809SOL    HW196005   8.756   5.270   3.561 -1.6884  2.7457 -0.2292
31809SOL    HW296006   8.705   5.199   3.437  0.7774  0.0119  0.2151
31810SOL     OW96007   3.521   2.933   0.016  0.8614 -0.4725 -0.4012
31810SOL    HW196008   3.568   2.904  -0.062  0.9712 -0.4890 -0.3287
31810SOL    HW296009   3.588   2.936   0.085  0.5451 -1.5053 -0.0434
31811SOL     OW96010   8.124   7.135   3.769  0.6222  0.1598  0.3936
31811SOL    HW196011   8.042   7.152   3.724  1.7074  0.5850 -1.5108
31811SOL    HW296012   8.102   7.142   3.862 -2.2419 -3.0884  0.1700
31812SOL     OW96013   0.316   9.452   3.234  0.7141  0.4842 -0.2105
31812SOL    HW196014   0.346   9.466   3.144 -0.6392  0.1729 -0.7360
31812SOL    HW296015   0.337   9.534   3.279  0.1420  1.1742 -1.1703
31813SOL     OW96016   4.574   4.405   6.309  0.2995 -0.1309  0.2237
31813SOL    HW196017   4.620   4.324   6.335 -1.0059 -0.9157  0.1631
31813SOL    HW296018   4.620   4.433   6.229 -0.0012 -1.5184 -0.4711
31814SOL     OW96019   8.618   8.925   5.039  0.2048  0.0097  0.6582
31814SOL    HW196020   8.530   8.922   5.001  0.2509  1.5156  0.3609
31814SOL    HW296021   8.639   9.018   5.041  1.3132 -0.2481  1.8590
31815SOL     OW96022   1.084   3.740   8.011 -0.1186  0.2244 -0.0128
31815SOL    HW196023   1.139   3.801   8.060  0.1429 -0.9353  1.2068
31815SOL    HW296024   1.101   3.655   8.052 -0.0213 -0.7775 -2.0199
31816SOL     OW96025   7.424   2.459   1.028  0.2615 -0.4865  0.4500
31816SOL    HW196026   7.493   2.412   0.980  2.3310  2.2049  0.5184
31816SOL    HW296027   7.348   2.456   0.970  1.2781 -1.2027 -0.8998
31817SOL     OW96028   0.605   9.279   5.389  0.3290  0.0425 -0.6523
31817SOL    HW196029   0.614   9.209   5.324 -2.1795  0.5303 -1.6387
31817SOL    HW296030   0.538   9.248   5.450  1.5628  0.2442  0.8821
31818SOL     OW96031   3.486   5.762   6.117 -0.4129  0.3445 -0.2188
31818SOL    HW196032   3.452   5.734   6.033  0.0858 -0.4339 -0.1752
31818SOL    HW296033   3.408   5.780   6.170 -0.7519 -0.9346 -0.2671
31819SOL     OW96034   4.977   8.484   3.039 -0.1835  0.6915 -0.5564
31819SOL    HW196035   5.003   8.495   2.948  1.1276 -0.2893 -0.3330
31819SOL    HW296036   5.010   8.397   3.063  1.8527  1.9459  1.5883
31820SOL     OW96037   7.397   3.423   5.925 -0.2987 -0.0228  0.1629
31820SOL    HW196038   7.422   3.452   6.013  0.1213 -0.4585  0.1874
31820SOL    HW296039   7.395   3.328   5.930  0.4846 -0.0804 -0.5022
31821SOL     OW96040   5.434   1.539   4.498  0.1044 -0.4903 -0.1162
31821SOL    HW196041   5.453   1.557   4.590 -1.4727 -2.7992  0.7738
31821SOL    HW296042   5.422   1.444   4.495 -1.7675 -0.2628 -2.3105
31822SOL     OW96043   1.807   2.404   3.902  0.5041 -0.1649  0.1486
31822SOL    HW196044   1.838   2.481   3.951 -3.5584  1.9927 -0.2620
31822SOL    HW296045   1.861   2.403   3.823  1.0338  2.0197  0.4096
31823SOL     OW96046   2.150   4.228   5.167  0.1415  0.5877 -0.1993
31823SOL    HW196047   2.169   4.210   5.259  0.7792  1.4504 -0.1543
31823SOL    HW296048   2.226   4.195   5.119  0.8402  2.1044 -0.2054
31824SOL     OW96049   1.998   5.706   0.290  0.5355  0.1557 -0.0298
31824SOL    HW196050   2.038   5.791   0.271  0.3144 -0.1045 -1.8768
31824SOL    HW296051   2.073   5.647   0.301  0.6783  0.4025  0.3656
31825SOL     OW96052   8.032   6.504   4.771  0.0453 -0.3413 -0.2127
31825SOL    HW196053   8.112   6.555   4.756 -0.0768 -0.0718  0.0352
31825SOL    HW296054   8.030   6.441   4.699  1.3777 -1.4986  0.7163
31826SOL     OW96055   1.925   2.709   6.929 -0.2092  0.0429 -0.0177
31826SOL    HW196056   1.969   2.626   6.946 -0.9257  0.0090  2.0132
31826SOL    HW296057   1.981   2.754   6.865  0.1725 -1.9783 -1.1935
31827SOL     OW96058   5.067   7.574   0.623 -0.2557  0.2401  0.0004
31827SOL    HW196059   4.991   7.559   0.679 -0.1097  0.1011  0.1636
31827SOL    HW296060   5.112   7.649   0.664 -0.3274  0.3485 -0.1192
31828SOL     OW96061   5.740   7.832   6.163  0.5935 -0.3088  0.0811
31828SOL    HW196062   5.687   7.753   6.165  1.4906 -0.9662 -1.0127
31828SOL    HW296063   5.697   7.888   6.098  1.7558 -1.2631 -1.5776
31829SOL     OW96064   8.587   3.960   9.159  0.0685 -0.0658 -0.0525
31829SOL    HW196065   8.627   3.889   9.208 -1.6432  1.2586  3.5664
31829SOL    HW296066   8.505   3.978   9.204 -0.8328  2.4791 -2.4110
31830SOL     OW96067   0.299   1.758   8.320  0.0175  0.2858  0.0139
31830SOL    HW196068   0.394   1.759   8.330 -0.1172 -0.3586  1.5293
31830SOL    HW296069   0.273   1.669   8.343 -1.1456  1.0070  1.6892
31831SOL     OW96070   4.851   4.686   8.938  0.3930 -0.3186 -0.1320
31831SOL    HW196071   4.820   4.739   8.864  2.4993  0.8000 -0.2831
31831SOL    HW296072   4.793   4.610   8.939 -2.0575  1.4134 -0.6062
31832SOL     OW96073   5.817   8.263   1.366  0.2400  0.5170 -0.4257
31832SOL    HW196074   5.815   8.273   1.270  1.0804 -1.8613 -0.7678
31832SOL    HW296075   5.899   8.304   1.393 -0.0993  1.3844 -0.6886
31833SOL     OW96076   1.974   4.395   7.552  0.0700  0.3586 -0.3785
31833SOL    HW196077   1.925   4.476   7.544 -2.2854 -0.9789 -0.5530
31833SOL    HW296078   2.049   4.406   7.494  0.4976  2.8066  0.5133
31834SOL     OW96079   3.735   6.417   4.348 -0.2954 -0.0304  0.4320
31834SOL    HW196080   3.772   6.330   4.331  0.7929  0.2763  1.1318
31834SOL    HW296081   3.707   6.448   4.262 -0.1108 -0.8175  0.0781
31835SOL     OW96082   1.669   2.986   3.854 -0.3483 -0.3178 -0.0116
31835SOL    HW196083   1.726   3.062   3.866 -0.0174 -0.3961 -0.9767
31835SOL    HW296084   1.724   2.922   3.808 -0.1326 -1.7478  2.1019
31836SOL     OW96085   7.963   3.674   9.349  0.1442 -0.2591  0.2226
31836SOL    HW196086   7.896   3.732   9.387  0.8055 -0.2856  1.4774
31836SOL    HW296087   7.917   3.591   9.337  0.0143 -0.3668  1.3576
31837SOL     OW96088   6.613   8.727   8.292 -0.2627  0.6750  0.3771
31837SOL    HW196089   6.548   8.660   8.315 -0.8310  1.3774  0.8651
31837SOL    HW296090   6.624   8.778   8.372  0.0896  1.2297 -0.0181
31838SOL     OW96091   2.927   9.234   6.370 -0.3452 -0.0391 -0.0695
31838SOL    HW196092   3.016   9.203   6.386 -0.2960  0.4254  0.6152
31838SOL    HW296093   2.922   9.244   6.275  0.5153  0.4382 -0.0748
31839SOL     OW96094   4.783   0.428   5.858  0.1752 -0.3754  0.1488
31839SOL    HW196095   4.709   0.398   5.911 -0.7911 -0.4335 -1.1859
31839SOL    HW296096   4.844   0.465   5.922 -1.4163  0.5280  1.2293
31840SOL     OW96097   5.730   6.617   9.278 -0.9680  0.2080 -0.2101
31840SOL    HW196098   5.665   6.687   9.285  0.7450  1.8300  0.5362
31840SOL    HW296099   5.790   6.648   9.210 -0.4523 -0.8165 -0.2405
31841SOL     OW96100   0.825   0.308   4.087 -0.6645  0.4916 -0.1573
31841SOL    HW196101   0.797   0.229   4.133 -0.3164  0.1964 -0.4470
31841SOL    HW296102   0.748   0.334   4.036 -0.4224 -0.3151 -0.9518
31842SOL     OW96103   0.279   4.578   3.322  0.5547  0.1931 -0.1026
31842SOL    HW196104   0.185   4.584   3.339  0.6738 -0.2692  0.7653
31842SOL    HW296105   0.293   4.635   3.246 -0.5530 -0.3637 -0.7499
31843SOL     OW96106   9.366   7.906   6.461  0.4830 -0.8788 -0.3886
31843SOL    HW196107   9.361   7.970   6.391 -1.3904 -0.4767  0.0685
31843SOL    HW296108   9.305   7.837   6.436 -1.4089  0.0105  1.5091
31844SOL     OW96109   2.685   5.289   0.889 -0.2190  0.2391 -0.1980
31844SOL    HW196110   2.669   5.195   0.885 -1.3411  0.3486  0.9206
31844SOL    HW296111   2.720   5.303   0.978  0.3197  0.8337 -0.4941
31845SOL     OW96112   6.060   8.727   7.635 -0.0114  0.4694 -0.4440
31845SOL    HW196113   5.995   8.744   7.704 -1.3272 -0.8781 -1.2933
31845SOL    HW296114   6.098   8.643   7.658  1.3447  1.1585 -0.0660
31846SOL     OW96115   3.221   0.395   2.865  0.2339 -0.8593 -0.3118
31846SOL    HW196116   3.131   0.419   2.887 -0.2832 -2.1684 -0.9672
31846SOL    HW296117   3.274   0.463   2.908 -1.0387 -0.1510  0.1981
31847SOL     OW96118   9.656   1.562   9.703  0.2153 -0.1640 -0.0032
31847SOL    HW196119   9.677   1.471   9.681 -0.6095 -0.3087 -0.2500
31847SOL    HW296120   9.637   1.604   9.619 -0.2567  0.0044  0.1817
31848SOL     OW96121   8.055   3.381   3.384 -0.0808 -0.0260 -0.2482
31848SOL    HW196122   8.109   3.432   3.324  1.2620 -0.9944  0.0908
31848SOL    HW296123   8.096   3.394   3.470 -1.5935  0.8243  0.3990
31849SOL     OW96124   7.800   8.950   8.640 -0.1399  0.3046  0.1335
31849SOL    HW196125   7.824   8.981   8.553  1.4768 -1.4059 -0.1144
31849SOL    HW296126   7.752   8.869   8.624 -1.1398  0.7415  0.8174
31850SOL     OW96127   0.792   4.616   7.599  0.5049 -0.2201  0.0573
31850SOL    HW196128   0.841   4.542   7.563  0.4178  0.5005 -1.6797
31850SOL    HW296129   0.730   4.577   7.661  0.8170 -1.5342 -0.4303
31851SOL     OW96130   2.561   6.857   9.592 -0.1604 -0.0884  0.0928
31851SOL    HW196131   2.613   6.925   9.549  1.2478 -0.1415  1.6092
31851SOL    HW296132   2.530   6.802   9.520  0.4585  0.9355 -0.9999
31852SOL     OW96133   9.571   6.270   7.946 -0.0210  0.3836  0.5878
31852SOL    HW196134   9.513   6.224   7.886 -0.1478  2.1839 -0.7478
31852SOL    HW296135   9.517   6.287   8.023 -0.7550  0.5825  0.0335
31853SOL     OW96136   4.489   5.952   9.597  0.1620  0.1232  0.1557
31853SOL    HW196137   4.576   5.911   9.600 -0.6448 -1.6866  0.3850
31853SOL    HW296138   4.440   5.910   9.668 -1.4523 -0.2550 -1.1194
31854SOL     OW96139   3.217   8.000   5.747  0.2636 -0.7164  0.2596
31854SOL    HW196140   3.234   8.022   5.839  1.4385 -1.6232  0.2843
31854SOL    HW296141   3.271   7.922   5.731 -1.0798 -1.4741 -0.7812
31855SOL     OW96142   0.471   2.079   4.034  0.2579 -0.3492  0.1311
31855SOL    HW196143   0.505   2.160   4.072  0.9984 -0.2538 -0.7013
31855SOL    HW296144   0.382   2.072   4.069  0.7920 -0.1233  1.6411
31856SOL     OW96145   6.033   5.548   2.909  0.2534 -0.4107 -0.1359
31856SOL    HW196146   5.960   5.610   2.907  0.8460  0.3254  0.5475
31856SOL    HW296147   6.074   5.555   2.823  1.2867  1.3690  0.4465
31857SOL     OW96148   1.307   2.991   9.038 -0.0803  0.0083  0.3678
31857SOL    HW196149   1.282   3.083   9.030 -0.5644 -0.2085 -0.7982
31857SOL    HW296150   1.336   2.982   9.129  0.3543  1.3988  0.3915
31858SOL     OW96151   0.312   9.898   4.714  0.4201 -0.4366  0.6167
31858SOL    HW196152   0.346   9.817   4.752  2.1987  0.5091  1.1568
31858SOL    HW296153   0.365   9.967   4.752  1.5376  0.7066 -2.6197
31859SOL     OW96154   3.857   4.616   0.869  0.2541 -0.1310  0.0062
31859SOL    HW196155   3.900   4.596   0.953  0.8920  1.6480  0.1504
31859SOL    HW296156   3.873   4.710   0.856 -0.5562 -0.1970 -1.7095
31860SOL     OW96157   4.068   6.780   8.963  0.4907 -0.5031 -0.2299
31860SOL    HW196158   4.085   6.827   8.881 -1.1511  1.6896  0.5976
31860SOL    HW296159   4.143   6.802   9.019 -0.4173  1.5313  0.2659
31861SOL     OW96160   3.089   8.934   7.604 -0.6666  0.1609  0.1109
31861SOL    HW196161   3.144   9.009   7.627 -0.7065 -0.0593  0.9820
31861SOL    HW296162   3.124   8.862   7.657 -0.2178 -0.6059 -1.1939
31862SOL     OW96163   5.011   7.144   9.696 -0.4246 -0.0785 -0.1155
31862SOL    HW196164   5.016   7.115   9.787 -2.5126  1.7501  0.6768
31862SOL    HW296165   5.085   7.204   9.687  1.6156 -2.5118 -0.6337
31863SOL     OW96166   5.681   3.016   5.305  0.1259  0.0974 -0.0908
31863SOL    HW196167   5.674   3.069   5.225  0.7041  1.0071  0.4326
31863SOL    HW296168   5.772   2.987   5.306 -0.0043 -0.3116 -0.0012
31864SOL     OW96169   9.597   7.842   3.176  0.2553  0.2320  0.1808
31864SOL    HW196170   9.552   7.916   3.136  0.0639 -0.5369 -1.0869
31864SOL    HW296171   9.648   7.880   3.247  0.5304  1.6408 -0.7315
31865SOL     OW96172   0.458   2.124   6.468  0.0990  0.0338  0.6288
31865SOL    HW196173   0.450   2.149   6.376 -2.3370  0.3873  0.8753
31865SOL    HW296174   0.489   2.033   6.465 -1.6734 -0.5734 -0.6208
31866SOL     OW96175   0.701   5.165   6.114 -0.1487  0.5331 -0.2679
31866SOL    HW196176   0.738   5.251   6.092  0.2999  0.7440  1.1669
31866SOL    HW296177   0.770   5.103   6.089 -0.8006  0.4862 -2.0737
31867SOL     OW96178   4.737   8.008   9.467  0.2187 -0.3243 -0.0820
31867SOL    HW196179   4.643   7.994   9.463  0.3499 -0.9307 -1.7439
31867SOL    HW296180   4.758   8.002   9.561 -1.0958 -2.0630  0.1495
31868SOL     OW96181   5.620   5.421   1.533 -0.6997  0.3179  0.6353
31868SOL    HW196182   5.623   5.399   1.440 -0.2850  1.3971  0.3703
31868SOL    HW296183   5.712   5.436   1.557 -0.6725 -1.1216  1.5327
31869SOL     OW96184   5.348   3.922   5.872  0.2286  0.0510 -0.4033
31869SOL    HW196185   5.281   3.947   5.935  1.0847 -0.3292  0.6836
31869SOL    HW296186   5.423   3.977   5.894  2.0938 -3.0948  1.9108
31870SOL     OW96187   2.882   9.884   1.799 -0.1771 -0.3172  0.2689
31870SOL    HW196188   2.869   9.954   1.735  0.1170  0.3057  0.8769
31870SOL    HW296189   2.901   9.807   1.746  0.2303  0.2250 -0.3977
31871SOL     OW96190   9.315   5.193   9.788 -0.1169 -0.3412  0.1232
31871SOL    HW196191   9.304   5.101   9.764 -0.2680 -0.7983  1.7847
31871SOL    HW296192   9.237   5.213   9.840  0.6906  0.2220  1.1575
31872SOL     OW96193   3.164   0.195   9.616  0.9765 -0.1991  0.0334
31872SOL    HW196194   3.229   0.124   9.621  0.1708 -1.0614 -1.2309
31872SOL    HW296195   3.085   0.153   9.582  0.2436  1.1698 -0.0190
31873SOL     OW96196   2.192   8.560   0.118 -0.1621  0.1370 -0.4961
31873SOL    HW196197   2.133   8.561   0.194 -1.0965 -0.2910 -1.1977
31873SOL    HW296198   2.146   8.611   0.051  0.6047  0.4126 -0.8208
31874SOL     OW96199   5.000   5.466   8.040  0.2581 -0.3391  0.3836
31874SOL    HW196200   4.947   5.388   8.058  0.4751 -0.6685 -0.3723
31874SOL    HW296201   5.011   5.467   7.945 -1.3072  1.6668  0.1609
31875SOL     OW96202   6.054   5.671   4.510  0.0513 -0.5953  0.1963
31875SOL    HW196203   6.139   5.636   4.484 -0.2190 -0.2259 -1.2572
31875SOL    HW296204   6.027   5.726   4.437 -1.9094 -1.5105  0.1786
31876SOL     OW96205   7.184   4.726   4.820  0.2543  0.2058 -0.6782
31876SOL    HW196206   7.114   4.665   4.840  0.8645 -0.2676  0.0555
31876SOL    HW296207   7.219   4.696   4.736  0.6125 -0.5174 -0.2758
31877SOL     OW96208   2.240   3.779   8.108  0.0027  0.5817  0.4480
31877SOL    HW196209   2.227   3.833   8.030  1.6483  0.2952 -0.0708
31877SOL    HW296210   2.263   3.842   8.177 -1.2122  0.8129  0.6598
31878SOL     OW96211   2.819   8.985   0.911 -0.3845  0.9144 -0.2753
31878SOL    HW196212   2.823   9.046   0.985 -1.0990  1.9937 -1.0842
31878SOL    HW296213   2.804   8.900   0.951  2.3962  0.9100  1.0242
31879SOL     OW96214   7.913   7.331   0.894  0.0984  0.3276  0.1410
31879SOL    HW196215   8.001   7.364   0.874  0.4861 -0.2182  0.9359
31879SOL    HW296216   7.924   7.237   0.905 -0.5141  0.3085  0.6356
31880SOL     OW96217   2.151   5.079   6.422 -0.3281  0.4962  0.3689
31880SOL    HW196218   2.145   5.028   6.503 -1.7741  1.3606  0.8546
31880SOL    HW296219   2.061   5.080   6.389  0.1370  0.6756 -0.9280
31881SOL     OW96220   7.485   1.534   6.967  1.0353 -0.9330  0.4975
31881SOL    HW196221   7.472   1.526   7.061  1.8058 -2.3698  0.4986
31881SOL    HW296222   7.566   1.585   6.958  0.9051 -0.7054  0.6051
31882SOL     OW96223   4.901   7.209   9.437 -0.3951 -0.3179 -0.2053
31882SOL    HW196224   4.959   7.145   9.478 -1.5745 -0.7271  0.9161
31882SOL    HW296225   4.907   7.190   9.343  2.2061  0.4878 -0.2817
31883SOL     OW96226   9.505   2.642   1.883 -0.0283 -0.1679  0.5213
31883SOL    HW196227   9.446   2.628   1.809  0.3660  1.0347 -0.0439
31883SOL    HW296228   9.495   2.563   1.937 -0.4967 -0.9633 -0.6838
31884SOL     OW96229   2.885   7.142   0.096  0.1128  0.6911  0.3652
31884SOL    HW196230   2.791   7.125   0.084  0.6574 -1.5240 -1.7325
31884SOL    HW296231   2.919   7.059   0.130  1.2382  1.7187  1.8477
31885SOL     OW96232   5.169   9.545   4.457 -0.3056  0.3790  0.2151
31885SOL    HW196233   5.190   9.594   4.377 -1.3581 -0.8699 -0.8725
31885SOL    HW296234   5.235   9.573   4.520  0.2289  1.8104 -0.9137
31886SOL     OW96235   7.939   0.473   6.188  0.3473 -0.1774  0.1727
31886SOL    HW196236   7.850   0.501   6.207 -0.9939 -4.1336  0.6401
31886SOL    HW296237   7.946   0.477   6.093 -1.3437 -2.0900 -0.1126
31887SOL     OW96238   5.111   0.335   5.666  0.5141  0.3108 -0.4089
31887SOL    HW196239   5.023   0.345   5.629  0.4490  0.3668 -0.2382
31887SOL    HW296240   5.143   0.253   5.628 -0.1901 -0.4885  0.6896
31888SOL     OW96241   3.881   4.514   7.893  0.3137  0.0012  0.0374
31888SOL    HW196242   3.878   4.573   7.818 -0.7121 -0.2600 -0.1435
31888SOL    HW296243   3.955   4.455   7.874  1.6722  1.4963  0.4630
31889SOL     OW96244   7.973   1.907   0.487  0.0195 -0.3568 -0.0947
31889SOL    HW196245   8.004   1.830   0.536  0.5718 -0.0678  0.0211
31889SOL    HW296246   7.890   1.930   0.528 -1.2114 -2.1192 -1.4333
31890SOL     OW96247   2.190   9.147   1.135 -0.1014  0.6239  0.3427
31890SOL    HW196248   2.193   9.118   1.043 -2.1867  2.5739 -0.4391
31890SOL    HW296249   2.185   9.066   1.185 -2.6476 -0.5249 -1.5156
31891SOL     OW96250   9.218   6.121   1.149  0.1066  0.0713  0.5063
31891SOL    HW196251   9.215   6.048   1.211  1.2810 -0.9625 -0.5891
31891SOL    HW296252   9.183   6.084   1.068  1.8960  0.3366 -0.4152
31892SOL     OW96253   8.972   1.515   2.153 -0.1659  0.3737 -0.2020
31892SOL    HW196254   9.033   1.441   2.152 -0.7401 -0.1327 -2.0029
31892SOL    HW296255   8.985   1.556   2.239  1.8333 -0.4207 -0.0742
31893SOL     OW96256   8.119   2.891   6.608  0.3551 -0.4876 -0.1462
31893SOL    HW196257   8.160   2.854   6.529  2.0921 -0.9003  0.8984
31893SOL    HW296258   8.106   2.983   6.586 -1.9379 -1.1456 -1.9563
31894SOL     OW96259   1.395   0.020   9.595  0.4345 -0.4353 -0.0606
31894SOL    HW196260   1.353   0.065   9.522  0.8806  0.7603  0.4004
31894SOL    HW296261   1.334  -0.050   9.618 -1.4403  1.3849  0.7560
31895SOL     OW96262   6.487   9.797   9.738  0.2068  0.5685 -0.0354
31895SOL    HW196263   6.525   9.756   9.660  1.1251  2.6643 -0.7586
31895SOL    HW296264   6.523   9.746   9.811 -1.0516 -1.7497 -0.9212
31896SOL     OW96265   6.465   6.105   5.377  0.5026 -0.2665  0.3947
31896SOL    HW196266   6.375   6.084   5.354 -0.1784  2.4721  0.2939
31896SOL    HW296267   6.510   6.113   5.292  1.2683 -2.9186  0.4490
31897SOL     OW96268   1.927   4.827   5.620  0.0018 -0.0556  0.7465
31897SOL    HW196269   1.885   4.750   5.582  1.3761 -0.9628  0.9908
31897SOL    HW296270   1.952   4.801   5.708  1.0968  0.4341  0.5975
31898SOL     OW96271   0.128   9.477   2.418  0.1263  0.1934  0.0424
31898SOL    HW196272   0.051   9.442   2.373  0.0714 -1.3356  1.2673
31898SOL    HW296273   0.203   9.434   2.376  0.4108  1.9025 -1.3552
31899SOL     OW96274   7.828   9.786   7.907 -0.0956 -0.3978 -0.0384
31899SOL    HW196275   7.834   9.847   7.980 -0.1454 -0.5245  0.0714
31899SOL    HW296276   7.833   9.699   7.948 -0.2264 -0.4697 -0.1762
31900SOL     OW96277   4.005   8.509   7.487  0.2348 -0.0094  0.0792
31900SOL    HW196278   3.965   8.444   7.429 -0.1468  1.8083 -1.8396
31900SOL    HW296279   3.946   8.515   7.561 -0.6422 -0.6327 -0.5470
31901SOL     OW96280   9.576   8.828   9.627 -0.5138 -0.4153 -0.5356
31901SOL    HW196281   9.502   8.817   9.687 -0.0018  0.0110  0.1863
31901SOL    HW296282   9.623   8.905   9.660  1.5474 -1.9701  0.3949
31902SOL     OW96283   9.754   1.844   6.498 -0.2967 -0.2591 -0.0867
31902SOL    HW196284   9.663   1.839   6.526 -0.2921  2.8057  0.8142
31902SOL    HW296285   9.752   1.821   6.405 -1.9641 -0.3074 -0.0655
31903SOL     OW96286   0.999   2.477   2.620  0.3534  0.2094 -0.6880
31903SOL    HW196287   1.070   2.520   2.668  0.1522  0.6640 -0.7843
31903SOL    HW296288   0.936   2.452   2.688  0.5750 -0.1284 -0.6097
31904SOL     OW96289   8.160   0.243   3.612 -0.0595 -0.0166  0.7063
31904SOL    HW196290   8.085   0.277   3.563 -0.4492 -2.1605 -0.2887
31904SOL    HW296291   8.133   0.247   3.703 -1.1134 -0.1224  0.4093
31905SOL     OW96292   1.347   2.967   4.239 -0.2361  0.5030 -0.0657
31905SOL    HW196293   1.425   3.011   4.206  0.4113 -1.8188 -1.8816
31905SOL    HW296294   1.349   2.983   4.334  3.2535 -0.5754  0.1800
31906SOL     OW96295   1.534   4.493   7.094  0.2875  0.1207  0.2985
31906SOL    HW196296   1.629   4.492   7.082  0.2311  0.7000 -0.2421
31906SOL    HW296297   1.519   4.555   7.164  0.2507  0.7498 -0.2535
31907SOL     OW96298   2.931   9.730   8.641  0.4093  0.8450  0.2516
31907SOL    HW196299   3.001   9.720   8.576  0.1232 -0.0860  0.0635
31907SOL    HW296300   2.892   9.643   8.647 -0.6216  1.3121  0.4886
31908SOL     OW96301   9.164   6.871   3.166  0.4286 -0.5607 -0.2213
31908SOL    HW196302   9.226   6.918   3.222  0.2468  2.2104 -2.1486
31908SOL    HW296303   9.095   6.844   3.225  0.7917  1.2417  1.1211
31909SOL     OW96304   8.763   6.004   7.766  0.2772  0.6028 -0.5093
31909SOL    HW196305   8.742   6.064   7.694  0.6784  0.6059 -0.6265
31909SOL    HW296306   8.825   5.942   7.728 -0.4068 -0.0985 -0.4853
31910SOL     OW96307   4.939   1.440   9.072  0.2501  0.2978 -0.1744
31910SOL    HW196308   4.991   1.359   9.068  1.0358  0.8112 -0.6307
31910SOL    HW296309   4.953   1.473   9.161 -1.2890 -0.8266  0.5374
31911SOL     OW96310   3.199   2.304   6.657  0.5288 -0.4471  1.0118
31911SOL    HW196311   3.195   2.387   6.704 -0.5981 -1.3570  2.6324
31911SOL    HW296312   3.291   2.296   6.631  0.4973  1.6695  0.0379
31912SOL     OW96313   4.582   6.805   1.485  0.1362 -0.0391 -0.4972
31912SOL    HW196314   4.623   6.821   1.570 -1.9133 -1.3680  0.8198
31912SOL    HW296315   4.646   6.750   1.439  0.3508 -1.2549  1.1209
31913SOL     OW96316   6.982   1.625   9.181  0.0255  0.0171 -0.4781
31913SOL    HW196317   6.996   1.697   9.120  1.1357  0.8113  0.6579
31913SOL    HW296318   7.047   1.639   9.250 -1.2064 -0.8184  0.9121
31914SOL     OW96319   2.828   6.691   2.245 -0.0431 -0.8924  0.0814
31914SOL    HW196320   2.748   6.709   2.196  0.3852 -0.8588 -0.6167
31914SOL    HW296321   2.802   6.626   2.311 -0.8467 -0.1934  0.4674
31915SOL     OW96322   4.837   3.307   7.757  0.2332  0.4015  0.5158
31915SOL    HW196323   4.797   3.274   7.838  0.7145 -1.4938  0.0195
31915SOL    HW296324   4.894   3.378   7.787  1.4599 -1.1404  2.0676
31916SOL     OW96325   6.933   1.407   7.533  0.7143 -0.3516 -0.0943
31916SOL    HW196326   6.959   1.315   7.533  2.1380  0.0109  0.6958
31916SOL    HW296327   7.015   1.454   7.518  0.4024  0.8449  1.6970
31917SOL     OW96328   4.447   4.294   2.629  0.3180 -0.1608  1.0989
31917SOL    HW196329   4.404   4.283   2.544  0.5363  0.2611  0.9307
31917SOL    HW296330   4.540   4.287   2.610  0.3303 -1.6433  1.5483
31918SOL     OW96331   9.232   6.562   7.708  0.2499  0.2752  0.5011
31918SOL    HW196332   9.239   6.469   7.728 -0.6217 -0.2868 -1.5855
31918SOL    HW296333   9.322   6.595   7.717  1.1652 -1.4356 -1.6488
31919SOL     OW96334   2.797   9.660   2.336  0.1581 -0.3185 -0.2066
31919SOL    HW196335   2.846   9.651   2.254  0.8372  0.0459  0.1488
31919SOL    HW296336   2.746   9.741   2.325 -2.9305 -2.2818 -1.8544
31920SOL     OW96337   8.055   6.651   8.970  0.4958  0.3584 -0.9323
31920SOL    HW196338   8.047   6.660   8.875  1.0971  0.3835 -0.9798
31920SOL    HW296339   8.015   6.730   9.005  0.9444  0.6981 -1.1875
31921SOL     OW96340   1.790   3.988   5.638 -0.2388  0.5804  0.2795
31921SOL    HW196341   1.847   4.062   5.661  0.2411  0.3952 -0.2654
31921SOL    HW296342   1.729   4.024   5.574  0.8528  0.2111 -1.0185
31922SOL     OW96343   5.833   2.978   4.153 -0.3542  0.5318  0.6538
31922SOL    HW196344   5.889   3.056   4.161 -0.3410  0.6167 -0.1187
31922SOL    HW296345   5.818   2.970   4.058  0.5139 -1.0108  0.6074
31923SOL     OW96346   3.390   3.824   1.692  0.5275  0.1295 -0.0378
31923SOL    HW196347   3.335   3.899   1.666  0.3995 -0.2221 -0.8081
31923SOL    HW296348   3.357   3.751   1.640  1.0132 -0.3412  0.3066
31924SOL     OW96349   5.947   8.367   2.857  0.0228 -0.4212 -0.2472
31924SOL    HW196350   5.858   8.347   2.827 -0.0966  1.4017 -1.2354
31924SOL    HW296351   5.937   8.384   2.951 -0.7112 -0.0202 -0.3899
31925SOL     OW96352   9.588   0.342   6.174 -0.7965 -0.1975 -0.2110
31925SOL    HW196353   9.494   0.356   6.186 -0.9220 -0.2876 -1.0483
31925SOL    HW296354   9.630   0.410   6.227 -1.3079 -0.9561  1.2231
31926SOL     OW96355   4.670   7.369   5.042 -0.9454  0.2228  0.3177
31926SOL    HW196356   4.698   7.309   4.973  0.5773  0.1106  0.9977
31926SOL    HW296357   4.582   7.396   5.015 -0.8461 -0.6936 -1.0656
31927SOL     OW96358   4.265   6.472   8.566  0.4476 -0.1966 -0.0823
31927SOL    HW196359   4.310   6.471   8.650 -0.8883 -1.4128  0.6709
31927SOL    HW296360   4.317   6.531   8.511  1.7898  0.0038  1.3375
31928SOL     OW96361   3.526   5.349   7.164  0.3384 -0.2529 -0.7542
31928SOL    HW196362   3.461   5.348   7.234  1.5653  0.8219  0.4882
31928SOL    HW296363   3.477   5.371   7.085 -0.9381 -0.4354 -0.0331
31929SOL     OW96364   5.476   9.705   9.010 -0.0625  0.2845  0.1545
31929SOL    HW196365   5.450   9.793   9.037  0.3542  0.5072 -0.1607
31929SOL    HW296366   5.552   9.719   8.953 -0.7626 -0.2025 -0.9099
31930SOL     OW96367   2.629   0.416   2.882  0.1694  0.2887 -0.2885
31930SOL    HW196368   2.680   0.450   2.808 -1.5581  0.8921 -1.2684
31930SOL    HW296369   2.554   0.475   2.888 -1.1252 -1.3426  0.2075
31931SOL     OW96370   3.223   7.266   7.249  0.2578 -0.4073 -0.1592
31931SOL    HW196371   3.164   7.191   7.250  0.2516 -0.4033 -0.2668
31931SOL    HW296372   3.302   7.234   7.204 -0.2406  0.0306 -1.3696
31932SOL     OW96373   7.500   6.345   4.756 -0.0430 -0.1045  0.4434
31932SOL    HW196374   7.552   6.297   4.821  0.5890 -0.4183 -0.2749
31932SOL    HW296375   7.449   6.408   4.807  0.0442 -0.7024  1.2893
31933SOL     OW96376   9.755   3.423   8.575  0.0583  0.4379  0.0323
31933SOL    HW196377   9.663   3.434   8.550 -0.0687  0.3205  0.4387
31933SOL    HW296378   9.794   3.374   8.503 -0.2825  0.1658  0.0322
31934SOL     OW96379   4.678   2.843   0.542 -0.0114 -0.2028  0.3678
31934SOL    HW196380   4.663   2.837   0.448  0.6491  1.3357  0.1377
31934SOL    HW296381   4.770   2.819   0.554 -0.1645 -0.6604  0.6644
31935SOL     OW96382   2.331   4.386   6.712 -0.7366 -0.6603  0.6909
31935SOL    HW196383   2.350   4.354   6.800  0.3849  0.2989  0.8205
31935SOL    HW296384   2.404   4.356   6.658  0.3734  1.5916  0.8244
31936SOL     OW96385   7.932   1.959   6.506  0.1499  0.3161 -0.5115
31936SOL    HW196386   7.873   2.027   6.472  0.6644  0.3362 -1.3846
31936SOL    HW296387   7.961   1.911   6.428  1.0212  0.0912 -0.0592
31937SOL     OW96388   1.639   3.968   5.118  0.1946 -0.3455  0.9279
31937SOL    HW196389   1.702   4.030   5.082  0.3686 -0.8867  0.2874
31937SOL    HW296390   1.557   3.988   5.074  0.2376 -0.5321  0.7628
31938SOL     OW96391   1.756   1.031   6.142  0.3173  0.3266  0.0561
31938SOL    HW196392   1.736   1.124   6.133 -0.3110  0.0876 -1.5417
31938SOL    HW296393   1.670   0.988   6.143  0.5628 -0.3885 -2.1422
31939SOL     OW96394   1.822   8.004   7.996 -0.0897 -0.8400 -0.2628
31939SOL    HW196395   1.763   7.983   7.923  0.9234 -0.0876 -1.3421
31939SOL    HW296396   1.784   8.082   8.036 -0.5193 -1.1092 -0.1446
31940SOL     OW96397   1.974   1.727   3.400  0.2906  0.2111 -0.2657
31940SOL    HW196398   2.069   1.723   3.394  0.4991  0.5240  1.8292
31940SOL    HW296399   1.954   1.685   3.484 -1.4293  0.1064 -0.6886
31941SOL     OW96400   3.895   0.794   9.064  0.4002 -0.6459  0.4840
31941SOL    HW196401   3.952   0.766   8.993  0.3372  3.2905 -1.3823
31941SOL    HW296402   3.944   0.862   9.109 -0.9128 -0.6977  2.0873
31942SOL     OW96403   1.146   8.243   6.994 -0.0436 -0.5419 -0.1024
31942SOL    HW196404   1.077   8.255   6.928  1.2056 -1.6647 -1.6963
31942SOL    HW296405   1.175   8.332   7.015 -1.0759 -0.1219 -0.3900
31943SOL     OW96406   6.888   7.266   3.598  0.1113 -0.1452 -0.3026
31943SOL    HW196407   6.854   7.219   3.674 -0.2588  0.3471 -0.1614
31943SOL    HW296408   6.817   7.265   3.534  0.0480  0.3297 -0.2486
31944SOL     OW96409   5.792   5.561   7.855 -0.0120  0.1497 -0.4971
31944SOL    HW196410   5.774   5.468   7.843  1.0452 -0.1816  0.3100
31944SOL    HW296411   5.747   5.584   7.936  1.3115 -0.1601  0.3610
31945SOL     OW96412   6.948   4.599   6.703 -0.7526  0.2358 -0.7682
31945SOL    HW196413   6.928   4.517   6.748  2.1693  0.0870  0.4635
31945SOL    HW296414   6.969   4.572   6.613  0.4141 -0.4163 -0.3141
31946SOL     OW96415   2.932   1.535   8.039 -0.1840 -0.2376 -0.1871
31946SOL    HW196416   2.887   1.586   8.107 -1.0112 -1.0271 -0.1143
31946SOL    HW296417   3.010   1.502   8.082 -0.8733 -1.0141  0.5069
31947SOL     OW96418   5.790   8.176   5.675  0.0552  0.1694 -0.2093
31947SOL    HW196419   5.853   8.190   5.605 -1.5617 -0.2886 -1.8363
31947SOL    HW296420   5.758   8.264   5.696  1.0182  0.3784  0.4577
31948SOL     OW96421   8.571   9.351   0.898 -0.4224  0.2592 -0.5809
31948SOL    HW196422   8.637   9.282   0.909  2.0452  2.7136  1.6866
31948SOL    HW296423   8.517   9.344   0.977  0.3642  1.3122  0.0897
31949SOL     OW96424   2.609   3.966   4.805  0.1266 -0.3762 -0.3084
31949SOL    HW196425   2.603   4.013   4.888 -1.0799  0.5229 -0.8732
31949SOL    HW296426   2.695   3.989   4.771  0.0839  0.3651  0.0606
31950SOL     OW96427   4.149   0.774   7.196 -0.0657 -0.7381 -0.8021
31950SOL    HW196428   4.104   0.858   7.187 -1.3958 -1.2129  1.0132
31950SOL    HW296429   4.114   0.721   7.125  3.0599  1.0473 -4.0311
31951SOL     OW96430   7.940   4.488  -0.001  0.4454  0.7790  0.0579
31951SOL    HW196431   7.891   4.569  -0.015  0.4635  0.8878  0.5759
31951SOL    HW296432   7.918   4.464   0.090  0.5383  0.2739 -0.0525
31952SOL     OW96433   8.856   1.296   8.255  0.1911  0.0579 -0.0647
31952SOL    HW196434   8.822   1.385   8.243 -0.7679 -0.3237 -0.2704
31952SOL    HW296435   8.923   1.306   8.323  0.1883  0.9575 -0.1719
31953SOL     OW96436   4.595   9.374   5.773 -0.2247 -0.2412 -0.0407
31953SOL    HW196437   4.614   9.467   5.786 -1.1817  0.2302 -1.6973
31953SOL    HW296438   4.554   9.370   5.687 -1.2864 -2.0673  0.5021
31954SOL     OW96439   3.015   2.781   9.920  0.8650 -0.0080 -0.4199
31954SOL    HW196440   3.060   2.848   9.870  1.8756  0.1070  0.5977
31954SOL    HW296441   2.946   2.828   9.967  0.5776  0.0537 -0.9037
31955SOL     OW96442   6.927   5.966   2.362  0.3805 -0.8306 -0.2108
31955SOL    HW196443   6.890   5.937   2.278  0.4675 -0.0019 -0.5437
31955SOL    HW296444   7.022   5.957   2.350  0.3987 -0.5875 -0.2467
31956SOL     OW96445   5.978   7.941   5.604  0.1990 -0.3699  0.8481
31956SOL    HW196446   5.952   7.964   5.515 -1.1649  0.2322  1.3649
31956SOL    HW296447   5.912   7.983   5.660  0.9014 -0.9018  2.1296
31957SOL     OW96448   9.506   1.871   6.631  0.1172  0.4162 -0.1344
31957SOL    HW196449   9.457   1.931   6.575  0.8127 -0.6887 -1.9971
31957SOL    HW296450   9.443   1.842   6.696 -0.3026  2.9804  0.7495
31958SOL     OW96451   0.514   7.647   0.477 -0.4439  0.1346  0.1395
31958SOL    HW196452   0.443   7.601   0.432 -1.5812  1.9841 -0.0532
31958SOL    HW296453   0.471   7.689   0.552  0.9876 -0.9657  1.6555
31959SOL     OW96454   8.863   3.929   5.876 -0.2583 -0.2318 -0.0416
31959SOL    HW196455   8.803   3.964   5.809  0.8382  1.3962 -0.2332
31959SOL    HW296456   8.838   3.837   5.884 -0.1285 -0.6574 -3.0732
31960SOL     OW96457   5.989   1.377   1.282 -0.0133  0.5269  0.3564
31960SOL    HW196458   5.963   1.466   1.307  0.9085  0.7000  0.7247
31960SOL    HW296459   6.054   1.352   1.347 -1.8032 -1.2564  1.5530
31961SOL     OW96460   6.838   1.385   1.269  0.0425  0.8590 -0.0099
31961SOL    HW196461   6.863   1.418   1.183  1.8405 -0.5807 -0.1072
31961SOL    HW296462   6.898   1.429   1.330  1.3526 -0.8644  0.0306
31962SOL     OW96463   3.487   3.830   5.756 -0.2712 -0.5320 -0.0031
31962SOL    HW196464   3.413   3.882   5.723  0.7304 -0.1208 -1.7469
31962SOL    HW296465   3.495   3.758   5.693  0.2918 -1.0450  0.6439
31963SOL     OW96466   0.628   4.501   7.123  0.0894  0.0291  0.3994
31963SOL    HW196467   0.655   4.413   7.151  1.0304  0.8616  2.2854
31963SOL    HW296468   0.533   4.496   7.117 -0.1599 -0.4049  3.3396
31964SOL     OW96469   7.892   4.180   0.949  0.1045 -0.5053  0.3036
31964SOL    HW196470   7.902   4.215   1.038  1.2235  3.8552 -1.2800
31964SOL    HW296471   7.804   4.144   0.947 -0.2931  0.1137  2.9273
31965SOL     OW96472   1.034   4.578   3.049  0.0526 -0.5316 -0.3076
31965SOL    HW196473   0.960   4.579   2.990 -0.4166  0.5326  0.2614
31965SOL    HW296474   1.099   4.635   3.007  0.1135 -0.5940 -0.2970
31966SOL     OW96475   8.202   0.068   6.571  0.0992 -0.6787 -0.4072
31966SOL    HW196476   8.243   0.146   6.534 -1.3722  0.4191  0.1885
31966SOL    HW296477   8.172   0.019   6.494  0.3960 -0.3149 -0.7649
31967SOL     OW96478   3.915   8.825   2.669  0.7591 -0.8160  0.5456
31967SOL    HW196479   3.864   8.779   2.736  0.7457  0.1206  1.2095
31967SOL    HW296480   3.987   8.865   2.718  0.9600 -0.4245 -0.0630
31968SOL     OW96481   6.270   3.732   0.880  0.1138 -0.1562 -0.1652
31968SOL    HW196482   6.201   3.669   0.898 -0.4692  0.6026  0.3560
31968SOL    HW296483   6.303   3.709   0.793 -0.4929 -0.7981 -0.2292
31969SOL     OW96484   1.241   7.371   4.661  0.1713  0.4942 -0.1632
31969SOL    HW196485   1.197   7.456   4.660  0.2937  0.6126  1.8360
31969SOL    HW296486   1.212   7.329   4.580  0.0039  2.3680 -1.1248
31970SOL     OW96487   1.902   0.042   9.639 -0.2896  0.0357  0.2102
31970SOL    HW196488   1.896   0.028   9.545 -0.1490  1.4426 -0.0299
31970SOL    HW296489   1.823  -0.001   9.675 -0.8235  0.2773 -0.6413
31971SOL     OW96490   7.435   7.455   6.001  0.3590 -0.0069  0.2855
31971SOL    HW196491   7.373   7.482   6.068 -0.4890  0.5113 -0.6742
31971SOL    HW296492   7.383   7.399   5.942  0.8602  0.2145 -0.3796
31972SOL     OW96493   3.143   1.866   5.899 -0.7401  0.2393  0.2098
31972SOL    HW196494   3.177   1.955   5.895 -0.1725 -0.0080 -1.1364
31972SOL    HW296495   3.159   1.830   5.812 -1.1079 -1.1245  0.6710
31973SOL     OW96496   5.124   2.161   0.933  0.8679  0.0945 -0.1083
31973SOL    HW196497   5.063   2.233   0.919  1.9794  0.8758 -1.1440
31973SOL    HW296498   5.186   2.195   0.998  0.7037 -0.3827  0.3048
31974SOL     OW96499   5.390   1.946   1.327  0.6604  0.1449  0.2816
31974SOL    HW196500   5.429   1.986   1.249 -0.9005 -0.3778 -0.8378
31974SOL    HW296501   5.296   1.943   1.307  0.2390 -0.0765  2.1732
31975SOL     OW96502   1.024   1.912   9.207  0.6853 -0.5903 -0.4015
31975SOL    HW196503   0.984   1.831   9.175 -0.9730  0.4427 -1.0478
31975SOL    HW296504   0.956   1.979   9.196  1.2198  0.5017  2.1392
31976SOL     OW96505   9.922   0.626   2.979  0.4727 -0.0307  0.5956
31976SOL    HW196506  10.000   0.593   2.934 -0.9353  0.1989 -2.1682
31976SOL    HW296507   9.945   0.715   3.006  1.5132 -0.3614  0.8413
31977SOL     OW96508   2.033   5.162   0.732  0.0973  0.7232 -0.0244
31977SOL    HW196509   2.050   5.091   0.794 -1.8205  0.7599  0.6223
31977SOL    HW296510   1.969   5.218   0.777 -0.2507  1.5428 -1.4783
31978SOL     OW96511   1.292   1.601   9.176  0.2308  0.1752 -0.4488
31978SOL    HW196512   1.249   1.518   9.199  2.0255 -1.5165 -2.7485
31978SOL    HW296513   1.377   1.597   9.220 -0.8577  2.4886  2.2372
31979SOL     OW96514   7.894   2.445   7.257  0.0941 -0.3389 -0.2987
31979SOL    HW196515   7.957   2.517   7.249 -2.0899  1.6296 -0.7093
31979SOL    HW296516   7.949   2.367   7.270  2.5805  1.2844 -0.3477
31980SOL     OW96517   6.444   6.118   4.120  0.1798 -0.0990 -0.5097
31980SOL    HW196518   6.381   6.085   4.056 -1.4450 -0.3972  1.1546
31980SOL    HW296519   6.452   6.211   4.100 -1.3647  0.1052 -0.3505
31981SOL     OW96520   0.345   1.924   1.567 -0.2557 -0.5253 -0.1012
31981SOL    HW196521   0.336   1.930   1.662 -1.3021 -0.5880 -0.1895
31981SOL    HW296522   0.377   2.010   1.540 -0.9461 -0.1718  0.2006
31982SOL     OW96523   4.581   3.879   8.665  0.2185 -0.4009  0.0978
31982SOL    HW196524   4.658   3.828   8.692  0.3457 -0.4186 -0.2864
31982SOL    HW296525   4.614   3.935   8.594  0.2950  0.8226  1.0519
31983SOL     OW96526   5.176   1.811   0.636 -0.4570 -0.1114 -0.0452
31983SOL    HW196527   5.118   1.754   0.585 -1.5200  0.3022  0.6717
31983SOL    HW296528   5.125   1.833   0.714  1.4619 -1.4853  1.6945
31984SOL     OW96529   0.519   8.899   0.598  0.5267 -0.0482 -0.5548
31984SOL    HW196530   0.500   8.916   0.505  0.3020 -1.6685 -0.8362
31984SOL    HW296531   0.614   8.898   0.603  0.5442 -0.3617 -0.8632
31985SOL     OW96532   5.237   1.385   3.150 -0.0877  0.0671 -0.1102
31985SOL    HW196533   5.275   1.393   3.238  1.7237  0.3449 -0.8593
31985SOL    HW296534   5.287   1.314   3.109  0.0767  0.8722 -1.3649
31986SOL     OW96535   4.137   2.074   0.441  0.0325  0.0855 -0.6005
31986SOL    HW196536   4.185   2.149   0.476  0.2748 -0.7970  1.0190
31986SOL    HW296537   4.204   2.012   0.415 -0.1936 -0.4987  0.1874
31987SOL     OW96538   9.845   7.218   8.653  0.5260  0.1254  0.2145
31987SOL    HW196539   9.907   7.244   8.721 -1.0909 -1.0147  2.2584
31987SOL    HW296540   9.775   7.172   8.701 -0.2617 -1.5439 -2.3286
31988SOL     OW96541   7.370   5.947   4.990 -0.7737 -0.0182  0.2690
31988SOL    HW196542   7.428   5.873   5.007  1.1657  1.0687 -1.1154
31988SOL    HW296543   7.339   5.974   5.077 -0.1750 -1.3973  0.9411
31989SOL     OW96544   9.943   5.402   0.414 -0.3035  0.0134  0.4503
31989SOL    HW196545   9.893   5.482   0.396  1.7933  1.6753  1.5537
31989SOL    HW296546  10.008   5.429   0.478  0.8173 -2.4949  0.4645
31990SOL     OW96547   7.326   8.546   3.368 -0.5097 -0.5505  0.6188
31990SOL    HW196548   7.415   8.570   3.394 -0.8908 -0.9996  2.4416
31990SOL    HW296549   7.335   8.514   3.278  0.8271  1.3015  0.0452
31991SOL     OW96550   2.513   5.434   5.320 -0.1380 -0.2322 -0.3568
31991SOL    HW196551   2.455   5.380   5.373 -0.2992  2.1919  2.1555
31991SOL    HW296552   2.601   5.412   5.351 -0.0446 -0.5175 -0.8140
31992SOL     OW96553   5.707   1.014   7.409 -0.3622  0.4882 -0.1734
31992SOL    HW196554   5.661   1.081   7.460  0.7032  1.3984 -0.3647
31992SOL    HW296555   5.792   1.006   7.452 -0.2768 -0.3559 -0.4882
31993SOL     OW96556   1.698   0.862   5.158 -0.3772 -0.3849 -0.3714
31993SOL    HW196557   1.756   0.904   5.095 -1.0013  0.7365 -0.2384
31993SOL    HW296558   1.752   0.796   5.201  1.1000  1.2675  0.4457
31994SOL     OW96559   4.166   4.739   8.009 -0.4844 -0.5174 -0.2719
31994SOL    HW196560   4.175   4.731   7.914 -2.8060 -0.8084 -0.5295
31994SOL    HW296561   4.134   4.829   8.022 -1.4456 -0.8955  0.0803
31995SOL     OW96562   4.232   7.340   0.031 -0.4335 -0.2208  0.0937
31995SOL    HW196563   4.248   7.422  -0.015 -0.1262  1.3691  2.8361
31995SOL    HW296564   4.316   7.316   0.068 -0.3823 -2.1710 -1.1534
31996SOL     OW96565   2.693   1.131   5.558 -0.6596  0.2280 -0.4140
31996SOL    HW196566   2.607   1.160   5.527 -0.8222  0.6762  0.4308
31996SOL    HW296567   2.751   1.204   5.540 -0.6024  0.2009 -0.3402
31997SOL     OW96568   0.388   5.726   6.981  0.5108 -0.8877  0.8964
31997SOL    HW196569   0.295   5.742   6.965  0.3534 -2.8377 -0.4149
31997SOL    HW296570   0.433   5.783   6.919  0.2819  0.8114  2.2101
31998SOL     OW96571   2.380   3.365   0.628  0.3511  0.5299  0.2825
31998SOL    HW196572   2.403   3.389   0.718 -1.1466  0.2981  0.7559
31998SOL    HW296573   2.285   3.356   0.629  0.5298 -3.6541 -0.2483
31999SOL     OW96574   8.712   1.534   4.613  0.1829 -0.0202 -0.2245
31999SOL    HW196575   8.654   1.601   4.576  1.5293  0.8839 -0.7630
31999SOL    HW296576   8.737   1.569   4.698  1.1547  0.3455 -0.6477
32000SOL     OW96577   9.846   6.632   3.616 -0.0345  0.9521  0.4828
32000SOL    HW196578   9.914   6.644   3.549 -0.4107  0.5959  0.0284
32000SOL    HW296579   9.834   6.537   3.621  0.1347  0.9622  1.2108
32001SOL     OW96580   5.023   0.051   9.771 -0.3787 -0.4337  0.5253
32001SOL    HW196581   5.055  -0.036   9.796 -0.8554 -1.3279 -1.7347
32001SOL    HW296582   5.011   0.046   9.677  1.5095  2.7455 -0.0313
32002SOL     OW96583   6.031   5.973   8.326  0.5078  0.3434 -0.2966
32002SOL    HW196584   6.044   6.011   8.413  0.3500  0.0609 -0.1501
32002SOL    HW296585   5.948   6.009   8.296 -1.2391 -2.2039  1.1012
32003SOL     OW96586   1.253   2.760   2.261  0.5125  0.0397 -0.2727
32003SOL    HW196587   1.254   2.841   2.312 -0.5746 -0.5342  0.6853
32003SOL    HW296588   1.261   2.690   2.325  0.3828 -0.6599 -0.9989
32004SOL     OW96589   0.604   8.539   4.344  0.2864  0.4975  0.2851
32004SOL    HW196590   0.576   8.462   4.393 -0.1113 -0.0013 -0.6946
32004SOL    HW296591   0.603   8.610   4.408  0.2269 -0.2180  1.0985
32005SOL     OW96592   0.694   4.890   8.608  0.1241 -0.1422  0.2087
32005SOL    HW196593   0.650   4.897   8.523  2.9498 -1.1980 -1.4939
32005SOL    HW296594   0.779   4.932   8.595  0.3986  0.2898  2.7877
32006SOL     OW96595   0.289   1.038   4.912  0.1520  0.6456  0.0604
32006SOL    HW196596   0.356   0.993   4.964 -0.8047 -1.1293 -0.1841
32006SOL    HW296597   0.210   1.034   4.965 -0.3204  0.6986 -0.6326
32007SOL     OW96598   3.144   6.733   6.460  0.1809  0.3575 -0.6671
32007SOL    HW196599   3.092   6.667   6.505  1.1783 -1.6848 -2.3314
32007SOL    HW296600   3.174   6.792   6.529 -3.0327  0.7762  0.5160
32008SOL     OW96601   3.918   1.750   1.211  0.3237 -0.1681  0.5306
32008SOL    HW196602   3.970   1.811   1.159  2.0433 -0.1426  2.2074
32008SOL    HW296603   3.931   1.665   1.168  0.4643  0.1044  0.0263
32009SOL     OW96604   1.944   2.316   8.002 -0.7956  0.0983  0.1930
32009SOL    HW196605   1.962   2.409   8.007  1.5319 -0.2767 -0.0489
32009SOL    HW296606   1.928   2.289   8.093 -0.1153  0.4974  0.4356
32010SOL     OW96607   3.744   0.476   8.409  0.1591 -0.0761 -0.2962
32010SOL    HW196608   3.825   0.526   8.414  0.0275  0.2083 -0.9572
32010SOL    HW296609   3.756   0.405   8.473  0.8650  0.0465 -0.2849
32011SOL     OW96610   0.656   2.237   2.251 -0.4756 -0.0904 -0.1172
32011SOL    HW196611   0.579   2.237   2.308 -0.7248 -0.3019 -0.4492
32011SOL    HW296612   0.716   2.299   2.292 -0.3820 -0.7426  0.7431
32012SOL     OW96613   5.390   6.954   4.034 -0.1075 -0.0726  0.0139
32012SOL    HW196614   5.340   7.033   4.055  0.9642  0.1145  2.0896
32012SOL    HW296615   5.325   6.884   4.032 -0.6075  0.2458  2.1771
32013SOL     OW96616   6.809   7.363   7.958 -0.0312  0.2136  0.1861
32013SOL    HW196617   6.723   7.374   7.917  0.1061  3.5310  0.5127
32013SOL    HW296618   6.789   7.330   8.046 -1.2784  2.9311  1.0362
32014SOL     OW96619   8.468   6.939   2.337 -0.3262  0.0235 -0.1277
32014SOL    HW196620   8.427   6.879   2.275 -1.5768  0.4683  0.2374
32014SOL    HW296621   8.478   7.021   2.289 -0.9609  0.2619  0.1422
32015SOL     OW96622   1.802   0.955   2.620 -0.1241  0.3045 -0.4962
32015SOL    HW196623   1.742   1.003   2.678  0.3188 -0.4502  0.6262
32015SOL    HW296624   1.782   0.987   2.533 -0.7338  1.5766  0.0871
32016SOL     OW96625   9.486   6.533   6.387  0.2515  0.3175 -0.1833
32016SOL    HW196626   9.553   6.592   6.355 -1.2636  1.1182 -2.0285
32016SOL    HW296627   9.417   6.535   6.321 -1.3308 -0.9578  1.3063
32017SOL     OW96628   7.904   5.232   4.266 -0.1624  0.4420 -0.0470
32017SOL    HW196629   7.917   5.326   4.256  1.0054  0.3357  0.3703
32017SOL    HW296630   7.894   5.220   4.361  0.2311  0.0879 -0.0489
32018SOL     OW96631   3.802   6.663   6.899  0.1333 -0.2888 -0.4155
32018SOL    HW196632   3.846   6.585   6.932  0.3436 -0.1538 -0.3768
32018SOL    HW296633   3.803   6.724   6.972 -0.0087 -0.2403 -0.4546
32019SOL     OW96634   7.108   6.945   4.528 -0.1401 -0.1681 -0.1573
32019SOL    HW196635   7.058   7.026   4.533  1.6447  1.2266 -2.7830
32019SOL    HW296636   7.183   6.959   4.586 -0.4057 -0.4537  0.2687
32020SOL     OW96637   2.999   9.004   6.736 -0.0815  0.2639  0.7260
32020SOL    HW196638   3.067   8.965   6.791  0.1500 -0.9449 -0.3477
32020SOL    HW296639   3.043   9.024   6.654 -1.0982 -1.0383 -0.1872
32021SOL     OW96640   3.237   4.735   3.078 -0.6252 -0.3437 -0.4731
32021SOL    HW196641   3.227   4.654   3.028 -0.8944 -1.8303  1.8444
32021SOL    HW296642   3.223   4.709   3.169  0.2486  2.1478  0.4552
32022SOL     OW96643   0.182   8.211   8.700 -0.1267  0.8190  0.8705
32022SOL    HW196644   0.197   8.195   8.793  2.6687 -0.5281  0.3180
32022SOL    HW296645   0.121   8.143   8.673  0.0723  0.3938  1.4736
32023SOL     OW96646   1.541   1.431   6.659 -0.3786 -0.2755 -0.7561
32023SOL    HW196647   1.615   1.486   6.685 -0.5461 -0.0143 -0.8250
32023SOL    HW296648   1.477   1.493   6.624  0.0506 -0.6619 -2.3037
32024SOL     OW96649   8.327   6.788   2.144  0.0376  0.0215 -0.6045
32024SOL    HW196650   8.273   6.826   2.213  2.0642 -1.0439  1.6920
32024SOL    HW296651   8.307   6.695   2.145  0.2255 -0.0388 -1.3581
32025SOL     OW96652   6.362   8.817   6.979 -0.1903 -0.5164  0.1308
32025SOL    HW196653   6.337   8.906   6.953  0.9839 -0.3159 -0.3761
32025SOL    HW296654   6.351   8.817   7.074 -0.2325  0.1629  0.1376
32026SOL     OW96655   8.811   3.234   7.937 -0.2658  0.4159 -0.0565
32026SOL    HW196656   8.772   3.187   8.011 -0.2489  0.7383  0.1567
32026SOL    HW296657   8.742   3.293   7.906  0.2963  1.5461  0.8073
32027SOL     OW96658   3.668   2.323   1.225 -0.4273 -0.4022  0.1244
32027SOL    HW196659   3.644   2.275   1.304 -2.6024 -0.4665 -0.4968
32027SOL    HW296660   3.703   2.257   1.166 -0.4002 -0.6524  0.4191
32028SOL     OW96661   0.555   7.842   7.845 -0.0766 -0.0746  0.0835
32028SOL    HW196662   0.474   7.833   7.895  0.4636 -0.8670  0.8465
32028SOL    HW296663   0.531   7.823   7.755 -0.5955 -1.0754  0.4205
32029SOL     OW96664   8.363   9.658   5.844 -0.1198  0.3403 -0.0065
32029SOL    HW196665   8.393   9.635   5.756  2.4968 -0.7032  1.0832
32029SOL    HW296666   8.398   9.589   5.900 -0.4338  1.7919  2.0768
32030SOL     OW96667   6.229   4.449   6.937  0.4020 -0.0618 -0.0252
32030SOL    HW196668   6.290   4.383   6.970 -0.1235 -1.4277 -1.6494
32030SOL    HW296669   6.286   4.517   6.898  0.9183 -0.4376  0.0619
32031SOL     OW96670   0.827   8.340   7.816  0.0154  0.0304 -0.0871
32031SOL    HW196671   0.887   8.266   7.828  0.9491  0.8763  0.7282
32031SOL    HW296672   0.760   8.327   7.883  1.5439  1.1875  1.7778
32032SOL     OW96673   7.624   0.950   4.293  0.3236 -1.1836  0.4121
32032SOL    HW196674   7.641   0.915   4.380  0.9523  0.1828  0.8742
32032SOL    HW296675   7.694   0.915   4.238  1.3209 -0.1840  1.0080
32033SOL     OW96676   3.457   0.444   8.757  0.1172 -0.7620  0.0026
32033SOL    HW196677   3.507   0.426   8.836  0.9586  0.2701 -0.2716
32033SOL    HW296678   3.411   0.362   8.739 -0.1560 -0.9945  1.5868
32034SOL     OW96679   4.658   5.994   5.476 -0.7654 -0.3913  0.4412
32034SOL    HW196680   4.732   5.968   5.532 -0.4888  0.1817  0.3462
32034SOL    HW296681   4.639   5.916   5.423  0.5904 -0.1594 -0.4299
32035SOL     OW96682   0.784   5.090   7.441  0.2614  0.5772 -0.0893
32035SOL    HW196683   0.746   5.003   7.458  1.6749 -0.2128 -0.7458
32035SOL    HW296684   0.741   5.120   7.361 -0.0244  0.3433 -0.0244
32036SOL     OW96685   8.950   7.313   1.446 -0.4757 -0.2145 -0.5264
32036SOL    HW196686   8.904   7.241   1.402  0.1283 -2.0471  1.6375
32036SOL    HW296687   9.031   7.273   1.478  1.2823  2.1875 -1.6462
32037SOL     OW96688   8.355   9.872   8.215 -0.0652  0.4536  0.5025
32037SOL    HW196689   8.395   9.890   8.130 -0.3706  2.0766  0.6673
32037SOL    HW296690   8.273   9.827   8.194  0.8330 -1.0871  0.0777
32038SOL     OW96691   4.916   8.977   6.305  0.2537 -0.8750  0.0937
32038SOL    HW196692   4.990   9.024   6.269 -2.3004  0.8744 -3.3907
32038SOL    HW296693   4.934   8.885   6.285  1.5645 -0.5320 -0.4061
32039SOL     OW96694   6.294   1.436   7.658  0.5537 -0.0757 -0.1867
32039SOL    HW196695   6.245   1.369   7.706  0.0159  1.8011  2.0273
32039SOL    HW296696   6.231   1.469   7.593 -0.1184  0.1960  0.5894
32040SOL     OW96697   0.136   4.684   1.782 -0.3331  0.1280 -0.4985
32040SOL    HW196698   0.177   4.599   1.802 -0.7398  0.2215  0.8140
32040SOL    HW296699   0.042   4.668   1.793 -0.4297  0.6947 -0.4900
32041SOL     OW96700   4.254   1.917   5.895 -0.1682 -0.0264  0.1262
32041SOL    HW196701   4.312   1.984   5.932  1.3347 -0.2448 -1.6957
32041SOL    HW296702   4.216   1.874   5.972  1.3594  0.7430  1.3884
32042SOL     OW96703   3.346   6.228   4.807 -0.5671 -0.5251  0.8062
32042SOL    HW196704   3.387   6.212   4.722 -1.7471 -2.9269  0.5909
32042SOL    HW296705   3.260   6.264   4.786 -1.2783 -2.0923  0.8621
32043SOL     OW96706   2.819   1.030   1.927 -0.9534 -0.4318  0.0195
32043SOL    HW196707   2.826   1.053   1.835 -1.0012  0.5386  0.2415
32043SOL    HW296708   2.739   0.979   1.934 -0.8214 -0.7144 -0.5106
32044SOL     OW96709   7.939   1.207   3.451  0.2288  0.5185  0.0188
32044SOL    HW196710   7.917   1.227   3.542 -0.2058 -0.0353  0.0433
32044SOL    HW296711   7.988   1.283   3.421  0.5052  0.6431  0.7592
32045SOL     OW96712   9.959   6.036   6.294  0.1626  0.3141  0.0444
32045SOL    HW196713   9.946   6.024   6.200  0.4438 -0.1003  0.0557
32045SOL    HW296714   9.924   6.123   6.312 -0.1347  0.2892 -0.3948
32046SOL     OW96715   9.429   2.507   2.567  0.1608  0.2939 -0.7602
32046SOL    HW196716   9.372   2.465   2.632  1.4475 -0.8768 -0.3672
32046SOL    HW296717   9.370   2.525   2.493 -0.6722 -1.2227 -0.5186
32047SOL     OW96718   8.824   4.498   4.553  0.2843  0.4054 -0.2377
32047SOL    HW196719   8.899   4.454   4.513 -0.2878 -0.3847 -0.4701
32047SOL    HW296720   8.757   4.430   4.559 -0.6121  1.2344 -0.5544
32048SOL     OW96721   0.919   7.311   4.558 -0.5940 -0.3453 -0.0227
32048SOL    HW196722   0.909   7.238   4.620  0.0494  0.4067  0.9911
32048SOL    HW296723   0.845   7.369   4.577 -0.6283 -0.3131 -0.2511
32049SOL     OW96724   2.439   7.386   2.646  0.3132  0.3769 -0.2030
32049SOL    HW196725   2.514   7.437   2.616  0.8922  0.0628  0.6817
32049SOL    HW296726   2.476   7.299   2.666  0.0101  0.6311  1.6227
32050SOL     OW96727   4.972   8.765   5.335  0.3438  0.2753  0.1959
32050SOL    HW196728   5.014   8.713   5.404 -1.3753 -1.0592  0.3004
32050SOL    HW296729   4.934   8.840   5.382  2.2759  1.3630  0.1325
32051SOL     OW96730   7.898   9.825   8.884  0.3297 -0.7981  1.0297
32051SOL    HW196731   7.903   9.787   8.971  0.6624 -0.4109  1.1837
32051SOL    HW296732   7.916   9.752   8.824 -2.2278 -1.6249  1.1430
32052SOL     OW96733   3.952   4.664   6.766  0.0382  0.4646  0.0677
32052SOL    HW196734   4.026   4.713   6.731 -0.1393 -0.4914 -1.7639
32052SOL    HW296735   3.991   4.604   6.829  0.8804 -0.1167 -0.9700
32053SOL     OW96736   0.710   3.669   6.824 -0.0254 -0.5257  0.2579
32053SOL    HW196737   0.698   3.574   6.819 -0.1187 -0.6263  1.8096
32053SOL    HW296738   0.688   3.701   6.737  0.1757 -1.9464 -0.3377
32054SOL     OW96739   6.978   0.671   9.820 -0.5375  0.6854 -0.1599
32054SOL    HW196740   7.013   0.677   9.731  0.0832  2.3132  0.1561
32054SOL    HW296741   7.050   0.637   9.872 -0.7428  0.1922 -0.2009
32055SOL     OW96742   2.022   8.102   5.546 -0.2304  0.1562 -0.5888
32055SOL    HW196743   2.018   8.026   5.488 -1.9510  0.4157 -0.8499
32055SOL    HW296744   2.099   8.151   5.516 -0.1421 -0.5636 -1.5761
32056SOL     OW96745   0.923   4.195   6.490 -0.7700  0.0767  1.0572
32056SOL    HW196746   0.893   4.250   6.562  0.6589  1.0619  0.9345
32056SOL    HW296747   0.989   4.138   6.529  1.9715  2.3635  0.1555
32057SOL     OW96748   4.801   8.529   2.705  0.1656  0.3325 -0.4224
32057SOL    HW196749   4.724   8.575   2.739 -0.7571  0.0975 -2.0513
32057SOL    HW296750   4.783   8.437   2.720 -1.7551 -0.0759 -4.0818
32058SOL     OW96751   2.483   9.356   0.287  0.4724 -0.2188  0.1527
32058SOL    HW196752   2.545   9.283   0.286 -1.0753 -1.5841  0.4681
32058SOL    HW296753   2.412   9.329   0.228 -0.2983  0.8692  0.5468
32059SOL     OW96754   8.755   8.875   8.927 -0.1084  0.0406  0.4493
32059SOL    HW196755   8.786   8.934   8.858 -0.6262  0.8337  0.8827
32059SOL    HW296756   8.693   8.817   8.882 -0.4462  0.5567  0.2424
32060SOL     OW96757   0.719   0.521   6.597 -0.7865  0.2303  0.0076
32060SOL    HW196758   0.698   0.479   6.681  1.2713 -0.0988  0.4132
32060SOL    HW296759   0.642   0.573   6.577 -0.7656  1.5728  2.9048
32061SOL     OW96760   4.012   3.381   7.424 -0.4967 -0.6382  0.2186
32061SOL    HW196761   3.983   3.452   7.481 -0.0981  0.6233 -1.1006
32061SOL    HW296762   4.062   3.323   7.481 -1.0967 -0.0398  1.3851
32062SOL     OW96763   2.534   6.289   8.462 -0.4072  0.2826 -0.4612
32062SOL    HW196764   2.539   6.358   8.528  1.0548  1.0688 -1.3370
32062SOL    HW296765   2.589   6.219   8.496 -2.1389 -0.6320  0.5745
32063SOL     OW96766   8.115   3.489   1.165  0.3386 -0.1636 -0.1762
32063SOL    HW196767   8.207   3.481   1.139  0.2386  1.2162 -1.0258
32063SOL    HW296768   8.098   3.583   1.165 -1.9453 -0.4516 -3.2567
32064SOL     OW96769   6.222   7.628   4.189 -0.0426  0.0551  0.1857
32064SOL    HW196770   6.198   7.681   4.265  0.6109  1.0152 -0.2505
32064SOL    HW296771   6.235   7.540   4.224 -1.0846  0.1862  0.9381
32065SOL     OW96772   6.516   2.709   9.906 -0.0792 -0.3289 -0.2488
32065SOL    HW196773   6.434   2.700   9.858 -0.9489  1.1338  0.8647
32065SOL    HW296774   6.564   2.777   9.859  0.4433 -1.0738 -0.8084
32066SOL     OW96775   0.773   9.191   5.056  0.1563  0.2358  0.3147
32066SOL    HW196776   0.849   9.221   5.105 -0.1103  1.1315  0.1855
32066SOL    HW296777   0.732   9.126   5.113  1.6208 -1.0907 -0.0789
32067SOL     OW96778   8.704   2.553   6.303  0.4280  0.7374 -0.4028
32067SOL    HW196779   8.643   2.625   6.322  1.3221  1.7372 -1.2231
32067SOL    HW296780   8.788   2.596   6.290  1.0828 -0.5238 -0.4181
32068SOL     OW96781   1.402   8.118   6.966 -0.4071 -0.2830 -0.4106
32068SOL    HW196782   1.431   8.209   6.969 -0.6801 -0.1990 -0.2635
32068SOL    HW296783   1.307   8.123   6.980 -0.3115 -0.6495  0.4240
32069SOL     OW96784   7.203   2.624   3.919  0.1187  0.7091 -0.3639
32069SOL    HW196785   7.287   2.657   3.889  0.1722  0.3324 -0.6331
32069SOL    HW296786   7.225   2.547   3.972 -0.1684 -0.8810 -2.4291
32070SOL     OW96787   2.632   3.375   0.367  0.2126 -0.1196  0.0122
32070SOL    HW196788   2.639   3.302   0.429 -0.5109 -0.3935 -0.2198
32070SOL    HW296789   2.721   3.408   0.358  0.6567 -1.3901 -0.3860
32071SOL     OW96790   3.548   1.848   4.896 -0.1813 -0.5312 -0.1706
32071SOL    HW196791   3.625   1.889   4.936  1.2046 -2.6981 -0.4498
32071SOL    HW296792   3.584   1.776   4.844 -2.4076 -1.5519 -0.3858
32072SOL     OW96793   8.335   1.716   5.466 -0.7897 -0.5275  0.1882
32072SOL    HW196794   8.331   1.811   5.480  0.3864 -0.5997  1.1293
32072SOL    HW296795   8.357   1.680   5.551  2.3291 -1.3327 -0.7973
32073SOL     OW96796   0.189   5.893   7.336  0.5006 -0.1141 -0.3495
32073SOL    HW196797   0.234   5.906   7.420 -0.8269  0.5747  0.2841
32073SOL    HW296798   0.107   5.850   7.359 -0.4823  1.2694 -1.1309
32074SOL     OW96799   1.234   6.062   6.071  0.2930 -0.3331  0.0464
32074SOL    HW196800   1.322   6.080   6.106 -0.2901  1.6845  0.6180
32074SOL    HW296801   1.175   6.082   6.144 -0.7634  0.7142 -1.0612
32075SOL     OW96802   1.646   6.759   7.612  0.2718  0.4860 -0.4707
32075SOL    HW196803   1.585   6.787   7.680  1.8733  0.4723  1.0509
32075SOL    HW296804   1.719   6.719   7.660  1.1557 -0.1379 -2.2397
32076SOL     OW96805   0.831   4.208   8.932  0.3740  0.9126  0.0626
32076SOL    HW196806   0.830   4.112   8.931 -0.1919  0.9114  0.2395
32076SOL    HW296807   0.896   4.232   8.866  1.4082  0.3955  0.8655
32077SOL     OW96808   2.569   6.788   7.429  0.1830 -0.1189  0.3104
32077SOL    HW196809   2.652   6.810   7.470 -0.0431 -0.4552  0.9624
32077SOL    HW296810   2.513   6.864   7.444  0.0951 -0.2477  0.6533
32078SOL     OW96811   0.445   4.060   0.014  0.7671  0.4072  0.1141
32078SOL    HW196812   0.466   4.019   0.098  0.7976  2.2720  1.0452
32078SOL    HW296813   0.514   4.124  -0.000 -0.5191  1.8064 -0.1289
32079SOL     OW96814   4.514   1.806   5.600 -0.1826 -0.2431  0.1886
32079SOL    HW196815   4.524   1.748   5.675  1.9530  0.9229  0.8727
32079SOL    HW296816   4.554   1.759   5.527 -1.1372 -0.8452  0.0322
32080SOL     OW96817   3.717   5.636   4.058  0.3615 -0.5665  0.6277
32080SOL    HW196818   3.711   5.546   4.027 -1.3852 -0.2527 -0.0933
32080SOL    HW296819   3.647   5.682   4.011  0.6780  0.9804  1.5933
32081SOL     OW96820   4.375   6.051   6.909 -0.7337  0.2654 -0.1855
32081SOL    HW196821   4.290   6.049   6.864 -0.5294 -0.6901 -0.5445
32081SOL    HW296822   4.383   5.965   6.950  0.2792  0.1638 -0.5686
32082SOL     OW96823   6.370   9.469   8.902  0.0987  0.1670 -0.0268
32082SOL    HW196824   6.340   9.560   8.889 -0.4979 -0.2223 -1.5838
32082SOL    HW296825   6.300   9.429   8.954  0.1647  0.4962  0.3188
32083SOL     OW96826   4.070   8.192   7.021 -0.2162  0.4223 -0.2392
32083SOL    HW196827   4.165   8.197   7.015 -0.2116 -0.1417 -0.7716
32083SOL    HW296828   4.044   8.270   7.071  0.3947  1.4016 -1.4143
32084SOL     OW96829   6.238   9.419   9.139 -0.0427  0.5786  0.0395
32084SOL    HW196830   6.191   9.352   9.188 -0.6353 -0.4368 -1.7906
32084SOL    HW296831   6.290   9.466   9.204 -0.7957 -0.6678  1.5918
32085SOL     OW96832   3.025   6.550   1.349 -0.1832  0.1790 -0.0861
32085SOL    HW196833   3.055   6.616   1.412  1.2751 -0.5351 -0.0079
32085SOL    HW296834   3.101   6.494   1.334 -1.9582 -3.0013  1.7166
32086SOL     OW96835   3.561   8.208   6.826  0.1630 -0.0738  0.0644
32086SOL    HW196836   3.532   8.118   6.842 -0.2731  0.0524 -0.0071
32086SOL    HW296837   3.626   8.200   6.755 -0.1346 -0.2937 -0.1872
32087SOL     OW96838   8.659   5.060   1.664 -0.5540  0.0725  0.4189
32087SOL    HW196839   8.600   5.107   1.723 -1.9000 -0.5214 -0.4060
32087SOL    HW296840   8.629   5.084   1.576  1.1445  0.6067 -0.0407
32088SOL     OW96841   6.514   7.319   4.339  0.4190 -0.2823 -0.2965
32088SOL    HW196842   6.434   7.266   4.344  0.2226  0.0295 -0.0820
32088SOL    HW296843   6.584   7.255   4.329  0.0321 -0.5020 -1.8499
32089SOL     OW96844   2.815   1.424   6.047 -0.4857 -0.2009  0.2973
32089SOL    HW196845   2.811   1.503   6.101  1.6171 -0.7315  1.3495
32089SOL    HW296846   2.799   1.352   6.109  1.0601 -0.7623  0.1031
32090SOL     OW96847   3.190   8.785   8.742  0.0701 -0.3450  0.5198
32090SOL    HW196848   3.230   8.698   8.744  0.7714 -0.0840 -0.6087
32090SOL    HW296849   3.211   8.824   8.827  1.8341 -0.4137  0.1662
32091SOL     OW96850   0.415   1.679   4.775  0.1295  0.2858  0.1691
32091SOL    HW196851   0.491   1.693   4.832  0.3702  1.4254 -0.4157
32091SOL    HW296852   0.413   1.755   4.717 -2.0613  0.8160  0.8288
32092SOL     OW96853   5.281   6.883   1.488 -0.3423 -0.3411  0.2261
32092SOL    HW196854   5.309   6.797   1.519 -1.3208 -0.6498  0.3099
32092SOL    HW296855   5.191   6.891   1.520  0.9165  2.4039  3.7069
32093SOL     OW96856   8.022   8.652   1.370 -0.2595  0.5206  0.1040
32093SOL    HW196857   8.004   8.694   1.286 -0.9129 -2.0193 -1.0996
32093SOL    HW296858   7.940   8.661   1.419  0.4329  2.9286  1.0154
32094SOL     OW96859   5.243   0.200   1.376  0.2917  0.1355 -0.4172
32094SOL    HW196860   5.230   0.275   1.318  1.3507  0.4226 -0.3176
32094SOL    HW296861   5.259   0.126   1.317 -0.2207  0.0946 -0.5073
32095SOL     OW96862   5.985   2.523   5.568 -0.2287  0.2182 -0.5296
32095SOL    HW196863   5.961   2.432   5.547  0.1651 -0.4986  1.8659
32095SOL    HW296864   6.080   2.525   5.557 -0.2132  0.2878 -0.3828
32096SOL     OW96865   0.801   7.607   7.179  0.2985 -0.3596  0.4758
32096SOL    HW196866   0.822   7.688   7.132 -0.9226 -0.7538 -0.8227
32096SOL    HW296867   0.769   7.547   7.111  0.0086 -1.5235  1.5903
32097SOL     OW96868   2.583   3.032   1.215  0.0746 -0.3964 -0.2705
32097SOL    HW196869   2.633   2.972   1.270  0.4622  0.0162 -0.1660
32097SOL    HW296870   2.574   3.111   1.268  0.8851  0.1904 -0.9780
32098SOL     OW96871   7.298   1.923   3.611 -0.1976 -0.4653 -0.4232
32098SOL    HW196872   7.328   1.984   3.544  1.4414 -1.3847 -0.5735
32098SOL    HW296873   7.368   1.924   3.677 -0.4130 -1.7619 -0.1546
32099SOL     OW96874   0.229   2.622   6.390  0.6803  0.5539 -0.0222
32099SOL    HW196875   0.140   2.622   6.354  0.9363  0.7815 -0.6843
32099SOL    HW296876   0.255   2.714   6.391  0.1336  0.7366  2.2160
32100SOL     OW96877   5.042   5.771   0.596 -0.3502  0.0273 -0.0524
32100SOL    HW196878   5.127   5.731   0.616 -0.3853  0.9272  2.2040
32100SOL    HW296879   4.981   5.728   0.655 -0.8263  1.6872  0.7017
32101SOL     OW96880   6.529   4.513   7.640  0.4719 -0.7372  0.0943
32101SOL    HW196881   6.579   4.438   7.672  1.5129  0.6631  1.9367
32101SOL    HW296882   6.448   4.511   7.692  0.7813 -0.2521  0.6090
32102SOL     OW96883   5.317   3.834   3.744 -0.4165  0.3896 -0.5134
32102SOL    HW196884   5.235   3.849   3.696 -0.3698  1.2769 -0.3348
32102SOL    HW296885   5.336   3.918   3.786  0.4584  0.1228 -0.3535
32103SOL     OW96886   6.135   8.833   0.225  0.1080 -0.3924  0.5980
32103SOL    HW196887   6.063   8.816   0.285 -0.5881 -0.2743 -0.1834
32103SOL    HW296888   6.171   8.746   0.205 -1.0296 -0.6508 -0.4504
32104SOL     OW96889   3.904   5.732   4.219 -0.3351 -0.6093 -0.5745
32104SOL    HW196890   3.830   5.682   4.183 -1.1952  0.7120 -0.6812
32104SOL    HW296891   3.917   5.803   4.157  1.5461 -1.2231 -0.9606
32105SOL     OW96892   8.217   4.251   1.573  0.1445 -0.7453 -0.5448
32105SOL    HW196893   8.202   4.174   1.628  2.1951  1.6042  3.8094
32105SOL    HW296894   8.311   4.250   1.554  0.0545  0.2727 -1.1408
32106SOL     OW96895   6.769   0.436   5.029 -0.7998  0.2432  0.0465
32106SOL    HW196896   6.802   0.513   4.983 -1.5387 -0.0561 -1.0187
32106SOL    HW296897   6.829   0.365   5.006  0.1943  0.5846  1.4565
32107SOL     OW96898   5.037   1.893   0.850  0.2033 -0.0090  0.3034
32107SOL    HW196899   4.945   1.897   0.828  0.9145  0.7479 -2.9667
32107SOL    HW296900   5.063   1.984   0.865  0.9971  0.1639 -1.8157
32108SOL     OW96901   8.127   0.789   1.490  0.0833  0.3285 -0.5789
32108SOL    HW196902   8.135   0.699   1.521  0.7764  0.7654  0.5865
32108SOL    HW296903   8.181   0.791   1.411 -0.6351 -0.4800 -1.1124
32109SOL     OW96904   1.121   6.149   4.213 -0.1865 -0.2117  1.0798
32109SOL    HW196905   1.048   6.186   4.262 -0.9461  0.0340 -0.2007
32109SOL    HW296906   1.136   6.210   4.141 -0.6380 -1.7013 -0.3526
32110SOL     OW96907   7.584   4.360   0.850  0.1384 -0.0730 -0.2600
32110SOL    HW196908   7.651   4.380   0.785 -1.0539 -1.3787 -1.9751
32110SOL    HW296909   7.612   4.277   0.888 -1.2717 -1.4889 -2.1684
32111SOL     OW96910   9.775   7.404   5.096 -0.0044  0.2951 -0.6353
32111SOL    HW196911   9.797   7.435   5.008 -0.6762 -0.2540 -1.0038
32111SOL    HW296912   9.855   7.361   5.126 -0.2025 -0.7404 -1.5364
32112SOL     OW96913   1.543   3.876   7.301  0.2864 -0.2466 -0.6221
32112SOL    HW196914   1.537   3.828   7.383 -0.7431  0.2757 -0.3707
32112SOL    HW296915   1.637   3.883   7.284  0.5913  0.8156  1.2301
32113SOL     OW96916   0.136   6.283   3.527  0.4382  0.0596  0.1052
32113SOL    HW196917   0.091   6.262   3.446  1.3140 -1.4540 -0.0342
32113SOL    HW296918   0.209   6.220   3.531  1.6082  1.4014  1.0696
32114SOL     OW96919   0.115   5.044   9.245 -0.2154  0.0540 -0.3402
32114SOL    HW196920   0.143   5.009   9.160  0.6622  2.9428 -1.3496
32114SOL    HW296921   0.037   5.095   9.225  0.7565  1.8688  0.2752
32115SOL     OW96922   0.873   5.026   6.500 -0.3278  0.4943 -0.2656
32115SOL    HW196923   0.921   5.101   6.465 -1.3925  2.0795  1.4810
32115SOL    HW296924   0.823   4.992   6.426 -0.0262  1.6513 -1.0255
32116SOL     OW96925   2.191   7.713   2.904 -0.3707  0.3108 -0.5369
32116SOL    HW196926   2.220   7.624   2.885  2.4441  1.4167 -2.0949
32116SOL    HW296927   2.173   7.751   2.818 -1.6848  1.2602  0.1117
32117SOL     OW96928   1.105   1.941   5.241  0.5684  0.2447 -0.5390
32117SOL    HW196929   1.078   2.005   5.307 -2.0912  0.4860 -1.7013
32117SOL    HW296930   1.149   1.992   5.174 -4.7899  1.9170 -3.3475
32118SOL     OW96931   6.670   4.766   0.750 -0.4871  0.4709 -0.6860
32118SOL    HW196932   6.600   4.709   0.719  0.2069 -1.0625  0.4474
32118SOL    HW296933   6.640   4.796   0.836 -0.0960  0.4640 -0.5465
32119SOL     OW96934   0.877   9.748   4.428  0.2589  0.0356 -0.4330
32119SOL    HW196935   0.789   9.714   4.410 -0.5542  2.3372 -1.2171
32119SOL    HW296936   0.906   9.787   4.345  2.0327 -0.6399 -0.1782
32120SOL     OW96937   5.033   7.512   9.941  0.0954  0.1579 -0.0830
32120SOL    HW196938   5.049   7.456   9.864 -3.5292 -1.3648  0.0621
32120SOL    HW296939   5.044   7.453  10.016 -0.0732  0.6511  0.3320
32121SOL     OW96940   1.876   1.576   4.864 -0.2896 -0.9900  1.0015
32121SOL    HW196941   1.811   1.616   4.807  1.4642 -0.7838 -0.9541
32121SOL    HW296942   1.847   1.485   4.874  1.4583 -2.4319 -3.9654
32122SOL     OW96943   5.496   4.663   1.316 -0.5943  0.3923 -0.0717
32122SOL    HW196944   5.533   4.584   1.277  0.9266  0.7039  0.6783
32122SOL    HW296945   5.433   4.631   1.381  0.2348 -0.2214  0.4433
32123SOL     OW96946   6.964   5.522   8.327 -0.0306  0.5918 -0.4630
32123SOL    HW196947   7.041   5.566   8.291 -0.2643  1.2515 -0.1665
32123SOL    HW296948   6.957   5.441   8.277 -0.3409  1.4750 -1.8998
32124SOL     OW96949   7.781   0.510   1.222 -0.0455  0.3668 -1.5127
32124SOL    HW196950   7.725   0.432   1.222 -0.5822  0.6412  1.2889
32124SOL    HW296951   7.720   0.583   1.227  0.5056  0.7474 -0.0142
32125SOL     OW96952   8.695   8.565   6.531 -0.0061 -0.4460 -0.3188
32125SOL    HW196953   8.641   8.637   6.497 -0.1529  0.2232  1.2700
32125SOL    HW296954   8.637   8.489   6.529 -0.2425 -0.2586 -0.8610
32126SOL     OW96955   0.327   6.260   5.775  0.2529 -0.0917 -0.3827
32126SOL    HW196956   0.364   6.346   5.792  0.4048 -0.1078 -0.6351
32126SOL    HW296957   0.316   6.256   5.680 -1.0958  0.2097 -0.2555
32127SOL     OW96958   6.006   3.171   0.527 -0.2905  0.3040 -0.5943
32127SOL    HW196959   6.054   3.211   0.454 -1.5787  1.1351 -1.0319
32127SOL    HW296960   5.951   3.241   0.561  0.2403 -0.0793  1.1842
32128SOL     OW96961   5.118   5.222   2.207 -0.1172 -0.6755 -0.0613
32128SOL    HW196962   5.172   5.222   2.286  1.6351 -0.1236 -1.2075
32128SOL    HW296963   5.068   5.303   2.212 -0.5093 -0.9552  0.7763
32129SOL     OW96964   8.095   4.995   3.964  0.2245  0.1530  0.0601
32129SOL    HW196965   8.019   4.937   3.960  0.1271  0.2681  0.2190
32129SOL    HW296966   8.133   4.980   4.050 -0.8040  1.5637  0.8102
32130SOL     OW96967   7.094   2.703   0.259 -0.3209  0.4709 -0.7875
32130SOL    HW196968   7.049   2.629   0.300  0.9136  0.9926  1.7087
32130SOL    HW296969   7.182   2.669   0.238 -0.2500  0.8149 -1.0573
32131SOL     OW96970   3.022   9.151   9.952  0.1054  0.0027 -0.0948
32131SOL    HW196971   2.961   9.139   9.879  0.3092  2.0783 -0.6645
32131SOL    HW296972   3.109   9.144   9.913  0.2545 -1.3452  0.4296
32132SOL     OW96973   1.040   4.343   5.818 -0.0027  0.2704  0.4033
32132SOL    HW196974   1.047   4.334   5.913 -0.4512 -0.7794  0.3462
32132SOL    HW296975   1.061   4.257   5.783  0.2930  0.6782 -0.4723
32133SOL     OW96976   3.568   3.225   3.913  0.6584  0.8126 -0.2451
32133SOL    HW196977   3.643   3.167   3.903  0.2588 -0.1511  1.8056
32133SOL    HW296978   3.572   3.255   4.003 -0.7812  1.6642 -0.4211
32134SOL     OW96979   9.858   6.091   0.375  0.0060 -0.4214  0.2890
32134SOL    HW196980   9.812   6.175   0.365  0.7983  0.2506  1.9248
32134SOL    HW296981   9.942   6.105   0.331 -1.4416 -1.8534 -3.2494
32135SOL     OW96982   3.991   0.330   6.265 -0.6236 -0.0876 -0.1127
32135SOL    HW196983   4.034   0.405   6.222  0.0466 -0.9622 -1.0110
32135SOL    HW296984   3.907   0.321   6.221 -0.5351 -0.1157 -0.2736
32136SOL     OW96985   0.149   9.106   0.846  0.0347  0.1009 -0.2120
32136SOL    HW196986   0.097   9.173   0.800 -0.2296 -0.5275 -0.8528
32136SOL    HW296987   0.085   9.045   0.880  0.3379 -0.6391 -0.9365
32137SOL     OW96988   0.030   9.113   7.896  0.4463  0.4277 -0.1123
32137SOL    HW196989  -0.054   9.157   7.905  0.4839  0.5138 -0.1688
32137SOL    HW296990   0.053   9.124   7.803  0.8607  1.0336  0.0549
32138SOL     OW96991   8.888   9.193   1.456  0.9109  0.7784 -0.2887
32138SOL    HW196992   8.831   9.143   1.515  0.2242 -0.7066 -2.1221
32138SOL    HW296993   8.828   9.236   1.395  1.6743 -0.0455 -1.6678
32139SOL     OW96994   4.232   3.069   7.610  0.2771  0.1799 -0.1371
32139SOL    HW196995   4.248   3.129   7.683 -2.2350  0.8182 -0.0181
32139SOL    HW296996   4.139   3.079   7.591  0.4170 -1.5512 -2.0595
32140SOL     OW96997   7.969   8.313   5.637  0.3015  0.0487 -0.3611
32140SOL    HW196998   7.921   8.281   5.713  1.0604  0.1790  0.1903
32140SOL    HW296999   8.031   8.242   5.618 -0.8331 -0.6164 -1.7652
32141SOL     OW97000   5.543   0.380   3.577 -0.3316 -0.8601  0.0698
32141SOL    HW197001   5.606   0.447   3.549 -1.6490  0.2590 -0.3751
32141SOL    HW297002   5.558   0.371   3.671 -1.4156  1.5843  0.5643
32142SOL     OW97003   0.033   4.309   7.152 -0.6065  0.4132  0.3546
32142SOL    HW197004   0.009   4.381   7.211  3.2156  1.2313  1.1538
32142SOL    HW297005   0.043   4.233   7.210  0.1252  0.4627  0.3045
32143SOL     OW97006   5.958   5.714   4.259  0.1986  0.3680  0.2734
32143SOL    HW197007   5.960   5.803   4.225 -1.0006 -0.5669 -2.5904
32143SOL    HW297008   5.867   5.701   4.288 -0.1363 -0.4308 -1.0414
32144SOL     OW97009   3.002   6.198   6.021 -0.5049  0.1928  0.2159
32144SOL    HW197010   3.026   6.174   6.111 -0.2128  1.6140  0.5397
32144SOL    HW297011   3.081   6.240   5.986 -1.3999  1.8812  0.1488
32145SOL     OW97012   1.579   5.133   6.697  0.1318 -0.2697  0.1751
32145SOL    HW197013   1.514   5.175   6.753 -0.1959  1.2886 -1.3235
32145SOL    HW297014   1.529   5.074   6.641  0.1641 -0.0829 -0.0536
32146SOL     OW97015   5.285   8.848   0.054 -0.4809  0.1706  0.1776
32146SOL    HW197016   5.205   8.900   0.045 -0.6374 -0.4457 -2.8278
32146SOL    HW297017   5.298   8.807  -0.031  1.3169 -2.3293  1.4988
32147SOL     OW97018   0.715   8.272   3.117  0.2010 -0.2938  0.3219
32147SOL    HW197019   0.735   8.305   3.029  0.6235  0.0961  0.5604
32147SOL    HW297020   0.674   8.187   3.101 -1.0876  0.4115 -0.3099
32148SOL     OW97021   5.192   8.691   3.294 -0.6119 -0.4806  0.1621
32148SOL    HW197022   5.118   8.752   3.292 -0.6241 -0.4922  0.3126
32148SOL    HW297023   5.189   8.651   3.381  1.3151  1.6583  1.3032
32149SOL     OW97024   0.650   6.775   7.875  0.2141  0.2467  0.2126
32149SOL    HW197025   0.641   6.829   7.954  1.2392  0.0730  0.4652
32149SOL    HW297026   0.726   6.720   7.892 -0.1284 -0.4803 -0.5143
32150SOL     OW97027   2.061   0.030   3.428  0.7444  0.1381  0.3669
32150SOL    HW197028   2.004   0.103   3.404  0.5894  0.2141  0.9350
32150SOL    HW297029   2.139   0.071   3.465  1.6412  0.0613 -1.3464
32151SOL     OW97030   5.753   2.643   1.733  0.0884 -0.1878 -0.5961
32151SOL    HW197031   5.751   2.557   1.689 -2.1872 -0.2462 -0.4927
32151SOL    HW297032   5.845   2.657   1.753  0.8660 -1.4444 -2.8895
32152SOL     OW97033   8.923   9.810   1.707 -0.4974  0.4647  0.2165
32152SOL    HW197034   9.013   9.842   1.712 -1.2953  2.9069  0.2658
32152SOL    HW297035   8.918   9.765   1.623  0.7883  0.1733  0.2725
32153SOL     OW97036   3.901   3.606   8.061 -0.1281 -0.0199 -0.0530
32153SOL    HW197037   3.921   3.590   8.153  0.2594 -0.7765 -0.2645
32153SOL    HW297038   3.938   3.693   8.043 -0.7007  0.3785  0.6418
32154SOL     OW97039   2.874   8.283   2.216  0.4357  0.3302  0.1224
32154SOL    HW197040   2.953   8.272   2.163  0.2168 -0.5561 -0.0267
32154SOL    HW297041   2.868   8.204   2.268 -0.0972  0.6026  0.4871
32155SOL     OW97042   9.702   6.251   4.367  0.1909  0.6338  0.4330
32155SOL    HW197043   9.745   6.200   4.297  4.2094  2.6666  1.0973
32155SOL    HW297044   9.720   6.201   4.446  0.9204  1.2426  0.6597
32156SOL     OW97045   3.641   3.819   2.833 -0.1436 -0.0153  0.2449
32156SOL    HW197046   3.618   3.908   2.860 -2.5004 -0.6581  0.6255
32156SOL    HW297047   3.735   3.812   2.851 -0.0934  2.0574  1.1301
32157SOL     OW97048   3.495   0.561   8.338 -0.2529 -0.5619 -0.2178
32157SOL    HW197049   3.567   0.506   8.369  0.0871 -0.6920 -1.2252
32157SOL    HW297050   3.528   0.602   8.258 -0.7853  0.5049  0.0854
32158SOL     OW97051   7.223   4.867   8.263  0.1372 -0.1773 -0.1375
32158SOL    HW197052   7.143   4.868   8.210 -1.2011 -0.2717  1.7839
32158SOL    HW297053   7.216   4.944   8.319  1.1665 -0.4363  0.3668
32159SOL     OW97054   6.462   3.149   6.611  0.0886 -0.1945 -0.4944
32159SOL    HW197055   6.515   3.228   6.613 -0.0150 -0.1362  0.2973
32159SOL    HW297056   6.381   3.175   6.567 -0.5141  0.5217  0.9689
32160SOL     OW97057   2.948   1.807   0.968 -0.5104 -0.8267  0.1785
32160SOL    HW197058   2.900   1.780   0.889  0.4482  0.6189 -0.9500
32160SOL    HW297059   3.037   1.824   0.937  0.5463 -2.6000  2.0643
32161SOL     OW97060   6.308   8.230   3.851  0.4003  0.0954  0.3625
32161SOL    HW197061   6.308   8.325   3.847  2.3869  0.1909  1.4390
32161SOL    HW297062   6.400   8.206   3.864 -0.0699 -1.9700  0.3244
32162SOL     OW97063   6.249   5.136   8.823 -0.4947 -0.1971  0.3695
32162SOL    HW197064   6.223   5.122   8.914  0.3420 -2.4160  0.3098
32162SOL    HW297065   6.316   5.070   8.806 -0.1491  0.6022 -1.6759
32163SOL     OW97066   7.091   4.939   7.074  0.0414 -0.1162  0.0679
32163SOL    HW197067   7.138   4.861   7.043 -0.6914 -0.7926  0.6125
32163SOL    HW297068   7.000   4.924   7.047  0.5246  2.6456 -3.8449
32164SOL     OW97069   3.438   7.000   1.276  0.1629  0.4313 -0.1014
32164SOL    HW197070   3.394   7.077   1.311 -0.3228  0.0089  0.2368
32164SOL    HW297071   3.367   6.947   1.238  0.3221 -0.4264  0.7676
32165SOL     OW97072   7.929   8.012   6.514 -0.3530 -0.2618  0.1328
32165SOL    HW197073   7.836   8.032   6.515 -0.7159 -1.6947 -1.3179
32165SOL    HW297074   7.966   8.064   6.586 -2.3668 -0.2298  1.1977
32166SOL     OW97075   1.723   2.952   6.357 -0.5171  0.1275  0.3864
32166SOL    HW197076   1.692   3.007   6.284 -2.1471  0.4182  1.2398
32166SOL    HW297077   1.643   2.911   6.391  0.2467 -0.2420  1.8121
32167SOL     OW97078   6.655   4.982   0.151 -0.3704 -0.6895  0.2794
32167SOL    HW197079   6.598   4.990   0.074  0.7671 -0.6808 -0.5874
32167SOL    HW297080   6.648   5.067   0.195  0.1012 -0.1619 -0.6330
32168SOL     OW97081   3.595   8.005   5.098 -0.3347  0.0945 -0.1654
32168SOL    HW197082   3.566   8.096   5.091 -1.8051 -0.3700 -0.4509
32168SOL    HW297083   3.543   7.959   5.032  1.5846 -0.6912 -1.1820
32169SOL     OW97084   2.646   3.373   3.335 -0.1665  0.1728 -0.6889
32169SOL    HW197085   2.575   3.423   3.376 -0.3731 -1.0203  0.4816
32169SOL    HW297086   2.692   3.332   3.408  0.3656 -0.8643 -1.5714
32170SOL     OW97087   8.265   6.018   7.111 -0.1485  0.3680 -0.2332
32170SOL    HW197088   8.244   6.112   7.115 -0.9019  0.1847  0.2007
32170SOL    HW297089   8.198   5.980   7.055 -1.5851 -0.3696  1.8909
32171SOL     OW97090   6.224   1.355   0.592  0.2825  0.5792 -0.4588
32171SOL    HW197091   6.184   1.289   0.649 -0.0535  1.7802  0.7425
32171SOL    HW297092   6.217   1.317   0.504 -2.8395  0.3571 -0.2409
32172SOL     OW97093   0.598   4.671   5.285 -0.0747  0.6879 -0.1352
32172SOL    HW197094   0.691   4.663   5.265 -0.0106  2.1346 -0.5853
32172SOL    HW297095   0.589   4.635   5.373  0.5726 -1.1061 -0.7690
32173SOL     OW97096   0.366   2.829   3.464  0.1143  0.1243 -0.1785
32173SOL    HW197097   0.417   2.749   3.481 -0.5709 -0.5501 -1.1679
32173SOL    HW297098   0.277   2.805   3.489  0.2209  1.2624  1.4474
32174SOL     OW97099   9.373   0.984   1.522 -0.2501 -0.1692  0.2011
32174SOL    HW197100   9.405   1.071   1.496  0.5160 -0.3652  0.4583
32174SOL    HW297101   9.278   0.992   1.520 -0.2468  0.0820 -1.8650
32175SOL     OW97102   8.785   5.139   9.375  0.1803 -0.0313  0.0643
32175SOL    HW197103   8.750   5.134   9.464 -1.3877 -0.4283 -0.5599
32175SOL    HW297104   8.712   5.168   9.321  1.5618  1.9862 -0.8589
32176SOL     OW97105   6.318   6.470   9.742  0.5381 -0.0426  0.1273
32176SOL    HW197106   6.370   6.433   9.813 -1.3587 -1.2535  0.9625
32176SOL    HW297107   6.291   6.556   9.775 -0.5054 -0.6837  1.0018
32177SOL     OW97108   5.622   9.034   0.974 -0.5501  0.2406  0.0287
32177SOL    HW197109   5.652   9.125   0.966  2.5908 -0.6776 -0.2941
32177SOL    HW297110   5.659   9.005   1.058 -0.0498 -1.1873 -0.6694
32178SOL     OW97111   0.992   3.115   9.402  0.1413  0.2200 -0.0416
32178SOL    HW197112   0.997   3.174   9.327 -0.2200  0.6375  0.2644
32178SOL    HW297113   0.997   3.171   9.479 -1.5137  0.0071  0.2691
32179SOL     OW97114   7.996   5.322   6.328 -0.1076  0.1527 -0.0621
32179SOL    HW197115   7.940   5.378   6.382 -0.8424  1.1839 -1.8180
32179SOL    HW297116   8.066   5.294   6.387 -0.7565  1.4055  1.3592
32180SOL     OW97117   2.553   3.033   5.078  0.5100 -0.1645 -0.1020
32180SOL    HW197118   2.499   2.976   5.134 -0.4963  1.0720  0.2481
32180SOL    HW297119   2.638   3.034   5.121  0.5119 -1.2639 -0.0310
32181SOL     OW97120   8.791   5.269   9.929 -0.3972 -0.4605  0.1064
32181SOL    HW197121   8.704   5.258   9.891 -2.1487  1.4428  3.1550
32181SOL    HW297122   8.807   5.188   9.976 -1.8417  0.1091  1.7138
32182SOL     OW97123   8.259   5.107   5.304  0.0484 -0.4321 -0.7007
32182SOL    HW197124   8.329   5.125   5.367  0.1218  0.9796 -1.1455
32182SOL    HW297125   8.196   5.178   5.317 -0.8323 -1.1361 -0.9828
32183SOL     OW97126   9.292   0.176   6.814  0.4751  0.7030 -0.3015
32183SOL    HW197127   9.358   0.182   6.883  0.1172  1.2897 -0.0009
32183SOL    HW297128   9.284   0.266   6.782  1.1081  0.3360 -1.5564
32184SOL     OW97129   4.666   9.949   5.872  0.1165 -0.4078 -0.1258
32184SOL    HW197130   4.662   9.985   5.961 -0.5262 -1.5645  0.3284
32184SOL    HW297131   4.577   9.960   5.838 -0.1048 -1.5572  0.0337
32185SOL     OW97132   2.949   3.489   7.159 -0.4261  0.1815 -0.6896
32185SOL    HW197133   3.024   3.451   7.114 -0.2600  0.2424 -0.4622
32185SOL    HW297134   2.986   3.553   7.219 -0.6058 -0.3206 -0.0374
32186SOL     OW97135   8.628   3.470   2.432  0.1524 -0.0941 -0.2798
32186SOL    HW197136   8.616   3.391   2.379  1.0342  0.0440 -0.7120
32186SOL    HW297137   8.557   3.528   2.406 -1.3817 -1.2754  1.0924
32187SOL     OW97138   6.629   1.144   9.747  0.3440  0.3932 -0.4316
32187SOL    HW197139   6.575   1.074   9.712  0.0665  0.0800  0.5997
32187SOL    HW297140   6.695   1.160   9.678 -0.6285  0.3257 -1.4031
32188SOL     OW97141   5.626   3.707   9.668  0.5622  0.3219  0.0786
32188SOL    HW197142   5.652   3.720   9.759 -0.0353  0.0466  0.2947
32188SOL    HW297143   5.530   3.708   9.670  0.5013 -1.5282 -0.2589
32189SOL     OW97144   2.267   6.796   1.116 -0.2449 -0.1560  0.1145
32189SOL    HW197145   2.355   6.767   1.140 -0.9910 -1.4352  1.5196
32189SOL    HW297146   2.280   6.878   1.070  1.9197 -1.7915 -2.4928
32190SOL     OW97147   1.746   1.567   0.865  0.3118  0.4322 -0.0090
32190SOL    HW197148   1.824   1.613   0.896  1.0172  0.2450 -1.4012
32190SOL    HW297149   1.748   1.482   0.910  0.8480  0.4744  0.0545
32191SOL     OW97150   8.299   7.901   2.034  0.1754  0.4750 -0.2181
32191SOL    HW197151   8.250   7.936   1.959  0.4443  0.9796 -0.1626
32191SOL    HW297152   8.293   7.970   2.100  0.2378  0.1778  0.0993
32192SOL     OW97153   1.861   1.201   2.064 -0.1774  0.0436 -0.0655
32192SOL    HW197154   1.923   1.270   2.086  0.1477 -1.1199  3.2007
32192SOL    HW297155   1.782   1.221   2.115 -0.6350 -1.1626 -0.2629
32193SOL     OW97156   5.932   5.298   3.211 -0.2598  0.1591 -0.1991
32193SOL    HW197157   5.872   5.340   3.273 -0.6342  0.3478 -0.6889
32193SOL    HW297158   6.011   5.351   3.216  0.3479 -0.7995  1.3689
32194SOL     OW97159   9.138   1.157   4.041  0.1141  0.2450 -0.7046
32194SOL    HW197160   9.115   1.065   4.033  2.2866 -0.5280  0.8833
32194SOL    HW297161   9.223   1.164   3.998  0.9670  0.9918  0.9944
32195SOL     OW97162   2.971   7.901   0.593  0.2119 -0.5430 -0.8212
32195SOL    HW197163   3.033   7.960   0.637 -1.9044 -0.0652  1.8131
32195SOL    HW297164   2.904   7.959   0.557 -0.6792 -1.1956 -0.2453
32196SOL     OW97165   4.597   4.764   1.555  0.2379  0.0868 -0.1851
32196SOL    HW197166   4.644   4.842   1.585  0.3563  1.0350 -2.6058
32196SOL    HW297167   4.663   4.694   1.555  0.5589  0.3820  0.3737
32197SOL     OW97168   9.035   7.300   2.085 -0.5032  0.2483 -0.2515
32197SOL    HW197169   9.037   7.395   2.098 -1.7930  0.1594  0.7841
32197SOL    HW297170   9.085   7.286   2.005  0.0356  1.7629 -0.2105
32198SOL     OW97171   6.992   3.653   1.139 -0.7400 -0.1701 -0.1746
32198SOL    HW197172   6.915   3.633   1.191 -1.4897  0.2246 -1.1032
32198SOL    HW297173   7.045   3.709   1.196 -1.3850 -0.0152  0.2872
32199SOL     OW97174   7.116   4.243   9.623  0.4493  0.4858  0.7718
32199SOL    HW197175   7.177   4.170   9.634  0.5734  0.6685  1.3313
32199SOL    HW297176   7.073   4.226   9.540 -0.2731 -0.7821  1.3767
32200SOL     OW97177   6.189   4.877   7.998  0.0325  0.6631  0.5914
32200SOL    HW197178   6.130   4.807   8.025  0.2604  0.6154  0.9778
32200SOL    HW297179   6.249   4.888   8.072  0.2498  0.9914  0.3717
32201SOL     OW97180   5.417   4.852   9.304 -0.5543  0.2994  0.8933
32201SOL    HW197181   5.375   4.914   9.246 -0.1059 -0.0828  0.1485
32201SOL    HW297182   5.432   4.901   9.385 -0.2502  1.1464  0.3369
32202SOL     OW97183   1.747   5.754   0.707 -0.1234  0.2223  0.1227
32202SOL    HW197184   1.803   5.709   0.770  0.0933  1.4527  0.8485
32202SOL    HW297185   1.808   5.805   0.654 -0.1869 -1.6332 -1.8648
32203SOL     OW97186   9.123   9.116   3.463  0.1437 -0.0982  0.1554
32203SOL    HW197187   9.193   9.177   3.442 -0.1692  0.1177 -0.2624
32203SOL    HW297188   9.069   9.162   3.527 -0.4459  0.3203 -0.6240
32204SOL     OW97189   3.183   4.037   6.699 -0.2693 -0.2438 -0.2699
32204SOL    HW197190   3.267   4.073   6.669 -0.2852 -0.7728 -0.9918
32204SOL    HW297191   3.204   3.993   6.781  0.1768 -0.4164 -0.4711
32205SOL     OW97192   4.283   6.719   9.180 -0.1361 -0.2769  0.5913
32205SOL    HW197193   4.294   6.664   9.257 -0.6628  0.4475  1.1884
32205SOL    HW297194   4.188   6.730   9.171 -0.1147 -0.7500 -0.4498
32206SOL     OW97195   2.994   2.069   8.945 -0.4514 -0.0212 -0.6287
32206SOL    HW197196   3.006   2.163   8.962  0.5654 -0.5152  1.8172
32206SOL    HW297197   3.082   2.038   8.923 -0.8782 -0.3346 -1.9335
32207SOL     OW97198   3.466   0.449   3.906 -0.1726 -0.3643 -0.2308
32207SOL    HW197199   3.490   0.497   3.826  0.9845 -0.7841 -0.1496
32207SOL    HW297200   3.465   0.515   3.974  0.3389 -0.2590 -0.3201
32208SOL     OW97201   5.933   2.311   9.021 -0.3562 -0.3714  0.0864
32208SOL    HW197202   5.989   2.234   9.009 -2.3073 -1.6836 -1.3087
32208SOL    HW297203   5.885   2.293   9.102 -0.3794 -0.3475  0.0777
32209SOL     OW97204   4.331   2.757   4.605 -0.1976 -0.1336  0.5928
32209SOL    HW197205   4.254   2.796   4.564 -0.4505  1.4445  2.3775
32209SOL    HW297206   4.296   2.685   4.658 -0.1983 -0.5403  0.0479
32210SOL     OW97207   1.413   5.913   8.399  0.7552  0.4789  0.2741
32210SOL    HW197208   1.432   5.994   8.446  1.5438  0.7830 -0.5398
32210SOL    HW297209   1.498   5.869   8.390  0.3490 -0.3951  0.6302
32211SOL     OW97210   7.073   0.360   0.446  0.5251  0.0802  0.6317
32211SOL    HW197211   6.991   0.312   0.434  0.3028  0.3122  1.1985
32211SOL    HW297212   7.139   0.292   0.458  1.2211 -0.3549 -4.0032
32212SOL     OW97213   5.951   0.475   4.824 -0.0210 -0.5194 -0.0581
32212SOL    HW197214   6.021   0.539   4.841 -1.2249  1.0858 -0.8491
32212SOL    HW297215   5.939   0.431   4.908  1.2828 -0.1652  0.3472
32213SOL     OW97216   4.475   7.925   9.398  0.4427 -0.3403  0.3140
32213SOL    HW197217   4.436   7.947   9.314 -0.2419 -0.1285  0.6805
32213SOL    HW297218   4.509   7.836   9.387 -0.1051 -0.5095 -0.0201
32214SOL     OW97219   8.297   1.518   7.327  0.4375 -0.3248  0.3747
32214SOL    HW197220   8.364   1.499   7.393  0.6001 -0.8027  0.0753
32214SOL    HW297221   8.231   1.569   7.375  1.8573  1.7684  0.2610
32215SOL     OW97222   9.291   4.565   8.733 -0.7677  0.0958  0.3569
32215SOL    HW197223   9.382   4.544   8.710 -1.5605 -0.5133 -2.6318
32215SOL    HW297224   9.292   4.659   8.751  0.6431 -0.1317  1.7834
32216SOL     OW97225   1.993   2.312   2.895  0.3988  0.2936 -0.1656
32216SOL    HW197226   2.008   2.292   2.987 -0.3093 -0.2119 -0.1520
32216SOL    HW297227   1.898   2.320   2.887  0.3809 -0.5645 -1.0303
32217SOL     OW97228   2.566   8.351   1.829  0.0415  0.1319  0.0964
32217SOL    HW197229   2.633   8.364   1.896 -0.2184  2.0180  0.0596
32217SOL    HW297230   2.609   8.299   1.761  0.5471 -1.1442  1.3316
32218SOL     OW97231   3.033   3.567   2.032 -0.1112  0.9128  0.4926
32218SOL    HW197232   3.075   3.501   1.976  1.0195 -0.3373  2.6684
32218SOL    HW297233   2.956   3.595   1.983  1.9097  1.5352 -2.6529
32219SOL     OW97234   2.523   0.506   0.098 -0.2647 -0.1917  0.3868
32219SOL    HW197235   2.529   0.457   0.016  1.4432  0.3785  0.1404
32219SOL    HW297236   2.545   0.442   0.166  1.1127 -0.0004  0.1387
32220SOL     OW97237   9.060   7.676   9.436 -0.1990 -0.2315  0.3527
32220SOL    HW197238   9.125   7.632   9.380  1.8963 -0.3520  2.7091
32220SOL    HW297239   9.104   7.755   9.467 -1.3901 -0.0182  1.5907
32221SOL     OW97240   0.691   1.266   9.144 -0.4457  0.5523 -0.6051
32221SOL    HW197241   0.698   1.250   9.050  2.1719  2.8323 -0.9052
32221SOL    HW297242   0.703   1.360   9.154  0.4176  0.2513  2.0836
32222SOL     OW97243   9.325   3.443   4.104  0.1460  0.3459 -0.2252
32222SOL    HW197244   9.393   3.414   4.044 -1.8294 -0.4405 -2.2130
32222SOL    HW297245   9.327   3.539   4.097  1.0522  0.3355 -0.2237
32223SOL     OW97246   0.936   6.885   4.641  0.1599 -0.8945  0.4066
32223SOL    HW197247   0.869   6.869   4.575  0.8277 -1.2575 -0.1980
32223SOL    HW297248   0.944   6.801   4.688  0.5517 -1.0104  0.1361
32224SOL     OW97249   5.355   9.143   6.565 -0.0072 -0.1328  0.3037
32224SOL    HW197250   5.418   9.127   6.635 -0.1113  0.2166  0.4785
32224SOL    HW297251   5.408   9.177   6.493  0.0172  0.0739  0.4186
32225SOL     OW97252   8.182   4.240   6.069  0.2254 -0.0945  0.2966
32225SOL    HW197253   8.197   4.303   5.999  1.6943 -0.4962  0.2139
32225SOL    HW297254   8.262   4.243   6.121  0.0495 -1.4029  0.6740
32226SOL     OW97255   8.195   1.273   9.575 -0.6724 -0.2786 -0.0383
32226SOL    HW197256   8.257   1.259   9.503 -2.1789 -0.0660 -1.4433
32226SOL    HW297257   8.148   1.190   9.583 -0.1685 -0.4749  1.0937
32227SOL     OW97258   6.035   0.255   0.533  0.2235  0.5438  0.5899
32227SOL    HW197259   5.943   0.238   0.549 -0.2386  1.2616 -1.0641
32227SOL    HW297260   6.066   0.297   0.614 -1.2839  1.6724  0.6314
32228SOL     OW97261   3.222   4.868   8.840 -0.3882 -0.3528  0.1356
32228SOL    HW197262   3.150   4.919   8.877  0.0749  0.3405  0.0990
32228SOL    HW297263   3.271   4.837   8.916 -0.3184 -0.2262  0.1428
32229SOL     OW97264   6.820   4.048   1.588 -0.2784  0.5513  0.0209
32229SOL    HW197265   6.762   3.972   1.581 -2.1140  1.8110  0.8529
32229SOL    HW297266   6.804   4.098   1.508 -0.4610  0.9870  0.3292
32230SOL     OW97267   7.837   0.079   3.885  0.4140 -0.4412 -0.4185
32230SOL    HW197268   7.825   0.164   3.926  1.9625 -0.7365  0.7361
32230SOL    HW297269   7.800   0.016   3.947  0.5335 -0.7096 -0.6133
32231SOL     OW97270   7.985   0.267   1.442  0.2311 -0.2619 -0.2242
32231SOL    HW197271   7.961   0.217   1.520 -0.1701 -1.2935 -0.9691
32231SOL    HW297272   7.909   0.322   1.425  0.4634  0.2300  0.3072
32232SOL     OW97273   8.925   5.263   1.425 -0.1529  0.0040 -1.0389
32232SOL    HW197274   8.839   5.268   1.384 -0.7804  0.2655  0.2796
32232SOL    HW297275   8.908   5.260   1.519  1.1983 -2.0790 -0.7965
32233SOL     OW97276   7.174   9.306   3.243 -0.2797 -0.1677  0.2793
32233SOL    HW197277   7.215   9.229   3.283 -0.1938 -0.3262 -0.1061
32233SOL    HW297278   7.120   9.270   3.173  0.1957  0.1654 -0.2639
32234SOL     OW97279   2.806   2.778   2.530 -0.0682 -0.5062 -0.8690
32234SOL    HW197280   2.773   2.720   2.599 -2.0044 -0.5826 -1.7823
32234SOL    HW297281   2.738   2.776   2.463  1.1884  0.5297 -2.2517
32235SOL     OW97282   6.910   9.901   3.093  0.7232  0.4302  0.0717
32235SOL    HW197283   6.838   9.948   3.134  0.7377  2.1173 -1.6679
32235SOL    HW297284   6.987   9.925   3.144  0.2570 -0.5140  1.2757
32236SOL     OW97285   7.596   9.996   7.689  0.3371 -0.3454  0.2461
32236SOL    HW197286   7.524   9.946   7.728  0.3586 -0.6036 -0.0437
32236SOL    HW297287   7.624   9.943   7.614 -1.1167  1.1488 -1.4435
32237SOL     OW97288   3.762   0.208   7.387  0.1347 -0.0410  0.7895
32237SOL    HW197289   3.857   0.194   7.381  0.0946  0.0498 -0.3245
32237SOL    HW297290   3.737   0.238   7.299 -0.7994  0.7174  1.2940
32238SOL     OW97291   0.091   5.721   8.551 -0.2480  0.4560  0.1076
32238SOL    HW197292   0.170   5.690   8.596  0.5022  0.2565 -1.2834
32238SOL    HW297293   0.120   5.798   8.502 -0.3545 -0.7568 -2.0156
32239SOL     OW97294   9.047   9.024   9.436 -0.4804 -0.1002  0.0456
32239SOL    HW197295   8.965   8.974   9.430 -0.0343 -0.7096 -1.3749
32239SOL    HW297296   9.040   9.090   9.368  0.2060 -0.1629 -0.0902
32240SOL     OW97297   4.195   9.555   8.522 -0.5814  0.7918  0.0112
32240SOL    HW197298   4.192   9.624   8.589 -1.0568  0.4236  0.3782
32240SOL    HW297299   4.128   9.580   8.459 -1.3860  0.1871  0.6222
32241SOL     OW97300   8.205   1.820   4.462 -0.6629 -0.4311  0.4039
32241SOL    HW197301   8.133   1.813   4.525 -0.5258  0.4896  0.6767
32241SOL    HW297302   8.267   1.880   4.503 -0.0559 -0.6859 -0.1300
32242SOL     OW97303   1.132   4.120   8.140  0.1963  0.6491 -0.5367
32242SOL    HW197304   1.038   4.134   8.152  0.0325 -1.8871  1.9206
32242SOL    HW297305   1.173   4.174   8.207  0.2728 -0.5969  0.4483
32243SOL     OW97306   1.305   0.907   1.146 -0.1369  0.3889  0.4375
32243SOL    HW197307   1.372   0.839   1.142 -0.5526 -0.0166  0.2284
32243SOL    HW297308   1.351   0.988   1.124 -0.0639 -0.1438 -1.5624
32244SOL     OW97309   5.859   3.488   2.296  0.0996 -0.5162  0.4309
32244SOL    HW197310   5.883   3.530   2.213  0.1427 -0.3207  0.5403
32244SOL    HW297311   5.918   3.413   2.304  1.2309  0.3923  1.0719
32245SOL     OW97312   3.394   4.175   6.568 -0.2684 -0.0491  0.0882
32245SOL    HW197313   3.423   4.251   6.517  0.2363  0.0890  0.5670
32245SOL    HW297314   3.459   4.168   6.639 -0.4721 -0.7544  0.2093
32246SOL     OW97315   3.571   5.329   9.847  0.0832 -0.5999 -0.2565
32246SOL    HW197316   3.617   5.326   9.763  0.3084 -0.1356 -0.1495
32246SOL    HW297317   3.479   5.322   9.825  0.1087  0.0715 -0.5782
32247SOL     OW97318   3.352   3.293   0.649 -0.5983  0.0241  0.3197
32247SOL    HW197319   3.443   3.265   0.654  0.3725  2.9288  0.9985
32247SOL    HW297320   3.323   3.295   0.740 -2.2172 -3.0703  0.0133
32248SOL     OW97321   9.197   9.046   0.921  0.0333  0.0972 -0.6399
32248SOL    HW197322   9.136   8.986   0.876 -2.0329  0.5184  1.4028
32248SOL    HW297323   9.143   9.121   0.945  1.2910  0.4031  1.4829
32249SOL     OW97324   9.657   8.566   2.919  0.2771  0.4485  0.3539
32249SOL    HW197325   9.650   8.651   2.874 -1.3659  0.3106  0.2738
32249SOL    HW297326   9.663   8.502   2.848  1.3915  0.4803  0.4122
32250SOL     OW97327   3.535   8.718   9.334 -0.0535 -0.0317  0.4802
32250SOL    HW197328   3.490   8.736   9.416  1.3078  1.1557  1.0113
32250SOL    HW297329   3.489   8.772   9.269 -2.1752 -2.1957  0.0493
32251SOL     OW97330   5.949   9.406   6.548 -0.4946  0.2564 -0.3520
32251SOL    HW197331   6.040   9.416   6.521  0.1421  1.0606  1.8835
32251SOL    HW297332   5.923   9.493   6.580 -2.4979  0.3880 -2.0641
32252SOL     OW97333   8.560   2.452   5.984 -0.2092  0.4758  0.5040
32252SOL    HW197334   8.570   2.453   5.889 -0.8520 -0.3768  0.4202
32252SOL    HW297335   8.648   2.434   6.016 -0.1265  0.0232  0.0409
32253SOL     OW97336   7.646   8.255   3.628  0.2090 -0.2742  0.1963
32253SOL    HW197337   7.735   8.273   3.600 -0.3406  1.2037 -0.7370
32253SOL    HW297338   7.605   8.214   3.552  0.2029 -1.3769  0.7793
32254SOL     OW97339   7.437   0.768   5.931  0.5795 -0.2200 -0.0289
32254SOL    HW197340   7.380   0.731   5.999  1.4463  0.5191  1.1259
32254SOL    HW297341   7.503   0.700   5.917  0.5806 -0.2456  0.0948
32255SOL     OW97342   4.719   7.925   8.169 -0.1878  0.6297 -0.6545
32255SOL    HW197343   4.746   7.839   8.135  0.5971  0.1798  0.9796
32255SOL    HW297344   4.781   7.987   8.130 -0.7228  0.4709 -1.7994
32256SOL     OW97345   5.291   8.963   3.785 -0.1762 -0.0835 -0.0231
32256SOL    HW197346   5.247   8.879   3.793  0.2468 -0.4164 -1.0826
32256SOL    HW297347   5.351   8.953   3.711  2.2884  0.0782  1.7921
32257SOL     OW97348   8.759   2.013   8.373 -0.3467  0.1969 -0.2471
32257SOL    HW197349   8.830   2.039   8.431  0.6248 -1.5047 -0.5941
32257SOL    HW297350   8.680   2.030   8.423  0.2819  1.9534  0.2330
32258SOL     OW97351   7.897   3.564   9.647 -0.3198  0.2200  0.0135
32258SOL    HW197352   7.956   3.499   9.611  0.7377 -0.2126  2.3638
32258SOL    HW297353   7.895   3.634   9.581  1.2346 -0.6303 -0.9877
32259SOL     OW97354   2.231   6.524   6.903 -0.2822 -0.5444 -0.4662
32259SOL    HW197355   2.222   6.435   6.938 -4.0901 -0.8033 -1.6538
32259SOL    HW297356   2.203   6.581   6.975 -0.7206 -0.5210 -0.6559
32260SOL     OW97357   3.655   9.833   7.827 -0.0236  0.0334 -0.3240
32260SOL    HW197358   3.579   9.835   7.769  0.0538  1.1591 -0.4066
32260SOL    HW297359   3.703   9.914   7.807  1.7698 -1.1319 -1.0188
32261SOL     OW97360   0.808   3.649   0.512  0.4054 -0.3241 -0.3804
32261SOL    HW197361   0.765   3.593   0.576 -0.3615 -0.1961 -0.7758
32261SOL    HW297362   0.813   3.596   0.432 -0.5211  0.2236 -0.8234
32262SOL     OW97363   8.594   6.019   0.760 -0.0773 -0.2736  0.7698
32262SOL    HW197364   8.600   5.979   0.673  1.0201  1.8607 -0.2101
32262SOL    HW297365   8.641   5.958   0.817  2.8430  0.1696 -0.9315
32263SOL     OW97366   6.230   1.435   6.801 -0.6526  0.0190  0.0987
32263SOL    HW197367   6.259   1.376   6.731  1.2933 -0.1618  0.9935
32263SOL    HW297368   6.284   1.412   6.877 -1.1743  1.6625  1.0362
32264SOL     OW97369   5.219   6.370   1.769 -0.1337  0.5854  0.1831
32264SOL    HW197370   5.198   6.433   1.700  0.6029 -0.7228 -1.3008
32264SOL    HW297371   5.315   6.366   1.768 -0.1652 -0.3858  0.4003
32265SOL     OW97372   7.282   8.275   2.982  0.3894 -0.5958  0.0898
32265SOL    HW197373   7.197   8.274   3.026  1.1328 -2.8129  1.6386
32265SOL    HW297374   7.312   8.366   2.988 -0.7539 -0.2899  1.7656
32266SOL     OW97375   1.607   3.863   4.731  0.5920 -0.9037 -0.0346
32266SOL    HW197376   1.676   3.800   4.714  0.7492 -0.6715 -0.2732
32266SOL    HW297377   1.652   3.941   4.761  0.7796  0.3617 -3.1775
32267SOL     OW97378   3.915   9.116   5.011  0.5390 -0.2421 -0.2366
32267SOL    HW197379   4.010   9.102   5.014  0.9800  2.4483  1.3724
32267SOL    HW297380   3.900   9.152   4.923  0.9097 -0.9904 -0.6250
32268SOL     OW97381   3.738   8.233   2.189  0.5106  0.4978 -0.4308
32268SOL    HW197382   3.644   8.223   2.207  0.2712  0.4626 -1.5890
32268SOL    HW297383   3.777   8.253   2.274 -0.5834  0.7606  0.0299
32269SOL     OW97384   2.266   5.887   6.999 -0.5726 -0.3022  0.2728
32269SOL    HW197385   2.225   5.806   6.969 -0.3666 -0.5220  0.5722
32269SOL    HW297386   2.359   5.874   6.983 -0.5621 -0.0289  0.1073
32270SOL     OW97387   6.199   0.896   3.518 -0.2606  0.0491 -0.0418
32270SOL    HW197388   6.123   0.913   3.462  0.2467  1.4195 -0.3315
32270SOL    HW297389   6.165   0.904   3.607 -0.2665  1.6304 -0.1675
32271SOL     OW97390   6.136   2.230   4.268  0.1119 -0.1557  0.3450
32271SOL    HW197391   6.059   2.229   4.326  0.2315  1.5831  0.6038
32271SOL    HW297392   6.154   2.138   4.250  0.1986 -0.8012  3.2615
32272SOL     OW97393   1.834   5.919   7.033  0.1457 -0.0215 -0.1348
32272SOL    HW197394   1.854   5.828   7.009  2.9842  0.2888  0.7437
32272SOL    HW297395   1.816   5.961   6.949  0.7981 -0.9740 -0.7839
32273SOL     OW97396   4.363   4.049   3.544 -0.1923  0.4435 -0.5125
32273SOL    HW197397   4.339   3.994   3.617  2.2810  0.5421  0.4778
32273SOL    HW297398   4.352   4.139   3.576  0.2092  0.4865 -0.4810
32274SOL     OW97399   2.767   2.830   6.462 -0.4663  0.0811 -0.5176
32274SOL    HW197400   2.740   2.753   6.411 -0.7710  1.3633 -2.4066
32274SOL    HW297401   2.707   2.899   6.433  0.6070  1.3420  0.1875
32275SOL     OW97402   1.245   9.587   7.847  0.0089  0.2576 -0.1620
32275SOL    HW197403   1.286   9.561   7.765  1.0489 -0.5334  0.5820
32275SOL    HW297404   1.197   9.510   7.876  0.8228  0.0458  0.6721
32276SOL     OW97405   1.784   1.322   6.374 -0.0426 -0.0606  0.4132
32276SOL    HW197406   1.712   1.266   6.402 -0.1765 -0.5311 -0.8063
32276SOL    HW297407   1.744   1.406   6.355 -0.3373 -0.4016 -0.5331
32277SOL     OW97408   0.549   4.763   3.456 -0.4367  0.1424  0.3590
32277SOL    HW197409   0.644   4.773   3.468 -0.3723 -0.9941  1.0059
32277SOL    HW297410   0.539   4.673   3.425 -1.4105 -0.2989  1.8430
32278SOL     OW97411   5.762   7.035   1.412  0.4097  0.0734 -0.2235
32278SOL    HW197412   5.729   7.120   1.439 -0.2788 -0.1216 -0.4363
32278SOL    HW297413   5.687   6.976   1.420  1.1431 -0.7528  0.9898
32279SOL     OW97414   9.997   5.445   2.674 -0.2039 -0.2486  0.3221
32279SOL    HW197415   9.942   5.370   2.652  0.0833 -0.4776  0.3687
32279SOL    HW297416   9.991   5.503   2.598  0.0575 -0.6084  0.0191
32280SOL     OW97417   7.940   7.674   1.718  0.1042 -0.4494 -0.0578
32280SOL    HW197418   7.981   7.664   1.633  3.1531 -1.5867  1.4175
32280SOL    HW297419   7.880   7.748   1.707  2.6156  1.4337 -2.4001
32281SOL     OW97420   1.685   4.978   5.755 -0.0977  0.4402  0.3208
32281SOL    HW197421   1.705   5.010   5.667  0.6553  1.5129  0.8605
32281SOL    HW297422   1.675   4.883   5.744  0.4763  0.4929 -0.8235
32282SOL     OW97423   0.759   5.800   4.798 -0.0820  0.2399 -0.0784
32282SOL    HW197424   0.715   5.718   4.818  1.9966 -0.8004  0.5228
32282SOL    HW297425   0.783   5.793   4.705 -1.8204  1.1674 -0.6393
32283SOL     OW97426   0.185   8.281   8.384  0.1427 -0.2198 -0.6704
32283SOL    HW197427   0.215   8.215   8.446 -1.1635  0.6971  1.0525
32283SOL    HW297428   0.210   8.247   8.298  2.5351 -1.2890  0.3507
32284SOL     OW97429   4.421   1.247   1.112 -0.6515  0.6856 -0.3300
32284SOL    HW197430   4.432   1.335   1.077 -1.5472  0.7469 -0.4693
32284SOL    HW297431   4.495   1.236   1.172  0.0252  1.1545 -1.0516
32285SOL     OW97432   9.595   4.480   9.022 -0.1558  0.3970  0.0150
32285SOL    HW197433   9.608   4.575   9.019  0.1815  0.3395 -0.4147
32285SOL    HW297434   9.615   4.456   9.113  3.6167  0.2023 -0.7135
32286SOL     OW97435   5.255   8.028   8.729  0.0887 -0.3497  0.5149
32286SOL    HW197436   5.237   8.114   8.692 -0.7507 -0.4785  0.6036
32286SOL    HW297437   5.191   8.018   8.799  0.7700 -0.6764  1.1067
32287SOL     OW97438   0.536   7.145   5.584 -0.5458 -0.1622  0.1479
32287SOL    HW197439   0.549   7.132   5.490 -0.8265  0.1898  0.0552
32287SOL    HW297440   0.475   7.077   5.611 -0.8409  0.0323 -0.0249
32288SOL     OW97441   9.141   9.467   0.371  0.1065 -0.0258 -0.1404
32288SOL    HW197442   9.047   9.464   0.392  0.1090  0.5517 -0.0225
32288SOL    HW297443   9.170   9.376   0.377 -0.5956 -0.3126 -0.8948
32289SOL     OW97444   5.667   8.394   9.531 -0.0713 -0.2503  0.1239
32289SOL    HW197445   5.578   8.410   9.499  0.5551  1.7064 -0.7574
32289SOL    HW297446   5.686   8.469   9.588  1.4979  0.1102 -0.8086
32290SOL     OW97447   3.061   4.564   2.454 -0.5969 -0.6872  0.0825
32290SOL    HW197448   3.145   4.574   2.408 -0.5656  1.6306  0.5449
32290SOL    HW297449   3.067   4.477   2.494  0.9980 -1.1490 -1.0213
32291SOL     OW97450   9.033   3.692   2.291 -0.2857  0.0810 -0.2186
32291SOL    HW197451   9.008   3.656   2.206 -0.2423  0.0846 -0.2329
32291SOL    HW297452   8.950   3.705   2.337 -0.2772 -0.4402 -0.0496
32292SOL     OW97453   1.667   8.428   2.688 -0.1596  0.1131  0.2404
32292SOL    HW197454   1.706   8.472   2.613  0.3083  0.6716  0.7952
32292SOL    HW297455   1.725   8.450   2.761 -1.1544  0.4315  0.9618
32293SOL     OW97456   9.947   3.308   2.825  0.3593  0.1848 -0.5039
32293SOL    HW197457   9.965   3.215   2.810  0.7170 -0.0280  1.0622
32293SOL    HW297458  10.020   3.338   2.880 -0.1997  1.1697 -0.2726
32294SOL     OW97459   4.456   7.913   3.992  0.1656  0.1638  0.2558
32294SOL    HW197460   4.367   7.893   4.022  0.4787 -1.2260  0.3255
32294SOL    HW297461   4.507   7.835   4.013  0.8512 -0.0802 -2.0341
32295SOL     OW97462   9.084   9.101   8.533 -0.1218  0.0013  0.0057
32295SOL    HW197463   9.132   9.183   8.548 -0.3273  0.2269 -0.5123
32295SOL    HW297464   8.992   9.128   8.526 -0.0877 -0.1161 -1.2053
32296SOL     OW97465   3.568   0.946   0.847 -0.6544  0.1727 -0.0797
32296SOL    HW197466   3.610   1.005   0.908 -0.3759 -0.3148  0.2045
32296SOL    HW297467   3.617   0.956   0.765 -1.1932  1.0191 -0.3055
32297SOL     OW97468   0.467   2.464   9.377  0.0387 -0.3321 -0.0228
32297SOL    HW197469   0.554   2.447   9.413 -0.6785 -2.1274  0.9758
32297SOL    HW297470   0.455   2.397   9.309 -0.3763  0.2036 -0.4881
32298SOL     OW97471   2.874   0.305   4.505  0.2716  0.6658  0.1431
32298SOL    HW197472   2.940   0.366   4.539  0.2010  0.9035 -0.1388
32298SOL    HW297473   2.925   0.239   4.458  0.2376  1.7133 -1.4391
32299SOL     OW97474   2.685   9.759   8.483  0.0617 -0.1512  0.2597
32299SOL    HW197475   2.749   9.692   8.504 -0.1187 -0.6094 -0.5974
32299SOL    HW297476   2.730   9.842   8.499  1.0600 -0.4564 -0.8420
32300SOL     OW97477   3.281   4.137   9.192  0.1147 -0.3622  0.1903
32300SOL    HW197478   3.325   4.119   9.109 -0.3385 -0.5642 -0.0043
32300SOL    HW297479   3.215   4.203   9.171 -0.2212 -0.6526  0.3273
32301SOL     OW97480   9.030   6.146   5.196  0.2387  0.3190  0.0735
32301SOL    HW197481   9.002   6.123   5.107 -0.6357  1.9087 -0.0932
32301SOL    HW297482   9.071   6.232   5.186 -0.5463  0.8632  1.3167
32302SOL     OW97483   5.497   4.416   7.109 -0.3544  0.0114  0.0855
32302SOL    HW197484   5.406   4.434   7.086  0.0596  0.0578 -1.6059
32302SOL    HW297485   5.535   4.502   7.128 -0.5447  0.0375  0.3532
32303SOL     OW97486   1.069   6.680   2.628  0.2562  0.1696  0.3748
32303SOL    HW197487   1.053   6.643   2.542 -0.2413 -1.9421  1.3140
32303SOL    HW297488   1.020   6.762   2.628  0.2609  0.2092 -1.3236
32304SOL     OW97489   1.663   0.104   4.508  0.4072 -0.1159  0.0276
32304SOL    HW197490   1.727   0.114   4.578 -0.7298 -0.0732  1.0888
32304SOL    HW297491   1.697   0.158   4.436  0.3169  1.9738  1.4576
32305SOL     OW97492   1.336   7.017   1.756  0.5466  0.4211 -1.0099
32305SOL    HW197493   1.398   7.059   1.815 -0.6716 -0.4410  0.9980
32305SOL    HW297494   1.360   7.048   1.669  2.4189  1.7587 -0.0738
32306SOL     OW97495   7.144   3.862   5.640 -0.3491 -0.2831  1.0853
32306SOL    HW197496   7.207   3.930   5.667  0.5936 -0.7213  0.0318
32306SOL    HW297497   7.187   3.780   5.660  0.2252 -0.6289 -1.3141
32307SOL     OW97498   7.768   9.756   6.945 -0.1440 -0.1129  0.2881
32307SOL    HW197499   7.788   9.825   7.009 -1.7110  0.6441 -0.0048
32307SOL    HW297500   7.852   9.711   6.931  1.2626  2.5587 -0.5020
32308SOL     OW97501   7.695   2.017   3.794  0.7039  0.3071  0.0640
32308SOL    HW197502   7.760   2.085   3.814  2.0889 -0.7167 -0.8131
32308SOL    HW297503   7.681   2.025   3.700 -0.5179  0.5530  0.2528
32309SOL     OW97504   9.278   1.671   3.030  0.2779  0.5874 -1.2430
32309SOL    HW197505   9.246   1.581   3.024  1.7371  0.1208 -3.1542
32309SOL    HW297506   9.275   1.703   2.940  2.4027  1.4551 -1.0605
32310SOL     OW97507   6.548   9.949   5.858 -0.4001  0.1901 -0.2589
32310SOL    HW197508   6.608  10.011   5.898 -0.4627 -1.4371  2.5990
32310SOL    HW297509   6.592   9.920   5.778  1.6962  0.5456  0.7135
32311SOL     OW97510   1.015   6.325   0.743  0.1558 -0.1690  0.2955
32311SOL    HW197511   0.956   6.254   0.719  0.5048 -0.5795  0.6344
32311SOL    HW297512   1.079   6.329   0.672  0.0774 -0.1279  0.2273
32312SOL     OW97513   0.580   2.304   4.124  0.3303 -0.0116  0.6575
32312SOL    HW197514   0.533   2.340   4.199 -0.3663  1.0202 -0.2498
32312SOL    HW297515   0.570   2.369   4.055 -0.9414 -1.8835 -1.0440
32313SOL     OW97516   9.799   3.447   6.776 -0.5446 -0.0395  0.2319
32313SOL    HW197517   9.819   3.392   6.700 -1.1311  2.0922 -1.5412
32313SOL    HW297518   9.879   3.499   6.790 -1.5377  1.9507 -1.1036
32314SOL     OW97519   1.325   5.247   0.397 -0.2093  0.3621 -0.2970
32314SOL    HW197520   1.365   5.248   0.484 -0.0542 -1.1951 -0.3189
32314SOL    HW297521   1.371   5.316   0.348  2.3320 -1.1963 -0.2464
32315SOL     OW97522   9.742   0.147   2.566  0.0315  0.3472 -0.1160
32315SOL    HW197523   9.737   0.240   2.542 -3.3362  0.1488 -0.7375
32315SOL    HW297524   9.806   0.144   2.637  0.7542  3.0118 -0.5243
32316SOL     OW97525   3.881   8.557   7.080  0.3667 -0.6592 -0.1780
32316SOL    HW197526   3.853   8.488   7.139 -0.2341 -0.9888 -0.8244
32316SOL    HW297527   3.831   8.541   6.999  0.0226  0.6719 -0.2543
32317SOL     OW97528   5.360   2.845   9.435 -0.6296 -0.0926  0.2253
32317SOL    HW197529   5.285   2.874   9.487  0.2541  1.1399  0.8601
32317SOL    HW297530   5.395   2.925   9.397 -0.5539 -0.8485 -1.3519
32318SOL     OW97531   5.580   4.434   3.269 -0.1609 -1.0688  0.3763
32318SOL    HW197532   5.487   4.460   3.270  0.3544  0.9675  0.8215
32318SOL    HW297533   5.579   4.342   3.296 -1.8790 -0.3636  3.2027
32319SOL     OW97534   6.472   0.855   5.931 -0.4861 -0.3513  0.4635
32319SOL    HW197535   6.391   0.904   5.914  0.2480  0.3792 -1.0971
32319SOL    HW297536   6.519   0.907   5.995 -0.0227  0.6621 -0.6769
32320SOL     OW97537   9.020   2.913   7.552  0.3007  0.1657  0.0659
32320SOL    HW197538   8.975   2.977   7.606  1.0234 -0.6747  1.7343
32320SOL    HW297539   8.977   2.830   7.572  0.8492 -0.2212 -0.3313
32321SOL     OW97540   0.095   3.870   5.491 -0.2787 -0.1958  0.3163
32321SOL    HW197541   0.077   3.954   5.449 -1.7738 -0.8617 -0.4637
32321SOL    HW297542   0.186   3.877   5.522  0.3041  0.9502 -1.5102
32322SOL     OW97543   5.668   9.475   5.515 -0.5452 -0.1118 -0.2978
32322SOL    HW197544   5.715   9.404   5.472 -0.7621 -1.3585  1.4265
32322SOL    HW297545   5.726   9.551   5.506  0.8830 -1.1215  0.0218
32323SOL     OW97546   3.560   6.078   7.202  0.3040 -0.6732 -0.4529
32323SOL    HW197547   3.535   6.114   7.117  2.0090 -0.4622 -0.9165
32323SOL    HW297548   3.504   6.124   7.265 -0.7125 -0.5470 -1.4164
32324SOL     OW97549   0.155   6.171   6.557  0.2107 -0.6679  0.0097
32324SOL    HW197550   0.222   6.122   6.510  1.5339  1.4805 -0.4803
32324SOL    HW297551   0.075   6.120   6.545  1.4560 -2.5684 -0.6092
32325SOL     OW97552   6.205   1.206   0.364  0.0481 -0.3847  0.2264
32325SOL    HW197553   6.112   1.186   0.354 -0.2825  1.1447  0.0061
32325SOL    HW297554   6.244   1.181   0.280 -0.1236 -1.1956  0.3815
32326SOL     OW97555   1.614   7.448   4.856  0.9325  0.5946 -0.2366
32326SOL    HW197556   1.659   7.414   4.933  1.8473  0.0177 -1.0140
32326SOL    HW297557   1.549   7.509   4.892  0.9211 -0.1296  1.0181
32327SOL     OW97558   6.846   9.290   9.349 -0.1230  0.2155  0.2206
32327SOL    HW197559   6.868   9.272   9.258  0.6940 -0.5518  0.5542
32327SOL    HW297560   6.821   9.382   9.350 -0.0520  0.2509 -0.7627
32328SOL     OW97561   2.426   3.566   8.282 -0.2766  0.4143  0.5335
32328SOL    HW197562   2.366   3.613   8.224  1.0894  1.9116  0.2638
32328SOL    HW297563   2.437   3.480   8.241 -0.1656  1.0672 -0.8386
32329SOL     OW97564   7.160   0.583   4.185  0.1800  0.1956  0.1440
32329SOL    HW197565   7.193   0.609   4.099  0.2630 -0.8658 -0.1614
32329SOL    HW297566   7.205   0.641   4.246 -0.0317  1.1025 -0.5347
32330SOL     OW97567   0.087   5.613   4.265 -0.4357  0.0108  0.2325
32330SOL    HW197568   0.133   5.689   4.228  0.3297 -0.8954 -0.7654
32330SOL    HW297569   0.050   5.645   4.347 -1.4862  1.8904 -0.9058
32331SOL     OW97570   6.498   9.056   7.410 -0.1728  0.4090  0.4501
32331SOL    HW197571   6.588   9.032   7.431  0.2654  3.3515  2.4636
32331SOL    HW297572   6.449   9.034   7.490 -0.9664  0.2768 -0.0637
32332SOL     OW97573   7.596   4.911   4.138  0.1575 -0.1572  0.5030
32332SOL    HW197574   7.661   4.938   4.204  1.9269 -0.2130 -1.1334
32332SOL    HW297575   7.596   4.815   4.143 -0.2686 -0.1439  0.8961
32333SOL     OW97576   5.601   4.402   1.526 -0.0416 -0.4787  0.1901
32333SOL    HW197577   5.596   4.408   1.430  0.1688  0.4601  0.2355
32333SOL    HW297578   5.603   4.492   1.556 -0.2564 -0.7661  1.0994
32334SOL     OW97579   4.562   3.149   9.341 -0.6733 -0.3172  0.2180
32334SOL    HW197580   4.487   3.197   9.306 -0.1060 -1.1274 -2.3125
32334SOL    HW297581   4.523   3.082   9.397 -1.6674  0.7704  0.8710
32335SOL     OW97582   3.837   5.183   4.244  0.8377  0.1757  0.0780
32335SOL    HW197583   3.862   5.271   4.272  0.3009  0.5357 -0.5522
32335SOL    HW297584   3.844   5.130   4.323 -1.4546  1.3316  1.1500
32336SOL     OW97585   7.272   0.446   5.834  0.0070  0.1803  0.3100
32336SOL    HW197586   7.225   0.518   5.875 -1.3240 -1.6128  2.1370
32336SOL    HW297587   7.361   0.451   5.869 -0.6220 -0.2321  2.0625
32337SOL     OW97588   8.985   8.886   3.428 -0.5294  0.4674 -0.3087
32337SOL    HW197589   9.056   8.951   3.425  0.7569 -0.8342  0.4412
32337SOL    HW297590   8.985   8.855   3.519 -1.5844 -0.0673 -0.4832
32338SOL     OW97591   8.196   8.441   5.078 -0.5035  0.8952  0.4891
32338SOL    HW197592   8.157   8.511   5.129 -0.2991  2.7033 -1.7014
32338SOL    HW297593   8.146   8.438   4.997  0.6044 -0.3045 -0.2025
32339SOL     OW97594   2.344   3.528   9.807  0.2629 -0.1291 -0.0932
32339SOL    HW197595   2.308   3.593   9.747  0.2860  0.6482  0.7060
32339SOL    HW297596   2.397   3.579   9.869  2.6666 -1.2271 -1.1292
32340SOL     OW97597   6.315   3.935   3.029  0.1530  0.4923 -0.4019
32340SOL    HW197598   6.267   3.979   3.099 -1.3806  0.4390 -1.3599
32340SOL    HW297599   6.344   3.852   3.069 -1.7774 -0.1095 -0.1467
32341SOL     OW97600   3.782   0.570   2.774 -0.5752  0.6958 -0.2519
32341SOL    HW197601   3.828   0.530   2.699  0.6812  0.3074  0.6938
32341SOL    HW297602   3.786   0.664   2.756  1.3612  0.7473  0.1828
32342SOL     OW97603   0.746   0.931   9.528  0.0357  0.1385  0.1648
32342SOL    HW197604   0.679   0.911   9.462 -0.1543 -1.1328  0.7088
32342SOL    HW297605   0.803   0.854   9.527 -0.9022 -0.6685  2.6201
32343SOL     OW97606   2.845   2.304   1.542 -0.4650 -0.3147  0.5779
32343SOL    HW197607   2.901   2.377   1.568  0.2153 -0.9432  0.9101
32343SOL    HW297608   2.758   2.328   1.574 -0.2261  0.2798  0.8079
32344SOL     OW97609   4.623   9.661   9.884  0.8073 -0.3697  0.7046
32344SOL    HW197610   4.553   9.614   9.931 -0.1088  0.5207  0.2710
32344SOL    HW297611   4.595   9.753   9.886  1.0711 -0.2290 -1.0268
32345SOL     OW97612   4.017   3.738   2.619  0.8080 -0.4247  0.3149
32345SOL    HW197613   4.096   3.695   2.586  0.4628 -1.0857  0.3211
32345SOL    HW297614   3.946   3.679   2.594  0.3388  0.0397  0.5286
32346SOL     OW97615   7.527   6.235   7.825 -0.1803  0.3380  0.2449
32346SOL    HW197616   7.540   6.150   7.866 -0.4023 -0.1793 -0.7382
32346SOL    HW297617   7.469   6.282   7.885 -0.6828 -0.4899  0.4170
32347SOL     OW97618   8.039   8.089   0.103  0.3384  0.8897  0.4465
32347SOL    HW197619   7.995   8.096   0.018  0.0106 -0.8190  0.4208
32347SOL    HW297620   7.973   8.116   0.167  0.2235  1.1326  0.2277
32348SOL     OW97621   1.773   3.959   8.766 -0.3111  0.1158  0.2108
32348SOL    HW197622   1.840   4.026   8.752  1.3572 -1.4019  0.5342
32348SOL    HW297623   1.749   3.930   8.678  0.2414 -0.0749  0.1224
32349SOL     OW97624   7.397   6.554   0.086 -0.0738 -0.4866 -0.4925
32349SOL    HW197625   7.387   6.641   0.048 -2.7409  0.1978  1.4681
32349SOL    HW297626   7.452   6.569   0.164  0.0605 -0.6773 -0.5519
32350SOL     OW97627   2.503   3.357   7.653  0.9865 -0.4302 -0.3935
32350SOL    HW197628   2.575   3.399   7.701 -0.9522  1.9450  0.6604
32350SOL    HW297629   2.453   3.312   7.721  1.1287 -1.6258 -1.0508
32351SOL     OW97630   6.111   5.301   1.327 -0.1349 -0.1166  0.1707
32351SOL    HW197631   6.121   5.344   1.412  1.0127 -2.2710  1.2105
32351SOL    HW297632   6.200   5.297   1.292 -0.0917 -2.2156  0.4442
32352SOL     OW97633   3.964   3.999   0.082 -0.4177 -0.2882  0.4971
32352SOL    HW197634   3.900   4.044   0.137 -0.5674 -0.0477  0.1288
32352SOL    HW297635   4.047   4.009   0.128 -0.3293  0.9238  0.0928
32353SOL     OW97636   5.522   1.571   8.048  0.3428  0.3113  0.7978
32353SOL    HW197637   5.531   1.546   8.140  1.5233  1.0086  0.8996
32353SOL    HW297638   5.459   1.509   8.012  2.1573 -1.9894  1.3392
32354SOL     OW97639   5.497   2.026   1.077  0.2114 -0.2929 -0.0133
32354SOL    HW197640   5.566   1.960   1.071  0.5084  0.1484 -2.1447
32354SOL    HW297641   5.479   2.050   0.987 -1.3279  1.0800  0.6155
32355SOL     OW97642   4.666   7.087   7.871  0.3859  0.0134  0.5705
32355SOL    HW197643   4.679   7.100   7.777  1.2465  1.0838  0.8249
32355SOL    HW297644   4.714   7.007   7.891 -1.3132 -1.2629 -0.2097
32356SOL     OW97645   4.656   1.950   9.370  0.3894  0.0067  0.0930
32356SOL    HW197646   4.731   1.996   9.407 -0.4737  0.3260  1.5164
32356SOL    HW297647   4.611   2.015   9.316  0.3801  0.2088  0.3441
32357SOL     OW97648   2.441   2.356   9.247 -0.5051  0.0891  0.0708
32357SOL    HW197649   2.435   2.280   9.191 -3.8849  1.0108 -1.0014
32357SOL    HW297650   2.401   2.329   9.330 -0.1733  0.2216  0.2786
32358SOL     OW97651   1.585   8.930   2.401 -0.0032  0.1772 -0.0352
32358SOL    HW197652   1.512   8.869   2.393  0.0858 -0.0534  0.8097
32358SOL    HW297653   1.662   8.878   2.378 -0.0570  0.3180 -0.5515
32359SOL     OW97654   0.125   3.696   3.581  0.1877  0.0063  0.3976
32359SOL    HW197655   0.171   3.774   3.614  0.4701  0.6769 -1.4819
32359SOL    HW297656   0.034   3.724   3.575  0.2216  0.0586  0.1212
32360SOL     OW97657   6.566   4.324   0.350 -0.5444 -0.0601 -0.5091
32360SOL    HW197658   6.501   4.347   0.284 -1.5255 -0.3332  0.3417
32360SOL    HW297659   6.606   4.407   0.375 -0.0762  0.0349 -1.5107
32361SOL     OW97660   3.193   4.884   4.377 -0.4850  0.2157  0.2320
32361SOL    HW197661   3.272   4.872   4.430 -0.9549 -1.2890  0.6683
32361SOL    HW297662   3.139   4.946   4.426  0.8425  2.1269 -0.6082
32362SOL     OW97663   3.597   0.472   7.418 -0.1286  0.0912  0.2852
32362SOL    HW197664   3.659   0.486   7.346 -0.8356 -2.2013 -0.8756
32362SOL    HW297665   3.542   0.550   7.416  0.4234  0.4911 -1.1032
32363SOL     OW97666   8.654   0.438   4.112  0.9575 -0.3697 -0.0525
32363SOL    HW197667   8.623   0.454   4.023 -0.1099 -1.0015  0.1846
32363SOL    HW297668   8.616   0.353   4.135 -3.1464  1.8715  2.8156
32364SOL     OW97669   8.064   7.869   0.935  0.2534 -0.0598  0.8627
32364SOL    HW197670   8.089   7.904   1.020  0.2228 -0.5382  1.0745
32364SOL    HW297671   7.968   7.872   0.935  0.2823  2.0567 -0.0701
32365SOL     OW97672   4.930   7.323   7.700 -0.6772 -0.0127 -0.3896
32365SOL    HW197673   4.971   7.257   7.755  2.9345  0.3240 -2.3011
32365SOL    HW297674   4.980   7.403   7.718 -0.6628  0.5525 -2.6182
32366SOL     OW97675   1.823   2.729   6.679  0.8947  0.2771  0.1315
32366SOL    HW197676   1.772   2.697   6.604  1.7348  1.1519 -0.8493
32366SOL    HW297677   1.913   2.706   6.658  1.5006  2.8727 -0.4567
32367SOL     OW97678   0.352   0.959   3.283  0.4470  0.6702  0.1481
32367SOL    HW197679   0.257   0.967   3.280  0.4475  0.5319 -0.2108
32367SOL    HW297680   0.379   1.024   3.348  0.0145 -0.0928  1.1123
32368SOL     OW97681   3.017   6.644   9.795 -0.3852 -0.6028 -0.0719
32368SOL    HW197682   3.075   6.568   9.798  2.2952  1.2809 -0.0056
32368SOL    HW297683   2.960   6.634   9.871 -1.3668 -3.3820 -1.0723
32369SOL     OW97684   7.423   9.026   8.540 -0.1483  0.8879 -0.0005
32369SOL    HW197685   7.445   9.093   8.475 -0.3489  2.1374  1.1779
32369SOL    HW297686   7.448   9.064   8.624 -2.3226  0.3954  0.9359
32370SOL     OW97687   3.540   0.859   7.183 -0.7624 -0.2460 -0.1735
32370SOL    HW197688   3.533   0.928   7.116 -1.3661  0.9445  1.0560
32370SOL    HW297689   3.599   0.896   7.249 -1.4406 -0.7192  0.7187
32371SOL     OW97690   2.885   4.997   3.673 -0.3649 -0.3283 -0.3833
32371SOL    HW197691   2.912   4.958   3.590 -0.3075 -0.5744 -0.2490
32371SOL    HW297692   2.938   5.076   3.681  0.2987 -0.7851 -0.1419
32372SOL     OW97693   5.838   8.645   8.781 -0.2254  0.0777  0.0656
32372SOL    HW197694   5.911   8.706   8.790 -0.1585 -0.1575  1.2642
32372SOL    HW297695   5.771   8.694   8.734  0.0784  0.8510  0.4243
32373SOL     OW97696   5.505   0.312   1.270 -0.2159  0.4296  0.4177
32373SOL    HW197697   5.462   0.261   1.201 -1.4419 -0.3233  1.6862
32373SOL    HW297698   5.579   0.353   1.226  0.1109 -1.4707 -0.9617
32374SOL     OW97699   8.025   3.959   6.928 -0.2294  0.6704  0.2672
32374SOL    HW197700   7.979   3.934   7.008  0.4009 -0.6721  0.2423
32374SOL    HW297701   8.025   3.880   6.874  2.2866  0.5220  0.3787
32375SOL     OW97702   7.832   7.133   8.283  0.6675 -0.0972  0.0739
32375SOL    HW197703   7.828   7.190   8.360  2.2485 -1.2701  1.0751
32375SOL    HW297704   7.745   7.094   8.277  1.2544 -2.1557  3.0257
32376SOL     OW97705   9.645   3.766   7.053 -1.0967  0.1035 -0.0936
32376SOL    HW197706   9.614   3.691   7.003 -2.1282  1.6910 -1.9887
32376SOL    HW297707   9.584   3.836   7.032  0.1542  1.6562  1.1402
32377SOL     OW97708   2.918   0.968   7.666 -0.3405  0.2282 -0.2443
32377SOL    HW197709   2.954   0.935   7.748 -1.9046 -1.9626 -0.3412
32377SOL    HW297710   2.994   0.994   7.615  0.9481 -1.7679  0.5296
32378SOL     OW97711   1.623   4.373   0.597 -0.4065 -0.0342 -0.2994
32378SOL    HW197712   1.585   4.299   0.550 -0.2143 -1.4322  1.6130
32378SOL    HW297713   1.651   4.433   0.528  0.2849 -2.1598 -2.0142
32379SOL     OW97714   9.516   9.609   5.814 -1.1534 -0.4225  0.1333
32379SOL    HW197715   9.565   9.533   5.782 -0.7670 -0.0565 -0.1520
32379SOL    HW297716   9.505   9.665   5.737  0.4848  0.8581  0.7711
32380SOL     OW97717   2.735   6.351   3.854  0.0426 -0.5651 -0.4224
32380SOL    HW197718   2.653   6.345   3.903 -0.4345  0.7297 -1.0089
32380SOL    HW297719   2.770   6.437   3.878  0.9148 -0.8489 -0.6588
32381SOL     OW97720   9.316   3.622   2.702  0.0272 -0.7241  0.0205
32381SOL    HW197721   9.244   3.683   2.686 -0.1719 -1.3108 -1.4845
32381SOL    HW297722   9.360   3.656   2.780 -0.9999  0.4558  0.1142
32382SOL     OW97723   4.086   3.183   4.890 -0.0199 -0.0735 -0.1951
32382SOL    HW197724   4.000   3.214   4.920 -0.2024 -0.7663  0.0199
32382SOL    HW297725   4.091   3.093   4.922  0.8249 -0.0118 -0.1300
32383SOL     OW97726   3.209   7.492   0.038  0.4819  0.0701 -0.3377
32383SOL    HW197727   3.250   7.434   0.102  2.2033  0.3707 -1.1189
32383SOL    HW297728   3.125   7.450   0.017  0.3633 -0.5798  1.2879
32384SOL     OW97729   8.891   7.763   3.576 -0.2187 -0.4774  0.2208
32384SOL    HW197730   8.869   7.725   3.490 -4.7354 -1.1447  1.3933
32384SOL    HW297731   8.847   7.706   3.639  1.3865  1.0516  2.8789
32385SOL     OW97732   6.618   5.851   8.100  0.1546  0.5804 -0.5338
32385SOL    HW197733   6.543   5.848   8.159  0.4597  2.1636 -0.0240
32385SOL    HW297734   6.666   5.930   8.126  0.2618  1.3909 -2.9332
32386SOL     OW97735   3.707   4.664   9.880  0.3774 -0.1045 -0.2053
32386SOL    HW197736   3.703   4.664   9.784 -1.9627 -1.1558 -0.1869
32386SOL    HW297737   3.699   4.572   9.904  0.2903  0.2023  1.0082
32387SOL     OW97738   4.467   7.989   2.231  0.5856 -0.1136 -0.0940
32387SOL    HW197739   4.408   7.928   2.275  0.2133  0.4132  0.1460
32387SOL    HW297740   4.475   8.063   2.292 -0.1475  0.7494 -1.0054
32388SOL     OW97741   6.954   5.546   5.044 -0.5578  0.2345 -0.3904
32388SOL    HW197742   7.006   5.621   5.072 -2.2352  1.1760  0.4033
32388SOL    HW297743   6.954   5.486   5.119 -0.0452 -0.1008 -0.6539
32389SOL     OW97744   8.150   1.425   6.154 -0.6157  0.0705  0.2586
32389SOL    HW197745   8.179   1.418   6.245 -0.5285 -1.5652  0.1217
32389SOL    HW297746   8.060   1.392   6.154 -0.4788 -0.3202 -0.3078
32390SOL     OW97747   5.048   8.889   9.508 -0.2037 -0.4028 -0.8635
32390SOL    HW197748   5.140   8.906   9.488 -0.2495 -1.0339 -1.6980
32390SOL    HW297749   5.050   8.813   9.566 -0.1287  0.6729  0.5828
32391SOL     OW97750   1.707   4.180   4.326  0.1369 -0.1663  0.1849
32391SOL    HW197751   1.681   4.174   4.234 -0.7807  1.5243  0.2896
32391SOL    HW297752   1.783   4.238   4.326 -0.3202  0.4530  0.5348
32392SOL     OW97753   6.899   0.711   6.455 -0.5701 -0.6265  0.2894
32392SOL    HW197754   6.951   0.631   6.461  1.2659  0.4461 -0.2454
32392SOL    HW297755   6.824   0.696   6.512  0.5747 -2.0884  1.5016
32393SOL     OW97756   1.257   3.261   8.245 -0.3162  0.0387 -0.5618
32393SOL    HW197757   1.319   3.332   8.263 -0.2747 -0.2996  0.7016
32393SOL    HW297758   1.310   3.195   8.199  0.2596 -0.2112  0.4286
32394SOL     OW97759   6.167   1.851   8.455 -0.3551 -0.9798  0.7592
32394SOL    HW197760   6.179   1.810   8.370 -2.4912 -1.2422  0.5124
32394SOL    HW297761   6.147   1.943   8.435  1.5944 -0.4240  1.1561
32395SOL     OW97762   9.939   0.281   9.018 -1.1095  0.4573 -0.0346
32395SOL    HW197763   9.993   0.205   8.999 -1.1229  0.6494 -0.8836
32395SOL    HW297764   9.855   0.262   8.975 -1.3933  0.5863  0.4550
32396SOL     OW97765   8.709   7.521   8.077  0.4838 -0.0272  0.3902
32396SOL    HW197766   8.614   7.524   8.080  0.5012  0.3092  0.8594
32396SOL    HW297767   8.732   7.553   7.990  0.1398 -1.1072 -0.1072
32397SOL     OW97768   6.954   2.218   8.728 -0.0011  0.2444 -0.0631
32397SOL    HW197769   6.924   2.184   8.812  0.4332 -0.0339 -0.0175
32397SOL    HW297770   6.907   2.166   8.663  1.7504 -1.5370 -0.0234
32398SOL     OW97771   8.985   5.492   4.709 -0.3675 -0.2704  0.2030
32398SOL    HW197772   8.889   5.486   4.712 -0.3116 -2.5779 -0.6159
32398SOL    HW297773   9.014   5.455   4.792 -0.1638 -0.6044 -0.0165
32399SOL     OW97774   6.609   6.773   3.903 -0.0918 -0.2623 -0.3592
32399SOL    HW197775   6.622   6.730   3.818  1.2243 -2.9470  1.0811
32399SOL    HW297776   6.577   6.703   3.960  0.0312  1.2305  1.6416
32400SOL     OW97777   6.701   1.767   9.420  0.1052 -0.3469 -0.3116
32400SOL    HW197778   6.774   1.706   9.428  0.4750  0.3379  2.6967
32400SOL    HW297779   6.740   1.854   9.433 -1.1573  0.0733  0.8517
32401SOL     OW97780   0.247   7.161   4.910 -0.1037 -0.0868 -0.1873
32401SOL    HW197781   0.340   7.146   4.922 -0.3038 -0.2400  1.3414
32401SOL    HW297782   0.205   7.081   4.941 -0.7482 -0.2313 -1.3451
32402SOL     OW97783   3.508   7.870   8.078 -0.0934  0.1801 -0.4495
32402SOL    HW197784   3.565   7.845   8.151  0.7917  0.1719 -1.1310
32402SOL    HW297785   3.422   7.883   8.118  0.8157  2.3724  1.0130
32403SOL     OW97786   5.529   7.934   4.784 -0.9008 -0.6461  1.3093
32403SOL    HW197787   5.581   7.889   4.718 -0.4952 -1.4247  2.1269
32403SOL    HW297788   5.504   8.017   4.744 -1.7754 -1.6405 -0.3051
32404SOL     OW97789   4.577   8.835   1.113 -0.3087 -0.7386 -0.0963
32404SOL    HW197790   4.526   8.781   1.174  0.0949  0.2428  1.1467
32404SOL    HW297791   4.641   8.879   1.168  1.7655 -1.7217 -1.5702
32405SOL     OW97792   7.436   3.792   6.529 -0.2674 -0.1482  0.7986
32405SOL    HW197793   7.469   3.870   6.485 -0.0787 -0.8272 -0.2897
32405SOL    HW297794   7.408   3.734   6.458 -0.7205 -0.9365  1.5974
32406SOL     OW97795   3.060   4.531   6.804 -0.6694 -0.4500 -0.1923
32406SOL    HW197796   3.090   4.591   6.735  0.1954 -1.8802 -1.1079
32406SOL    HW297797   3.140   4.506   6.849 -1.2699  0.8390  1.7111
32407SOL     OW97798   0.131   9.309   0.298  0.1269  0.0646 -0.2268
32407SOL    HW197799   0.184   9.298   0.377  0.1853 -0.5193 -0.3369
32407SOL    HW297800   0.057   9.363   0.326  0.9817  1.2301 -0.1711
32408SOL     OW97801   1.379   4.139   2.928  0.2163  0.6022  0.3156
32408SOL    HW197802   1.388   4.127   2.834  1.2837  0.6990  0.3885
32408SOL    HW297803   1.384   4.233   2.941 -1.4098  0.7046  0.3499
32409SOL     OW97804   6.450   7.275   9.483 -0.4903 -0.5808 -0.7470
32409SOL    HW197805   6.389   7.263   9.410 -0.7758 -0.2083 -0.5782
32409SOL    HW297806   6.413   7.349   9.532  1.1556  0.9929 -1.7588
32410SOL     OW97807   4.442   0.033   5.234 -1.0496  0.2181 -0.0489
32410SOL    HW197808   4.452   0.089   5.156 -1.0219 -0.7359 -0.7517
32410SOL    HW297809   4.399  -0.046   5.201  0.9241 -1.1360  0.4562
32411SOL     OW97810   2.414   8.579   9.031  0.8362  0.1019  0.2873
32411SOL    HW197811   2.388   8.653   8.977  0.6180 -0.7869 -0.8749
32411SOL    HW297812   2.462   8.522   8.972  0.2001 -1.1220  0.9106
32412SOL     OW97813   2.072   1.882   4.753 -0.5403  0.3262 -0.2563
32412SOL    HW197814   2.137   1.857   4.819 -0.5304  0.8152 -0.0755
32412SOL    HW297815   2.119   1.874   4.670 -0.0069  1.3724 -0.0808
32413SOL     OW97816   0.410   9.928   7.231 -0.3565  0.5753  0.2423
32413SOL    HW197817   0.448   9.955   7.147 -1.4156  1.7477  0.1139
32413SOL    HW297818   0.434   9.998   7.291  2.3724 -1.3240  1.5664
32414SOL     OW97819   9.572   9.226   9.529  0.2622  0.3210 -0.1867
32414SOL    HW197820   9.513   9.254   9.459  0.1041  0.1007 -0.1425
32414SOL    HW297821   9.594   9.135   9.508  0.5616  0.3920 -0.1850
32415SOL     OW97822   7.430   6.698   1.206 -0.1609  0.6987  0.1596
32415SOL    HW197823   7.425   6.665   1.295 -1.9917 -0.3958 -0.3144
32415SOL    HW297824   7.512   6.661   1.172  2.3798  3.7332  2.2742
32416SOL     OW97825   1.664   4.839   1.613  0.1766  0.6469 -0.4211
32416SOL    HW197826   1.698   4.876   1.694 -0.5083 -0.6222  0.4852
32416SOL    HW297827   1.742   4.810   1.566  0.5221 -0.2284  0.6300
32417SOL     OW97828   3.448   8.962   6.594 -0.4127 -0.0942  0.4639
32417SOL    HW197829   3.432   8.879   6.639  0.4119 -0.3358  0.3156
32417SOL    HW297830   3.472   8.937   6.505 -0.9705  0.3433  0.1796
32418SOL     OW97831   4.604   9.701   6.740  0.4199 -0.1702 -0.1971
32418SOL    HW197832   4.565   9.681   6.825 -0.8639  0.0608 -0.7112
32418SOL    HW297833   4.632   9.616   6.706  0.3506 -0.3433  0.1769
32419SOL     OW97834   3.146   2.447   1.282 -0.4847 -0.6160 -0.2932
32419SOL    HW197835   3.130   2.491   1.198 -1.6265 -1.8649 -0.7705
32419SOL    HW297836   3.063   2.457   1.329  0.2880  0.4642  0.9158
32420SOL     OW97837   7.729   2.832   5.457  0.5082  0.3567  0.1950
32420SOL    HW197838   7.662   2.786   5.406  1.2110  0.5365 -0.9134
32420SOL    HW297839   7.797   2.766   5.471  0.7620  0.5838  0.0411
32421SOL     OW97840   8.305   0.821   5.837 -0.2274  0.1515  0.0096
32421SOL    HW197841   8.217   0.792   5.814  0.1276  0.0455 -1.2683
32421SOL    HW297842   8.361   0.746   5.818  0.2015  0.3673  0.4007
32422SOL     OW97843   6.759   9.552   1.012 -0.1043  0.2883  0.3353
32422SOL    HW197844   6.713   9.612   0.954 -1.0221 -0.6161  0.1059
32422SOL    HW297845   6.825   9.510   0.957 -0.2506  0.2249  0.2093
32423SOL     OW97846   1.496   9.826   3.052 -0.5584  0.1092  0.5203
32423SOL    HW197847   1.408   9.837   3.017  0.0239  0.6656 -0.8205
32423SOL    HW297848   1.512   9.732   3.049 -0.1963  0.1904 -1.6115
32424SOL     OW97849   3.318   5.088   6.930  0.3521  0.0452 -0.3605
32424SOL    HW197850   3.378   5.115   6.861  0.7387  0.3906  0.1042
32424SOL    HW297851   3.373   5.045   6.995 -0.0565 -0.5922 -0.4186
32425SOL     OW97852   4.714   7.788   2.539  0.1179 -0.4595 -0.0226
32425SOL    HW197853   4.675   7.752   2.459 -0.1038 -1.4947  0.5250
32425SOL    HW297854   4.773   7.719   2.570  0.8462  0.2718  0.2512
32426SOL     OW97855   4.056   3.485   6.545 -0.2138  0.4176 -0.1598
32426SOL    HW197856   4.112   3.542   6.598  0.3263 -0.0133 -0.2565
32426SOL    HW297857   3.968   3.519   6.557  0.2282  1.9665 -1.0996
32427SOL     OW97858   5.046   0.566   2.501 -0.8644  0.2683 -0.3569
32427SOL    HW197859   5.019   0.512   2.426 -0.9812 -1.8158  1.0960
32427SOL    HW297860   5.069   0.502   2.569  2.0090  1.9973  0.4737
32428SOL     OW97861   4.752   4.083   1.939  0.0640 -0.2674 -0.2324
32428SOL    HW197862   4.749   4.143   1.864  2.1722 -0.2059 -0.3237
32428SOL    HW297863   4.714   4.002   1.905 -4.0174  1.2323  0.2527
32429SOL     OW97864   1.222   3.286   3.398 -0.2440  0.0794 -0.3617
32429SOL    HW197865   1.303   3.275   3.447  0.6338  0.6525 -1.6134
32429SOL    HW297866   1.153   3.253   3.456  0.7050  0.8966  1.3093
32430SOL     OW97867   9.782   4.142   5.879 -0.1193 -0.1345 -0.1230
32430SOL    HW197868   9.781   4.050   5.851 -0.5723 -0.0529 -0.3823
32430SOL    HW297869   9.827   4.141   5.963  0.0357 -0.5719 -0.2087
32431SOL     OW97870   5.085   0.889   6.611  0.5010  0.2677 -0.1961
32431SOL    HW197871   5.133   0.819   6.565  0.5131  0.7076 -0.8719
32431SOL    HW297872   4.993   0.865   6.600  0.5450 -1.2457  2.1664
32432SOL     OW97873   1.845   4.749   7.297  0.4863  0.2650  0.7101
32432SOL    HW197874   1.889   4.686   7.354 -0.4534  0.4266  1.6439
32432SOL    HW297875   1.765   4.772   7.344 -1.3125 -1.0516 -1.5022
32433SOL     OW97876   9.866   4.488   7.310 -0.7775  0.1143 -0.6635
32433SOL    HW197877   9.787   4.444   7.342 -2.3709  2.6691 -0.8564
32433SOL    HW297878   9.848   4.506   7.218 -0.1394  1.0379 -0.6197
32434SOL     OW97879   6.387   8.180   2.039  0.4107 -0.5475 -0.2385
32434SOL    HW197880   6.448   8.110   2.017  1.0326 -0.2704  0.5435
32434SOL    HW297881   6.438   8.260   2.031  0.6017 -0.3982  1.7756
32435SOL     OW97882   4.363   0.784   2.154 -0.1862 -0.1691  0.8088
32435SOL    HW197883   4.294   0.759   2.215 -2.0847  0.5243 -0.9262
32435SOL    HW297884   4.366   0.879   2.158 -0.0444 -0.1377  0.1735
32436SOL     OW97885   9.173   3.141   7.749  0.1045  0.4794 -0.1716
32436SOL    HW197886   9.242   3.089   7.790  0.0350  0.6257  0.1360
32436SOL    HW297887   9.094   3.089   7.760  0.0974  0.4899 -0.1728
32437SOL     OW97888   8.467   8.935   0.560 -0.3432 -0.1857 -0.3491
32437SOL    HW197889   8.510   9.017   0.535 -2.1583  0.5599 -1.1141
32437SOL    HW297890   8.489   8.874   0.490  2.8459 -1.1494  1.2431
32438SOL     OW97891   6.855   9.994   5.762  0.0788 -0.0576 -0.5822
32438SOL    HW197892   6.875   9.939   5.686  0.7194  1.0922 -1.2660
32438SOL    HW297893   6.925   9.975   5.825  2.0192  2.0640 -1.9617
32439SOL     OW97894   2.341   7.154   1.516 -0.4157  0.0881  0.0962
32439SOL    HW197895   2.377   7.075   1.476  2.3770  1.9067 -1.3002
32439SOL    HW297896   2.360   7.143   1.610  1.8956 -0.0493 -0.3242
32440SOL     OW97897   1.161   2.880   7.302 -0.3473 -0.2315  0.3192
32440SOL    HW197898   1.224   2.945   7.336 -0.7588  0.6450 -0.5424
32440SOL    HW297899   1.199   2.851   7.219 -1.2094  0.5605 -0.3827
32441SOL     OW97900   8.230   0.028   3.824  0.5100  0.2986  0.1347
32441SOL    HW197901   8.224   0.071   3.910 -1.6910 -0.2656  0.3250
32441SOL    HW297902   8.234   0.100   3.761  3.2207  0.7397  0.6628
32442SOL     OW97903   9.008   2.194   9.091  0.2842 -1.0638  0.2819
32442SOL    HW197904   9.073   2.124   9.085  0.9274 -0.4306 -0.4152
32442SOL    HW297905   8.991   2.203   9.185  1.4815 -0.9995  0.5072
32443SOL     OW97906   6.055   4.568   4.214  0.3339  0.3493  0.2334
32443SOL    HW197907   5.975   4.613   4.185 -0.0056 -0.2986  0.1436
32443SOL    HW297908   6.024   4.483   4.246  1.1063 -0.4641 -1.0526
32444SOL     OW97909   5.286   3.875   4.198 -0.1496 -0.0984  0.5977
32444SOL    HW197910   5.266   3.842   4.285  1.5266  0.3261  1.1794
32444SOL    HW297911   5.293   3.797   4.143 -0.9558 -0.3793  0.8782
32445SOL     OW97912   5.030   8.082   0.619 -0.7557 -0.1957 -0.4325
32445SOL    HW197913   4.953   8.029   0.599 -0.1139 -1.0382 -0.7404
32445SOL    HW297914   5.077   8.088   0.536  0.3300 -1.0577  0.0984
32446SOL     OW97915   3.020   5.524   6.948  0.1064  0.2167  0.2816
32446SOL    HW197916   3.024   5.620   6.943  0.0633  0.2526  0.9064
32446SOL    HW297917   3.071   5.494   6.872 -1.2964  0.7359 -0.9183
32447SOL     OW97918   7.497   4.316   4.407  0.3040  0.2670  0.0702
32447SOL    HW197919   7.417   4.346   4.365 -1.0494 -0.9957  1.5964
32447SOL    HW297920   7.497   4.359   4.492  0.8958 -0.2649  0.3494
32448SOL     OW97921   7.043   4.421   1.165 -0.1810  0.2359  0.1539
32448SOL    HW197922   7.034   4.452   1.255 -1.3769 -0.3478  0.2540
32448SOL    HW297923   7.138   4.414   1.152  0.0278  1.0164  1.1148
32449SOL     OW97924   7.924   1.545   9.198 -0.3310 -0.1968  0.1167
32449SOL    HW197925   7.906   1.638   9.215  1.3145  0.2378 -0.2886
32449SOL    HW297926   7.934   1.506   9.284 -0.2973  0.1675  0.2789
32450SOL     OW97927   8.101   7.356   4.589  0.0611  0.1085  0.8476
32450SOL    HW197928   8.107   7.325   4.679  0.1631  0.3482  0.9235
32450SOL    HW297929   8.169   7.424   4.582  1.3565 -1.2024  0.0585
32451SOL     OW97930   1.044   7.470   8.355  0.2243  0.0750 -0.2407
32451SOL    HW197931   0.972   7.513   8.308 -1.6623 -0.4448  1.9498
32451SOL    HW297932   1.044   7.381   8.322 -0.3347  0.0094 -0.0784
32452SOL     OW97933   0.058   6.753   6.157 -0.0157  0.0085  0.5741
32452SOL    HW197934   0.150   6.779   6.163 -0.3179  1.6822 -1.1203
32452SOL    HW297935   0.058   6.681   6.095  0.0734  0.5723 -0.0918
32453SOL     OW97936   8.873   8.964   1.656  0.2552 -0.1420 -0.1088
32453SOL    HW197937   8.949   9.020   1.644 -0.6277  1.2424  0.5077
32453SOL    HW297938   8.871   8.944   1.749  0.2115 -0.7093 -0.2235
32454SOL     OW97939   7.603   7.665   9.146  0.0762 -0.3709 -0.1172
32454SOL    HW197940   7.579   7.752   9.115  2.1958  0.0074 -0.8861
32454SOL    HW297941   7.629   7.618   9.067  1.6899 -0.7245  0.5775
32455SOL     OW97942   5.358   1.478   8.746  0.2901 -0.8958  0.5379
32455SOL    HW197943   5.354   1.496   8.652  1.7726 -1.1918  0.3871
32455SOL    HW297944   5.441   1.516   8.773  0.7742 -2.4615  1.3463
32456SOL     OW97945   5.497   4.130   6.186 -0.0365  0.1697  0.9172
32456SOL    HW197946   5.442   4.208   6.175  2.5590  2.0364 -0.2044
32456SOL    HW297947   5.578   4.164   6.224  1.5496 -1.8268 -0.4762
32457SOL     OW97948   2.309   6.665   5.475  0.1650  0.1155  0.4210
32457SOL    HW197949   2.313   6.599   5.406  0.2174  1.4884 -0.9514
32457SOL    HW297950   2.284   6.746   5.430 -0.6639  0.8832  2.1611
32458SOL     OW97951   8.034   0.308   7.916  0.1009 -0.2327  0.2675
32458SOL    HW197952   7.982   0.249   7.861 -0.2535 -0.4534  0.8356
32458SOL    HW297953   8.081   0.251   7.976  0.0080  0.0406  0.6064
32459SOL     OW97954   7.001   3.933   2.001 -0.3882 -0.2692  0.0308
32459SOL    HW197955   6.920   3.883   1.986 -2.8612  2.5065  2.8604
32459SOL    HW297956   7.017   3.925   2.095  1.4945  0.9315 -0.1463
32460SOL     OW97957   2.082   1.364   4.239 -0.2897  0.6371  0.4153
32460SOL    HW197958   2.064   1.389   4.329  0.5295 -1.0361  1.0811
32460SOL    HW297959   2.164   1.409   4.217  1.5148 -1.7392  1.8118
32461SOL     OW97960   4.603   9.068   9.195 -0.3901 -0.0674 -0.4783
32461SOL    HW197961   4.687   9.114   9.202 -0.3964 -0.1188 -0.0428
32461SOL    HW297962   4.626   8.975   9.194 -0.4062 -0.0706 -0.9347
32462SOL     OW97963   2.768   9.590   3.323 -0.1491  0.1482  0.3819
32462SOL    HW197964   2.761   9.666   3.265 -0.1010  0.3782  0.6770
32462SOL    HW297965   2.679   9.578   3.357 -0.6106 -1.1282 -1.1660
32463SOL     OW97966   3.083   8.219   2.023 -0.3764  0.1732 -0.3151
32463SOL    HW197967   3.102   8.205   1.931  1.5251  1.5740 -0.1848
32463SOL    HW297968   3.059   8.312   2.029  0.7240  0.4217  0.7337
32464SOL     OW97969   6.019   6.669   5.882 -0.1924 -0.5234 -0.1584
32464SOL    HW197970   6.113   6.688   5.874 -0.5336  2.5799  1.7513
32464SOL    HW297971   6.015   6.598   5.946  0.8576 -0.9017 -0.4848
32465SOL     OW97972   1.809   1.859   6.727  0.4182  0.3709 -0.1020
32465SOL    HW197973   1.828   1.878   6.819 -0.1850  1.9196 -0.2633
32465SOL    HW297974   1.715   1.876   6.719  0.2708 -0.6938 -0.7997
32466SOL     OW97975   6.317   0.749   5.098 -0.0875 -0.8524 -0.4637
32466SOL    HW197976   6.383   0.814   5.075 -1.2625  0.4848 -0.2391
32466SOL    HW297977   6.264   0.739   5.019 -1.7610  0.8299  0.3505
32467SOL     OW97978   7.574   5.311   8.357 -0.0156  0.0087  0.3634
32467SOL    HW197979   7.666   5.291   8.342  0.6508  2.1600  1.2073
32467SOL    HW297980   7.566   5.404   8.337 -2.0191 -0.1136  0.3547
32468SOL     OW97981   1.461   6.449   6.799 -0.5888  0.4849 -0.0968
32468SOL    HW197982   1.414   6.531   6.811 -2.5104 -0.4671 -0.7173
32468SOL    HW297983   1.520   6.466   6.726 -0.6228  1.4515  0.0970
32469SOL     OW97984   7.506   2.619   3.108 -0.2703 -0.9821 -0.2717
32469SOL    HW197985   7.520   2.561   3.182 -0.6885 -0.6487  0.0725
32469SOL    HW297986   7.439   2.575   3.055 -0.0414 -1.1731 -0.4042
32470SOL     OW97987   7.401   1.172   6.117 -0.7848 -0.2962  0.3745
32470SOL    HW197988   7.363   1.207   6.197 -1.4215  1.3698 -0.6048
32470SOL    HW297989   7.329   1.125   6.075 -1.1225  0.8091 -0.3163
32471SOL     OW97990   7.964   1.951   6.225 -0.0436 -0.5035  0.0351
32471SOL    HW197991   8.043   1.965   6.173  0.9843 -1.8893  1.1590
32471SOL    HW297992   7.932   2.040   6.243 -0.6644  0.0707 -3.1374
32472SOL     OW97993   2.714   5.797   0.380 -0.4855  0.6881  0.3164
32472SOL    HW197994   2.707   5.755   0.466 -0.3152 -0.6106 -0.2874
32472SOL    HW297995   2.627   5.833   0.364 -0.3169  1.6264  1.3534
32473SOL     OW97996   3.692   0.349   0.980  0.1210  0.5091  0.3879
32473SOL    HW197997   3.690   0.345   0.884 -0.3120  2.2122  0.2860
32473SOL    HW297998   3.612   0.304   1.007 -0.2293  0.8141 -0.1121
32474SOL     OW97999   2.879   6.647   7.797  0.3727 -0.1759 -0.3484
32474SOL    HW198000   2.921   6.673   7.879 -0.8049  0.8213 -0.0228
32474SOL    HW298001   2.836   6.564   7.817  1.9635 -1.1204 -0.6369
32475SOL     OW98002   2.704   5.411   9.388  0.5194 -0.6527 -0.0945
32475SOL    HW198003   2.761   5.468   9.440  3.5819 -1.7769 -1.9046
32475SOL    HW298004   2.656   5.360   9.453  0.3843  1.4127  1.5433
32476SOL     OW98005   0.643   8.540   5.986 -0.1781  0.1241  0.4605
32476SOL    HW198006   0.657   8.448   6.008 -1.9232 -0.1224  0.7080
32476SOL    HW298007   0.668   8.546   5.894 -4.4057 -1.8149 -1.0786
32477SOL     OW98008   1.411   2.437   9.977  0.0304  1.0369 -0.8982
32477SOL    HW198009   1.319   2.425   9.956 -0.1937 -0.8918  0.8593
32477SOL    HW298010   1.450   2.350   9.963  1.4868  1.7015 -1.1528
32478SOL     OW98011   6.651   6.917   0.691  0.1813 -0.2089 -0.2574
32478SOL    HW198012   6.687   6.881   0.610  0.0903 -1.2630  0.1631
32478SOL    HW298013   6.727   6.936   0.745  0.1766 -1.1446  0.0892
32479SOL     OW98014   9.428   4.895   5.963 -0.7939 -0.3231 -0.1271
32479SOL    HW198015   9.456   4.887   5.872 -1.1030  0.5683 -0.3018
32479SOL    HW298016   9.424   4.804   5.994 -1.8369 -0.7166 -1.3420
32480SOL     OW98017   8.735   2.956   3.927 -0.0700 -0.0605  0.1519
32480SOL    HW198018   8.826   2.980   3.946  0.4627 -0.7418 -1.3424
32480SOL    HW298019   8.708   2.904   4.002  1.3817 -1.2978 -0.1245
32481SOL     OW98020   5.343   9.808   2.766  0.0909  0.2639 -0.1509
32481SOL    HW198021   5.256   9.847   2.755  1.1323  2.8361  0.0295
32481SOL    HW298022   5.403   9.882   2.760  2.3168 -1.4691 -0.5013
32482SOL     OW98023   5.736   1.537   1.753  0.0174  0.7730  0.0885
32482SOL    HW198024   5.673   1.552   1.682  2.4542  0.5325 -2.3131
32482SOL    HW298025   5.733   1.442   1.767  0.1802  0.6984 -0.3645
32483SOL     OW98026   8.449   2.577   9.469  0.3142 -0.2625  0.3263
32483SOL    HW198027   8.509   2.639   9.427 -0.1730 -0.3945 -0.5795
32483SOL    HW298028   8.463   2.494   9.422 -1.8962  0.1532 -1.1862
32484SOL     OW98029   3.130   5.093   9.835 -0.0192  0.1797  0.7214
32484SOL    HW198030   3.120   5.160   9.903 -0.4375  1.0436 -0.1543
32484SOL    HW298031   3.053   5.106   9.779  0.6422 -0.0954 -0.2612
32485SOL     OW98032   4.824   7.024   5.637 -0.0262  0.4205 -0.1527
32485SOL    HW198033   4.864   6.939   5.617 -0.4541 -0.0665  0.9497
32485SOL    HW298034   4.791   7.055   5.554 -0.1690 -0.6627 -0.5185
32486SOL     OW98035   6.255   0.940   8.063  0.1959  0.0568 -0.1089
32486SOL    HW198036   6.200   0.892   8.001 -0.1876 -0.9657  0.9908
32486SOL    HW298037   6.333   0.885   8.072  0.3341  0.2993  0.1799
32487SOL     OW98038   2.514   3.439   4.847  0.6124 -0.4288  0.0253
32487SOL    HW198039   2.433   3.472   4.885  0.6692 -0.7972  0.4656
32487SOL    HW298040   2.503   3.344   4.843  1.3775 -0.5672  0.9393
32488SOL     OW98041   9.184   3.685   9.059 -0.0598  0.0861 -0.1226
32488SOL    HW198042   9.146   3.745   8.995 -2.3646 -0.8878  0.2312
32488SOL    HW298043   9.275   3.714   9.068  0.8397 -0.4593 -4.7367
32489SOL     OW98044   8.147   1.046   1.211 -0.7992 -0.6864 -0.0028
32489SOL    HW198045   8.063   1.086   1.234 -0.3410  1.3662 -1.5951
32489SOL    HW298046   8.125   0.978   1.148 -1.2652  0.3708 -1.0272
32490SOL     OW98047   7.795   9.720   5.007  0.2281 -0.7566  0.1217
32490SOL    HW198048   7.861   9.747   4.944  0.6475  0.1713  0.9276
32490SOL    HW298049   7.724   9.784   4.998 -0.8139 -2.0195 -1.0723
32491SOL     OW98050   0.032   8.778   6.184 -0.1646  0.3315  0.3386
32491SOL    HW198051   0.089   8.701   6.174  0.5916  1.0278 -1.1231
32491SOL    HW298052  -0.040   8.762   6.122 -1.3220 -0.2991  1.7984
32492SOL     OW98053   7.602   1.966   4.816  0.1864 -0.4621 -0.5064
32492SOL    HW198054   7.522   2.017   4.826 -1.1732 -2.4298 -0.8702
32492SOL    HW298055   7.636   1.958   4.906  0.2235  0.7266 -0.3995
32493SOL     OW98056   8.638   5.585   7.885  0.3182 -0.3665  0.1453
32493SOL    HW198057   8.613   5.620   7.971  0.0713  0.0432 -0.0952
32493SOL    HW298058   8.669   5.496   7.904 -2.5611 -1.4393  0.3016
32494SOL     OW98059   8.558   1.399   6.111  0.0778  0.4389  0.3160
32494SOL    HW198060   8.479   1.398   6.057 -0.6056  1.7927  1.2271
32494SOL    HW298061   8.622   1.445   6.057  0.3054 -0.7879 -0.4842
32495SOL     OW98062   7.494   7.637   4.843 -0.1461  0.4307  0.3629
32495SOL    HW198063   7.466   7.684   4.922  0.2668 -1.4974  1.7344
32495SOL    HW298064   7.438   7.559   4.840  0.5627 -0.0649 -0.6603
32496SOL     OW98065   4.342   5.798   3.379  0.1443  0.0025 -0.3781
32496SOL    HW198066   4.263   5.748   3.400 -0.5296  1.2293  0.1123
32496SOL    HW298067   4.384   5.813   3.463  0.0794  0.6496 -0.4513
32497SOL     OW98068   0.267   6.250   2.331  0.7634  0.1195 -0.0036
32497SOL    HW198069   0.299   6.257   2.241 -0.9287  0.7327 -0.6051
32497SOL    HW298070   0.329   6.302   2.383  0.5300  1.6533 -1.1800
32498SOL     OW98071   6.128   9.261   9.428 -0.2505  0.2228  0.4434
32498SOL    HW198072   6.200   9.274   9.490 -1.7169 -0.7644  2.4606
32498SOL    HW298073   6.068   9.334   9.444 -0.8995 -0.3288  0.5985
32499SOL     OW98074   1.017   8.502   6.297  0.0918  0.3734  0.0636
32499SOL    HW198075   1.069   8.581   6.288  0.1556  0.3271  0.0284
32499SOL    HW298076   1.081   8.431   6.301  0.0088  0.2364 -0.8361
32500SOL     OW98077   0.850   1.999   0.872 -0.1948  0.0237  0.6804
32500SOL    HW198078   0.778   2.036   0.821 -0.0997 -0.7556 -0.0268
32500SOL    HW298079   0.809   1.972   0.954 -0.7682 -0.6310  0.1927
32501SOL     OW98080   4.809   3.911   4.437  0.5994 -0.6907  0.0071
32501SOL    HW198081   4.742   3.914   4.505  0.2336 -1.1750 -0.3285
32501SOL    HW298082   4.891   3.926   4.484  0.0118  4.9801 -0.1152
32502SOL     OW98083   3.595   1.571   9.965  0.9199 -0.1088 -0.5446
32502SOL    HW198084   3.546   1.537  10.040  2.0132  1.3457  0.8944
32502SOL    HW298085   3.529   1.581   9.896 -0.6531  0.8864  1.0141
32503SOL     OW98086   1.320   2.344   4.775  0.6373  0.1375 -0.6154
32503SOL    HW198087   1.259   2.297   4.718  0.3074  2.4964 -2.3091
32503SOL    HW298088   1.401   2.350   4.724  1.3424 -0.3207  0.4102
32504SOL     OW98089   5.517   2.696   0.975  0.0705  0.4520 -0.3233
32504SOL    HW198090   5.575   2.627   1.008  0.5105  1.4000  0.9847
32504SOL    HW298091   5.575   2.769   0.955 -0.2962  0.1988 -2.5189
32505SOL     OW98092   5.133   2.680   8.697  0.2913 -0.2882  0.0158
32505SOL    HW198093   5.063   2.632   8.741  0.6604 -0.0763  0.8640
32505SOL    HW298094   5.088   2.742   8.640 -0.2652  0.4713  1.2229
32506SOL     OW98095   8.968   9.491   8.961 -0.1431  0.0955 -0.6454
32506SOL    HW198096   8.880   9.502   8.997 -0.5679  0.2818 -1.6855
32506SOL    HW298097   8.954   9.487   8.866  0.9696  0.0793 -0.8197
32507SOL     OW98098   9.350   2.939   4.933  0.1498  0.4199  0.1016
32507SOL    HW198099   9.330   2.932   5.027 -1.3118 -0.3179 -0.2310
32507SOL    HW298100   9.410   2.867   4.916 -0.5994 -0.2609  0.2450
32508SOL     OW98101   6.043   7.170   2.058 -0.0652 -0.7054  0.8447
32508SOL    HW198102   6.078   7.218   2.133 -0.0550  0.7943 -0.0833
32508SOL    HW298103   6.114   7.170   1.994 -0.2340 -1.5611  0.6398
32509SOL     OW98104   7.523   5.725   5.061 -0.1657 -0.5561 -0.0646
32509SOL    HW198105   7.492   5.672   5.134  2.4269 -1.2452  0.6265
32509SOL    HW298106   7.531   5.664   4.988 -0.6131 -0.3353 -0.3036
32510SOL     OW98107   3.061   1.039   5.871 -0.0769  0.9573 -0.4360
32510SOL    HW198108   3.098   0.983   5.802 -0.6293  0.2129 -0.1474
32510SOL    HW298109   3.067   0.986   5.950  0.1736  1.6497  0.0178
32511SOL     OW98110   3.258   5.243   8.321  0.1025 -0.3942  0.2247
32511SOL    HW198111   3.328   5.179   8.338 -0.1618 -0.3594  1.6279
32511SOL    HW298112   3.202   5.237   8.399 -1.1385  0.0013 -0.6103
32512SOL     OW98113   6.579   8.402   1.994  0.1385  0.2146 -0.1411
32512SOL    HW198114   6.649   8.385   2.056 -1.0935  0.9706  1.5338
32512SOL    HW298115   6.619   8.457   1.927  1.4719 -0.5073  0.0300
32513SOL     OW98116   9.460   8.003   3.813  0.4084  0.0847 -0.2669
32513SOL    HW198117   9.539   8.046   3.846  1.6070 -1.6223 -0.8048
32513SOL    HW298118   9.470   8.005   3.718 -0.4079  0.1768 -0.3638
32514SOL     OW98119   0.578   5.100   5.050  0.0178 -0.0099 -0.0383
32514SOL    HW198120   0.630   5.066   5.123 -0.2969  0.6410  0.4958
32514SOL    HW298121   0.490   5.064   5.064 -0.2096  0.6591  0.2892
32515SOL     OW98122   0.393   7.021   1.291 -0.1904  0.6889  0.2250
32515SOL    HW198123   0.363   6.948   1.345  1.9516 -0.6928 -0.3230
32515SOL    HW298124   0.313   7.062   1.259 -1.4668 -0.1801  2.1683
32516SOL     OW98125   5.873   6.890   4.569  0.2115  0.6688 -0.4556
32516SOL    HW198126   5.811   6.957   4.541  1.0130  2.8290  2.5092
32516SOL    HW298127   5.881   6.901   4.663  3.5163 -0.8560 -0.3896
32517SOL     OW98128   1.955   5.322   7.645 -0.0408 -0.0919  0.4628
32517SOL    HW198129   1.939   5.415   7.629 -0.2906  0.1741  2.0667
32517SOL    HW298130   2.029   5.321   7.707 -1.6836 -0.8039  2.5420
32518SOL     OW98131   0.059   1.380   0.615 -0.5062  0.1889 -0.5862
32518SOL    HW198132   0.115   1.355   0.542 -1.1765 -2.4705 -0.2900
32518SOL    HW298133   0.120   1.409   0.683  0.2708  0.4248 -1.3636
32519SOL     OW98134   0.428   5.054   9.615 -0.1324  0.0775  0.6903
32519SOL    HW198135   0.443   4.961   9.632 -0.7418 -0.5062 -1.6049
32519SOL    HW298136   0.335   5.059   9.590 -0.0024  1.2408  0.3739
32520SOL     OW98137   7.549   7.740   3.787 -0.3393  0.2229 -0.2683
32520SOL    HW198138   7.597   7.697   3.716 -2.1083 -2.1526 -0.1518
32520SOL    HW298139   7.471   7.776   3.745 -0.9996 -0.4989  0.2993
32521SOL     OW98140   3.093   0.818   7.845  0.4817 -0.5416 -0.2490
32521SOL    HW198141   3.111   0.896   7.897  0.6509 -0.8321  0.1295
32521SOL    HW298142   3.014   0.781   7.884  0.1588 -0.3318 -0.6921
32522SOL     OW98143   5.402   8.964   9.705 -0.9105 -0.0835  0.0407
32522SOL    HW198144   5.494   8.982   9.686 -1.1174  0.0227 -0.9398
32522SOL    HW298145   5.355   9.038   9.667 -1.3458  0.3870  1.4219
32523SOL     OW98146   0.907   6.571   5.981 -0.2681 -0.2415  0.1961
32523SOL    HW198147   0.939   6.484   5.956 -3.2934 -1.2074 -0.8175
32523SOL    HW298148   0.920   6.625   5.902  1.4344  0.2571  0.7642
32524SOL     OW98149   1.836   3.993   1.137  0.0504 -0.2925 -0.0131
32524SOL    HW198150   1.759   4.023   1.090  1.6036  1.0546 -1.8764
32524SOL    HW298151   1.887   3.946   1.071  0.9797 -0.8984  1.0932
32525SOL     OW98152   6.798   4.119   6.744  0.0378 -0.0184  0.0327
32525SOL    HW198153   6.714   4.095   6.782  0.2397  0.3125  0.7104
32525SOL    HW298154   6.782   4.122   6.650 -0.4641 -0.8887  0.0857
32526SOL     OW98155   0.381   0.166   0.277  0.8408  0.2839  0.6720
32526SOL    HW198156   0.426   0.239   0.235  0.0872  0.0019 -0.7191
32526SOL    HW298157   0.296   0.203   0.303  1.3178  0.4636  2.0202
32527SOL     OW98158   0.494   7.084   8.909 -0.3691  0.6465  0.0085
32527SOL    HW198159   0.437   7.132   8.969  0.6227 -0.3480  1.8441
32527SOL    HW298160   0.443   7.006   8.885  0.4458 -0.7225  2.3887
32528SOL     OW98161   8.676   1.520   5.474  0.7718 -0.1057  0.3493
32528SOL    HW198162   8.735   1.520   5.550  1.0668  0.3335  0.1239
32528SOL    HW298163   8.589   1.504   5.512  0.8846  0.3363  0.8103
32529SOL     OW98164   7.142   0.861   8.905  0.3260 -0.1651 -0.0806
32529SOL    HW198165   7.081   0.935   8.914  0.6230  0.2940 -1.5902
32529SOL    HW298166   7.166   0.840   8.995  0.5502  1.8656  0.4001
32530SOL     OW98167   1.618   5.134   4.670 -0.1333 -0.0592  0.0593
32530SOL    HW198168   1.594   5.115   4.579 -0.4646 -0.8339  0.3058
32530SOL    HW298169   1.674   5.212   4.664 -0.6413  0.2566 -0.7500
32531SOL     OW98170   8.743   5.161   8.681 -0.6217 -0.8196  0.2853
32531SOL    HW198171   8.778   5.072   8.674  1.0600 -0.1898  0.2259
32531SOL    HW298172   8.664   5.160   8.627  0.1820 -1.8871 -0.9434
32532SOL     OW98173   0.122   9.299   6.865  0.1488  0.2612 -0.5102
32532SOL    HW198174   0.126   9.394   6.878  2.2815  0.4984 -2.2998
32532SOL    HW298175   0.189   9.281   6.799 -2.2840 -2.1182 -2.5235
32533SOL     OW98176   5.575   5.304   1.254  0.1911 -0.0592  0.2972
32533SOL    HW198177   5.582   5.400   1.261  1.0783 -0.1849  1.4350
32533SOL    HW298178   5.562   5.288   1.161  0.8938  1.1363 -0.0319
32534SOL     OW98179   0.396   9.610   6.898 -0.7058 -0.2764  0.6392
32534SOL    HW198180   0.332   9.582   6.833  0.6162  0.6273 -1.1052
32534SOL    HW298181   0.464   9.544   6.895 -0.9123 -0.5485  1.5708
32535SOL     OW98182   4.900   8.258   0.049  0.4493  0.1692 -0.1800
32535SOL    HW198183   4.865   8.291  -0.034 -1.8095  1.1284  1.0823
32535SOL    HW298184   4.923   8.336   0.099  1.2192 -0.3822  0.3612
32536SOL     OW98185   4.879   0.618   9.210  0.5635 -0.1502  0.8804
32536SOL    HW198186   4.834   0.543   9.171  0.6200 -0.4758  1.4302
32536SOL    HW298187   4.866   0.689   9.146  1.0435 -0.7808  0.0593
32537SOL     OW98188   3.187   6.089   9.750  0.4270 -0.7322 -0.6161
32537SOL    HW198189   3.142   6.041   9.681  0.9443 -0.8278 -0.8936
32537SOL    HW298190   3.236   6.158   9.704 -0.6395  0.3371 -0.1921
32538SOL     OW98191   6.155   3.986   6.377 -0.5615  0.1166 -0.1445
32538SOL    HW198192   6.117   3.917   6.323 -0.3690  0.5802 -0.8811
32538SOL    HW298193   6.207   4.038   6.316 -0.2606  0.5860  0.5098
32539SOL     OW98194   4.319   2.410   7.060  0.4518 -0.1690  0.3172
32539SOL    HW198195   4.317   2.502   7.085 -0.4072  0.8427 -3.0443
32539SOL    HW298196   4.405   2.397   7.022 -0.5036  0.2029 -2.1295
32540SOL     OW98197   8.184   5.450   2.509  0.1286 -0.0514  0.5343
32540SOL    HW198198   8.108   5.497   2.541  2.2182  2.3135  2.4348
32540SOL    HW298199   8.223   5.410   2.587  2.1639  0.9313  0.1091
32541SOL     OW98200   8.750   4.922   7.829 -0.2279  0.7640  0.4456
32541SOL    HW198201   8.693   4.847   7.845 -0.8612  0.7621 -1.5741
32541SOL    HW298202   8.744   4.937   7.735  1.9377  1.7254  0.4053
32542SOL     OW98203   7.184   2.847   5.074 -0.4865 -0.4662  0.2723
32542SOL    HW198204   7.130   2.798   5.013 -1.4815  2.9021 -1.8133
32542SOL    HW298205   7.124   2.906   5.119  0.9390  0.7115  0.7379
32543SOL     OW98206   1.053   2.876   8.303  0.1807 -0.6290 -0.1049
32543SOL    HW198207   0.993   2.829   8.361  0.2639 -0.7908 -0.1520
32543SOL    HW298208   1.071   2.958   8.350  1.7033 -1.5244  0.9833
32544SOL     OW98209   3.936   9.768   3.610 -0.0733  0.4770 -0.4526
32544SOL    HW198210   4.026   9.796   3.620 -0.0003  0.3863 -0.8393
32544SOL    HW298211   3.942   9.677   3.580 -0.2916 -0.8417  3.0484
32545SOL     OW98212   1.487   2.950   3.277 -0.2160 -0.5039  0.1034
32545SOL    HW198213   1.441   2.889   3.219 -0.8434  0.8557 -0.8722
32545SOL    HW298214   1.572   2.909   3.292 -1.6233 -3.0313  1.8634
32546SOL     OW98215   8.696   5.989   9.180 -0.6558 -0.1713  0.5910
32546SOL    HW198216   8.736   6.057   9.235  2.0082 -0.9586 -0.2296
32546SOL    HW298217   8.684   6.032   9.095 -0.1344 -0.3432  0.4251
32547SOL     OW98218   9.865   1.405   5.557  0.1876 -0.0015  0.6468
32547SOL    HW198219   9.852   1.433   5.648  1.5133 -0.4399  0.9875
32547SOL    HW298220   9.921   1.328   5.563  0.2033 -0.1011 -0.5386
32548SOL     OW98221   7.691   9.984   8.926  0.1466 -0.2919 -0.1211
32548SOL    HW198222   7.642   9.915   8.970  0.3944 -0.8787 -0.7566
32548SOL    HW298223   7.778   9.946   8.911  0.5403  0.4333  0.2250
32549SOL     OW98224   7.015   5.991   7.416 -0.5299 -0.4243 -0.2473
32549SOL    HW198225   7.060   5.917   7.458 -0.8302 -1.8253 -2.2559
32549SOL    HW298226   7.086   6.047   7.384 -0.2646 -0.8923 -0.4855
32550SOL     OW98227   5.201   3.495   8.495  0.6092 -0.4793  0.1692
32550SOL    HW198228   5.251   3.491   8.576  0.5860 -0.9563  0.1632
32550SOL    HW298229   5.262   3.530   8.430  1.2522 -1.9770 -0.0662
32551SOL     OW98230   9.131   4.759   4.487 -0.4484 -0.2175  0.4267
32551SOL    HW198231   9.158   4.693   4.422 -2.2189 -0.3351 -0.2350
32551SOL    HW298232   9.107   4.709   4.564  2.2523 -0.0483  1.5098
32552SOL     OW98233   3.701   5.396   1.005 -0.0770  0.2385  0.6134
32552SOL    HW198234   3.736   5.314   1.041  1.3460  0.6575  0.2602
32552SOL    HW298235   3.764   5.421   0.938 -2.7025 -0.5977 -2.4011
32553SOL     OW98236   2.910   6.111   6.452  0.2883 -0.5352  0.3862
32553SOL    HW198237   2.907   6.016   6.439 -0.6084 -0.2810 -1.6618
32553SOL    HW298238   2.847   6.128   6.521 -0.9798 -1.2755 -0.5463
32554SOL     OW98239   8.124   7.911   7.314 -0.0650 -0.1001  0.3458
32554SOL    HW198240   8.120   7.971   7.240 -0.8441 -1.1779 -0.5288
32554SOL    HW298241   8.208   7.866   7.305  0.9757  1.4877  1.5629
32555SOL     OW98242   9.122   3.294   6.210 -0.2290 -0.2560 -0.7098
32555SOL    HW198243   9.155   3.337   6.289  0.4900  0.1997 -1.2437
32555SOL    HW298244   9.148   3.203   6.220  0.3163 -0.0969 -0.6577
32556SOL     OW98245   8.402   6.655   6.305  0.8334 -0.3209  0.2617
32556SOL    HW198246   8.428   6.616   6.221  2.2429  0.0045  0.5147
32556SOL    HW298247   8.471   6.629   6.366  0.9461  1.1529  0.8199
32557NA      NA98248   5.110   6.417   6.708  0.5396 -0.4083 -0.1825
32558NA      NA98249   5.980   5.076   6.422  0.3312  0.2055 -0.8892
32559NA      NA98250   7.374   4.560   3.462  0.2334 -0.2105  0.1717
32560NA      NA98251   9.978   5.624   3.508  0.4146 -0.1441 -0.2077
32561NA      NA98252   1.096   1.485   0.700  0.6122 -0.0818 -0.2385
32562NA      NA98253   4.579   6.851   2.997  0.1264  0.4985 -0.6446
32563NA      NA98254   3.631   1.331   3.810 -0.0216 -0.0744 -0.5422
32564NA      NA98255   6.319   8.416   5.556  0.2654  0.2420 -0.0166
32565NA      NA98256   3.687   7.025   5.847 -0.2886  0.2381  0.0826
32566NA      NA98257   0.927   1.461   3.598 -0.0781 -0.4847  0.3574
32567NA      NA98258   1.444   4.046   7.164 -0.1467 -0.3535  0.2268
32568NA      NA98259   2.819   4.397   1.033  0.0190  0.1205  0.5323
32569NA      NA98260   5.798   2.439   6.499  0.2222  0.4324  0.2974
32570NA      NA98261   0.741   5.739   7.989 -0.1737 -0.3264 -0.2920
32571NA      NA98262   2.412   8.735   4.165  0.2168 -0.3139  1.0233
32572NA      NA98263   4.283   3.922   4.611 -0.3202 -0.4579 -0.0692
32573NA      NA98264   3.810   5.068   4.051 -0.3231  0.3364 -0.3617
32574NA      NA98265   3.336   1.726   9.046  0.2592  0.0529  0.2641
32575NA      NA98266   7.328   5.901   3.906  0.1498  0.3456 -0.3804
   9.98034   9.98034   9.98034
